<event>
 9    2  0.3745229E-005  0.1006906E+03  0.7546771E-02  0.1283877E+00
          2   -1    0    0  502    0 -0.00000000000E+00  0.00000000000E+00  0.49483335789E+03  0.49483335789E+03  0.00000000000E+00 0. -1.
         21   -1    0    0  501  502  0.00000000000E+00 -0.00000000000E+00 -0.29191329849E+02  0.29191329849E+02  0.00000000000E+00 0. -1.
         23    2    1    2    0    0 -0.50194391782E+02 -0.25375732617E+02  0.24147044891E+03  0.26395288072E+03  0.90552420035E+02 0.  0.
         24    2    1    2    0    0  0.13333819259E+02  0.30324635660E+02  0.11078812864E+03  0.14074452475E+03  0.80234889758E+02 0.  0.
        -11    1    4    4    0    0  0.11844818251E+02 -0.24477566551E+02  0.60587811157E+02  0.66410344408E+02  0.00000000000E+00 0.  1.
         12    1    4    4    0    0  0.14890010081E+01  0.54802202211E+02  0.50200317487E+02  0.74334180341E+02  0.00000000000E+00 0. -1.
        -11    1    3    3    0    0 -0.46063473118E+01 -0.52999404467E+02  0.11505583936E+03  0.12675962085E+03  0.00000000000E+00 0.  1.
         11    1    3    3    0    0 -0.45588044470E+02  0.27623671851E+02  0.12641460955E+03  0.13719325987E+03  0.00000000000E+00 0. -1.
          1    1    1    2  501    0  0.36860572523E+02 -0.49489030437E+01  0.11338345049E+03  0.11932728227E+03  0.00000000000E+00 0. -1.
<scales pt_clust_5="13000.00000" pt_clust_6="13000.00000" pt_clust_7="13000.00000" pt_clust_8="13000.00000" pt_clust_9="37.19133"></scales>
<clustering>
<clus scale="   37.191">  2  9  1 -1</clus>
<clus scale="   80.235">  5  6 -1 -1</clus>
<clus scale="   90.552">  7  8 -1 -1</clus>
<clus scale="   91.523">  2  5  1 -1</clus>
<clus scale="   37.191">  2  5  1 -1</clus>
</clustering>
</event>
<event>
 9    2  0.3745229E-005  0.1513620E+03  0.7546771E-02  0.1201311E+00
         -1   -1    0    0    0  501 -0.00000000000E+00  0.00000000000E+00  0.40950205597E+03  0.40950205597E+03  0.00000000000E+00 0.  1.
         21   -1    0    0  501  502  0.00000000000E+00 -0.00000000000E+00 -0.79843361121E+02  0.79843361121E+02  0.00000000000E+00 0.  1.
         24    2    1    2    0    0  0.33915915517E+02 -0.11411176844E+03  0.14614627214E+03  0.20461046903E+03  0.79592249330E+02 0.  0.
         23    2    1    2    0    0  0.23102152475E+02  0.12524929273E+03  0.11735429312E+03  0.19668949028E+03  0.93239641230E+02 0.  0.
        -11    1    3    3    0    0  0.36715735005E+00 -0.62408923517E+02  0.22298315537E+02  0.66273851667E+02  0.00000000000E+00 0.  1.
         12    1    3    3    0    0  0.33548758167E+02 -0.51702844920E+02  0.12384795660E+03  0.13833661736E+03  0.00000000000E+00 0. -1.
        -13    1    4    4    0    0  0.40731126760E+02  0.11784463661E+02  0.39572609697E+02  0.57999049209E+02  0.00000000000E+00 0. -1.
         13    1    4    4    0    0 -0.17628974284E+02  0.11346482907E+03  0.77781683423E+02  0.13869044108E+03  0.00000000000E+00 0.  1.
         -2    1    1    2    0  502 -0.57018067992E+02 -0.11137524292E+02  0.66158129585E+02  0.88045457777E+02  0.00000000000E+00 0.  1.
<scales pt_clust_5="13000.00000" pt_clust_6="13000.00000" pt_clust_7="13000.00000" pt_clust_8="13000.00000" pt_clust_9="58.09568"></scales>
<clustering>
<clus scale="   58.096">  2  9  1 -1</clus>
<clus scale="   79.592">  5  6 -1 -1</clus>
<clus scale="   93.240">  7  8 -1 -1</clus>
<clus scale="  143.359">  1  5  2 -1</clus>
<clus scale="   58.096">  2  5  1 -1</clus>
</clustering>
</event>
<event>
 9    2  0.3745229E-005  0.9618008E+02  0.7546771E-02  0.1291867E+00
         -3   -1    0    0    0  501 -0.00000000000E+00  0.00000000000E+00  0.13297297411E+03  0.13297297411E+03  0.00000000000E+00 0.  1.
         21   -1    0    0  501  502  0.00000000000E+00 -0.00000000000E+00 -0.97293326839E+03  0.97293326839E+03  0.00000000000E+00 0. -1.
         23    2    1    2    0    0  0.44668240618E+01  0.29509042562E+02  0.10663365188E+03  0.14334734920E+03  0.91032909983E+02 0.  0.
         24    2    1    2    0    0  0.32176045441E+02 -0.70565779408E+02 -0.52864348791E+03  0.54100113797E+03  0.84873239870E+02 0.  0.
        -11    1    4    4    0    0  0.22941501702E+02 -0.58395192022E+01 -0.30618558352E+02  0.38702824191E+02  0.00000000000E+00 0.  1.
         12    1    4    4    0    0  0.92345437392E+01 -0.64726260206E+02 -0.49802492956E+03  0.50229831378E+03  0.00000000000E+00 0. -1.
        -11    1    3    3    0    0 -0.34769622107E+02  0.41550664263E+02  0.68374916966E+02  0.87238257618E+02  0.00000000000E+00 0.  1.
         11    1    3    3    0    0  0.39236446169E+02 -0.12041621701E+02  0.38258734917E+02  0.56109091586E+02  0.00000000000E+00 0. -1.
         -4    1    1    2    0  502 -0.36642869503E+02  0.41056736846E+02 -0.41795045825E+03  0.42155775533E+03  0.00000000000E+00 0.  1.
<scales pt_clust_5="13000.00000" pt_clust_6="13000.00000" pt_clust_7="13000.00000" pt_clust_8="13000.00000" pt_clust_9="55.03050"></scales>
<clustering>
<clus scale="   55.030">  2  9  1 -1</clus>
<clus scale="   84.873">  5  6 -1 -1</clus>
<clus scale="   90.372">  2  5  1 -1</clus>
<clus scale="   91.033">  7  8 -1 -1</clus>
<clus scale="   55.030">  2  5  1 -1</clus>
</clustering>
</event>
<event>
 9    2  0.3745229E-005  0.1825220E+03  0.7546771E-02  0.1165395E+00
         -3   -1    0    0    0  501 -0.00000000000E+00  0.00000000000E+00  0.14931146125E+03  0.14931146125E+03  0.00000000000E+00 0.  1.
         21   -1    0    0  501  502  0.00000000000E+00 -0.00000000000E+00 -0.42199813363E+03  0.42199813363E+03  0.00000000000E+00 0. -1.
         23    2    1    2    0    0 -0.20259607474E+03 -0.73157796353E+01 -0.84537969398E+02  0.23390994055E+03  0.80426997243E+02 0.  0.
         24    2    1    2    0    0  0.10815787183E+03  0.54623723326E+02 -0.18002469072E+03  0.23146280861E+03  0.80524940919E+02 0.  0.
        -13    1    4    4    0    0  0.45411701891E+02  0.58892097407E+02 -0.58463710451E+02  0.94596549859E+02  0.00000000000E+00 0.  1.
         14    1    4    4    0    0  0.62746169944E+02 -0.42683740807E+01 -0.12156098027E+03  0.13686625875E+03  0.00000000000E+00 0. -1.
        -13    1    3    3    0    0 -0.25135555955E+02  0.13518474802E+02  0.11835809952E+02  0.30897115260E+02  0.00000000000E+00 0.  1.
         13    1    3    3    0    0 -0.17746051879E+03 -0.20834254438E+02 -0.96373779350E+02  0.20301282529E+03  0.00000000000E+00 0. -1.
         -4    1    1    2    0  502  0.94438202908E+02 -0.47307943691E+02 -0.81240122599E+01  0.10593684571E+03  0.00000000000E+00 0.  1.
<scales pt_clust_5="13000.00000" pt_clust_6="13000.00000" pt_clust_7="13000.00000" pt_clust_8="13000.00000" pt_clust_9="105.62493"></scales>
<clustering>
<clus scale="   80.427">  7  8 -1 -1</clus>
<clus scale="   80.525">  5  6 -1 -1</clus>
<clus scale="  105.625">  2  9  1 -1</clus>
<clus scale="  182.479">  1  7  2 -1</clus>
<clus scale="  105.625">  2  5  1 -1</clus>
</clustering>
</event>
<event>
 9    2  0.3745229E-005  0.1298742E+03  0.7546771E-02  0.1230044E+00
          2   -1    0    0  502    0 -0.00000000000E+00  0.00000000000E+00  0.27768688558E+03  0.27768688558E+03  0.00000000000E+00 0. -1.
         21   -1    0    0  501  502  0.00000000000E+00 -0.00000000000E+00 -0.24586167603E+03  0.24586167603E+03  0.00000000000E+00 0.  1.
         23    2    1    2    0    0 -0.27562368130E+01  0.90669017489E+02  0.22580013046E+03  0.25962588048E+03  0.90506526424E+02 0.  0.
         24    2    1    2    0    0  0.10013975901E+02 -0.11442391289E+03 -0.11677716537E+03  0.18282728487E+03  0.81214519569E+02 0.  0.
        -13    1    4    4    0    0  0.22873590735E+02 -0.35273791171E+02 -0.88186286835E+02  0.97694742348E+02  0.00000000000E+00 0.  1.
         14    1    4    4    0    0 -0.12859614834E+02 -0.79150121715E+02 -0.28590878531E+02  0.85132542523E+02  0.00000000000E+00 0. -1.
        -11    1    3    3    0    0  0.50460635616E+01  0.20646310111E+02 -0.18383304526E+01  0.21333362078E+02  0.00000000000E+00 0.  1.
         11    1    3    3    0    0 -0.78023003746E+01  0.70022707377E+02  0.22763846092E+03  0.23829251840E+03  0.00000000000E+00 0. -1.
          1    1    1    2  501    0 -0.72577390878E+01  0.23754895398E+02 -0.77197755545E+02  0.81095396251E+02  0.00000000000E+00 0. -1.
<scales pt_clust_5="13000.00000" pt_clust_6="13000.00000" pt_clust_7="13000.00000" pt_clust_8="13000.00000" pt_clust_9="24.83888"></scales>
<clustering>
<clus scale="   24.839">  2  9  1 -1</clus>
<clus scale="   81.215">  5  6 -1 -1</clus>
<clus scale="   90.507">  7  8 -1 -1</clus>
<clus scale="  123.579">  2  5  1 -1</clus>
<clus scale="   24.839">  2  5  1 -1</clus>
</clustering>
</event>
<event>
 9    2  0.3745229E-005  0.1951376E+03  0.7546771E-02  0.1180668E+00
         21   -1    0    0  501  502  0.00000000000E+00  0.00000000000E+00  0.15846344518E+03  0.15846344518E+03  0.00000000000E+00 0.  1.
          2   -1    0    0  502    0 -0.00000000000E+00 -0.00000000000E+00 -0.49995888913E+03  0.49995888913E+03  0.00000000000E+00 0. -1.
         23    2    1    2    0    0 -0.43877551743E+02  0.29066162638E+02 -0.38936897596E+02  0.11244461336E+03  0.91420061919E+02 0.  0.
         24    2    1    2    0    0  0.42238182893E+02  0.16813079011E+03 -0.76563759465E+01  0.19121496105E+03  0.80327545470E+02 0.  0.
        -11    1    4    4    0    0  0.66488411810E+02  0.12169043200E+03 -0.58739845011E+01  0.13879399785E+03  0.00000000000E+00 0.  1.
         12    1    4    4    0    0 -0.24250228918E+02  0.46440358110E+02 -0.17823914455E+01  0.52420963204E+02  0.00000000000E+00 0. -1.
        -11    1    3    3    0    0  0.18837623531E+02  0.10694676761E+02  0.16113123159E+02  0.26997498204E+02  0.00000000000E+00 0. -1.
         11    1    3    3    0    0 -0.62715175274E+02  0.18371485877E+02 -0.55050020755E+02  0.85447115154E+02  0.00000000000E+00 0.  1.
          1    1    1    2  501    0  0.16393688500E+01 -0.19719695274E+03 -0.29490217040E+03  0.35476275990E+03  0.00000000000E+00 0. -1.
<scales pt_clust_5="13000.00000" pt_clust_6="13000.00000" pt_clust_7="13000.00000" pt_clust_8="13000.00000" pt_clust_9="177.83754"></scales>
<clustering>
<clus scale="   80.328">  5  6 -1 -1</clus>
<clus scale="   91.420">  7  8 -1 -1</clus>
<clus scale="  105.488">  2  7  1 -1</clus>
<clus scale="  177.838">  1  9  2 -1</clus>
<clus scale="  177.838">  1  5  2 -1</clus>
</clustering>
</event>
<event>
 9    2  0.3745229E-005  0.1731716E+03  0.7546771E-02  0.1184532E+00
          2   -1    0    0  502    0 -0.00000000000E+00  0.00000000000E+00  0.68028261012E+03  0.68028261012E+03  0.00000000000E+00 0. -1.
         21   -1    0    0  501  502  0.00000000000E+00 -0.00000000000E+00 -0.13524860100E+03  0.13524860100E+03  0.00000000000E+00 0. -1.
         24    2    1    2    0    0  0.16868465742E+01 -0.11030394607E+03 -0.25810139867E+01  0.13845797115E+03  0.83630988109E+02 0.  0.
         23    2    1    2    0    0 -0.13565860806E+03  0.14837960295E+03  0.46590484159E+03  0.51559648533E+03  0.91392832126E+02 0.  0.
        -13    1    3    3    0    0  0.85116695782E+01 -0.59972760759E+02 -0.42382880743E+02  0.73928946510E+02  0.00000000000E+00 0.  1.
         14    1    3    3    0    0 -0.68248230039E+01 -0.50331185308E+02  0.39801866756E+02  0.64529024638E+02  0.00000000000E+00 0. -1.
        -11    1    4    4    0    0  0.93052866926E+01  0.34739001277E+02  0.92099879569E+02  0.98872515831E+02  0.00000000000E+00 0.  1.
         11    1    4    4    0    0 -0.14496389475E+03  0.11364060167E+03  0.37380496202E+03  0.41672396950E+03  0.00000000000E+00 0. -1.
          1    1    1    2  501    0  0.13397176149E+03 -0.38075656884E+02  0.81710181530E+02  0.16147675464E+03  0.00000000000E+00 0. -1.
<scales pt_clust_5="13000.00000" pt_clust_6="13000.00000" pt_clust_7="13000.00000" pt_clust_8="13000.00000" pt_clust_9="147.09095"></scales>
<clustering>
<clus scale="   83.631">  5  6 -1 -1</clus>
<clus scale="   91.393">  7  8 -1 -1</clus>
<clus scale="  138.434">  1  5  2 -1</clus>
<clus scale="  147.091">  2  9  1 -1</clus>
<clus scale="  147.091">  2  5  1 -1</clus>
</clustering>
</event>
<event>
 9    2  0.3745229E-005  0.9667176E+02  0.7546771E-02  0.1295080E+00
          2   -1    0    0  502    0 -0.00000000000E+00  0.00000000000E+00  0.20075130527E+03  0.20075130527E+03  0.00000000000E+00 0. -1.
         21   -1    0    0  501  502  0.00000000000E+00 -0.00000000000E+00 -0.11677105669E+03  0.11677105669E+03  0.00000000000E+00 0.  1.
         23    2    1    2    0    0 -0.79044523741E+01  0.11872407955E+02  0.12661618792E+03  0.15823937451E+03  0.93832862924E+02 0.  0.
         24    2    1    2    0    0  0.48712515725E+02 -0.21797617391E+02  0.37764627973E+01  0.96689705962E+02  0.80539383258E+02 0.  0.
        -11    1    4    4    0    0  0.48992180927E+02 -0.48960358213E+02 -0.98928180778E-02  0.69262909022E+02  0.00000000000E+00 0.  1.
         12    1    4    4    0    0 -0.27966520201E+00  0.27162740822E+02  0.37863556154E+01  0.27426796940E+02  0.00000000000E+00 0. -1.
        -13    1    3    3    0    0 -0.43411761758E+02  0.43980552312E+01  0.10998468545E+03  0.11832394087E+03  0.00000000000E+00 0. -1.
         13    1    3    3    0    0  0.35507309384E+02  0.74743527242E+01  0.16631502463E+02  0.39915433638E+02  0.00000000000E+00 0.  1.
          1    1    1    2  501    0 -0.40808063351E+02  0.99252094355E+01 -0.46412402133E+02  0.62593281497E+02  0.00000000000E+00 0. -1.
<scales pt_clust_5="13000.00000" pt_clust_6="13000.00000" pt_clust_7="13000.00000" pt_clust_8="13000.00000" pt_clust_9="41.99771"></scales>
<clustering>
<clus scale="   41.998">  2  9  1 -1</clus>
<clus scale="   80.539">  5  6 -1 -1</clus>
<clus scale="   83.830">  2  5  1 -1</clus>
<clus scale="   93.833">  7  8 -1 -1</clus>
<clus scale="   41.998">  2  5  1 -1</clus>
</clustering>
</event>
<event>
 9    2  0.3745229E-005  0.1023177E+03  0.7546771E-02  0.1278729E+00
         21   -1    0    0  501  502  0.00000000000E+00  0.00000000000E+00  0.43688977604E+02  0.43688977604E+02  0.00000000000E+00 0. -1.
         -3   -1    0    0    0  501 -0.00000000000E+00 -0.00000000000E+00 -0.43495292831E+03  0.43495292831E+03  0.00000000000E+00 0.  1.
         23    2    1    2    0    0  0.35006055572E+02  0.38826112149E+02 -0.31075432051E+03  0.32783012675E+03  0.90396091631E+02 0.  0.
         24    2    1    2    0    0 -0.82576925937E+01 -0.34622599468E+02 -0.33689339944E+02  0.96725884323E+02  0.83390714059E+02 0.  0.
        -11    1    4    4    0    0  0.30135716063E+02  0.99652666615E+01 -0.13857179297E+02  0.34633644629E+02  0.00000000000E+00 0.  1.
         12    1    4    4    0    0 -0.38393408657E+02 -0.44587866129E+02 -0.19832160648E+02  0.62092239694E+02  0.00000000000E+00 0. -1.
        -11    1    3    3    0    0  0.29826117423E+02  0.67637937701E+02 -0.19837348749E+03  0.21169914604E+03  0.00000000000E+00 0. -1.
         11    1    3    3    0    0  0.51799381493E+01 -0.28811825552E+02 -0.11238083302E+03  0.11613098071E+03  0.00000000000E+00 0.  1.
         -4    1    1    2    0  502 -0.26748362979E+02 -0.42035126806E+01 -0.46820290254E+02  0.54085894837E+02  0.00000000000E+00 0.  1.
<scales pt_clust_5="13000.00000" pt_clust_6="13000.00000" pt_clust_7="13000.00000" pt_clust_8="13000.00000" pt_clust_9="27.07665"></scales>
<clustering>
<clus scale="   27.077">  1  9  2 -1</clus>
<clus scale="   83.391">  5  6 -1 -1</clus>
<clus scale="   90.396">  7  8 -1 -1</clus>
<clus scale="   96.185">  1  5  2 -1</clus>
<clus scale="   27.077">  1  5  2 -1</clus>
</clustering>
</event>
<event>
 9    2  0.3745229E-005  0.1324199E+03  0.7546771E-02  0.1226804E+00
          2   -1    0    0  502    0 -0.00000000000E+00  0.00000000000E+00  0.87557939572E+02  0.87557939572E+02  0.00000000000E+00 0. -1.
         21   -1    0    0  501  502  0.00000000000E+00 -0.00000000000E+00 -0.24918518231E+03  0.24918518231E+03  0.00000000000E+00 0. -1.
         23    2    1    2    0    0 -0.94011882674E+02  0.36448530797E+02 -0.42924440036E+02  0.14254481696E+03  0.91158037538E+02 0.  0.
         24    2    1    2    0    0  0.92318669555E+02 -0.47166085320E+01 -0.93892856729E+02  0.15388310580E+03  0.79493135309E+02 0.  0.
        -11    1    4    4    0    0  0.53942698176E+02 -0.35207953466E+02 -0.80444573320E+02  0.10305699419E+03  0.00000000000E+00 0.  1.
         12    1    4    4    0    0  0.38375971379E+02  0.30491344934E+02 -0.13448283409E+02  0.50826111614E+02  0.00000000000E+00 0. -1.
        -11    1    3    3    0    0  0.58342845113E+01  0.24992439560E+02 -0.32636040387E+02  0.41518333819E+02  0.00000000000E+00 0.  1.
         11    1    3    3    0    0 -0.99846167185E+02  0.11456091237E+02 -0.10288399649E+02  0.10102648314E+03  0.00000000000E+00 0. -1.
          1    1    1    2  501    0  0.16932131185E+01 -0.31731922265E+02 -0.24809945971E+02  0.40315199123E+02  0.00000000000E+00 0. -1.
<scales pt_clust_5="13000.00000" pt_clust_6="13000.00000" pt_clust_7="13000.00000" pt_clust_8="13000.00000" pt_clust_9="31.77707"></scales>
<clustering>
<clus scale="   31.777">  2  9  1 -1</clus>
<clus scale="   79.493">  5  6 -1 -1</clus>
<clus scale="   91.158">  7  8 -1 -1</clus>
<clus scale="  124.677">  2  5  1 -1</clus>
<clus scale="   31.777">  2  5  1 -1</clus>
</clustering>
</event>
<event>
 9    2  0.3745229E-005  0.2873499E+03  0.7546771E-02  0.1092086E+00
          2   -1    0    0  502    0 -0.00000000000E+00  0.00000000000E+00  0.70468809550E+03  0.70468809550E+03  0.00000000000E+00 0. -1.
         21   -1    0    0  501  502  0.00000000000E+00 -0.00000000000E+00 -0.46936721100E+03  0.46936721100E+03  0.00000000000E+00 0.  1.
         24    2    1    2    0    0 -0.14903803563E+02 -0.26974067464E+03  0.18721124709E+03  0.33851852091E+03  0.81022114566E+02 0.  0.
         23    2    1    2    0    0 -0.56995588864E+02  0.28957945401E+03 -0.32907433286E+03  0.45104901307E+03  0.89724792051E+02 0.  0.
        -13    1    3    3    0    0  0.15430616033E+02 -0.23641597270E+03  0.15978022665E+03  0.28576272830E+03  0.00000000000E+00 0.  1.
         14    1    3    3    0    0 -0.30334419596E+02 -0.33324701938E+02  0.27431020441E+02  0.52755792610E+02  0.00000000000E+00 0. -1.
        -13    1    4    4    0    0  0.17801799632E+02  0.74683179118E+02 -0.53016053041E+02  0.93301571227E+02  0.00000000000E+00 0. -1.
         13    1    4    4    0    0 -0.74797388496E+02  0.21489627489E+03 -0.27605827982E+03  0.35774744184E+03  0.00000000000E+00 0.  1.
          1    1    1    2  501    0  0.71899392427E+02 -0.19838779376E+02  0.37718397026E+03  0.38448777253E+03  0.00000000000E+00 0. -1.
<scales pt_clust_5="13000.00000" pt_clust_6="13000.00000" pt_clust_7="13000.00000" pt_clust_8="13000.00000" pt_clust_9="74.58623"></scales>
<clustering>
<clus scale="   74.586">  2  9  1 -1</clus>
<clus scale="   81.022">  5  6 -1 -1</clus>
<clus scale="   89.725">  7  8 -1 -1</clus>
<clus scale="  284.753">  1  5  2 -1</clus>
<clus scale="   74.586">  2  5  1 -1</clus>
</clustering>
</event>
<event>
 9    2  0.3745229E-005  0.1146949E+03  0.7546771E-02  0.1256756E+00
         21   -1    0    0  501  502  0.00000000000E+00  0.00000000000E+00  0.80386101999E+02  0.80386101999E+02  0.00000000000E+00 0. -1.
          2   -1    0    0  502    0 -0.00000000000E+00 -0.00000000000E+00 -0.63370756519E+03  0.63370756519E+03  0.00000000000E+00 0. -1.
         23    2    1    2    0    0  0.65708721042E+02 -0.11695771197E+01 -0.41331794925E+03  0.42792333998E+03  0.89261715201E+02 0.  0.
         24    2    1    2    0    0 -0.86704456961E+02  0.83786152496E+02 -0.14167510818E+03  0.20091122985E+03  0.75866354835E+02 0.  0.
        -11    1    4    4    0    0 -0.36583171342E+02 -0.83099397927E+01 -0.40496490372E+02  0.55202801172E+02  0.00000000000E+00 0.  1.
         12    1    4    4    0    0 -0.50121285619E+02  0.92096092288E+02 -0.10117861781E+03  0.14570842868E+03  0.00000000000E+00 0. -1.
        -13    1    3    3    0    0  0.66006740127E+01 -0.39727733223E+02 -0.15060278412E+03  0.15589438819E+03  0.00000000000E+00 0.  1.
         13    1    3    3    0    0  0.59108047029E+02  0.38558156103E+02 -0.26271516512E+03  0.27202895179E+03  0.00000000000E+00 0. -1.
          1    1    1    2  501    0  0.20995735919E+02 -0.82616575376E+02  0.16715942402E+01  0.85259097350E+02  0.00000000000E+00 0. -1.
<scales pt_clust_5="13000.00000" pt_clust_6="13000.00000" pt_clust_7="13000.00000" pt_clust_8="13000.00000" pt_clust_9="85.24271"></scales>
<clustering>
<clus scale="   75.866">  5  6 -1 -1</clus>
<clus scale="   85.243">  1  9  2 -1</clus>
<clus scale="   89.262">  7  8 -1 -1</clus>
<clus scale="  104.609">  1  5  2 -1</clus>
<clus scale="   85.243">  1  5  2 -1</clus>
</clustering>
</event>
<event>
 9    2  0.3745229E-005  0.2206173E+03  0.7546771E-02  0.1134116E+00
          2   -1    0    0  502    0 -0.00000000000E+00  0.00000000000E+00  0.13115481710E+04  0.13115481710E+04  0.00000000000E+00 0. -1.
         21   -1    0    0  501  502  0.00000000000E+00 -0.00000000000E+00 -0.59472023613E+02  0.59472023613E+02  0.00000000000E+00 0.  1.
         23    2    1    2    0    0  0.18735101388E+03  0.73216770451E+02  0.69687489694E+03  0.73099619842E+03  0.90883014017E+02 0.  0.
         24    2    1    2    0    0 -0.20777400612E+03 -0.10830091392E+02  0.28604050064E+03  0.36297399066E+03  0.81508412975E+02 0.  0.
        -11    1    4    4    0    0 -0.12240056339E+03 -0.43139383384E+02  0.14132257724E+03  0.19187228865E+03  0.00000000000E+00 0.  1.
         12    1    4    4    0    0 -0.85373442734E+02  0.32309291992E+02  0.14471792341E+03  0.17110170200E+03  0.00000000000E+00 0. -1.
        -11    1    3    3    0    0  0.45736146336E+01  0.31144360977E+02  0.13588650611E+03  0.13948487988E+03  0.00000000000E+00 0.  1.
         11    1    3    3    0    0  0.18277739925E+03  0.42072409474E+02  0.56098839084E+03  0.59151131854E+03  0.00000000000E+00 0. -1.
          1    1    1    2  501    0  0.20422992240E+02 -0.62386679059E+02  0.26916074983E+03  0.27705000557E+03  0.00000000000E+00 0. -1.
<scales pt_clust_5="13000.00000" pt_clust_6="13000.00000" pt_clust_7="13000.00000" pt_clust_8="13000.00000" pt_clust_9="65.64450"></scales>
<clustering>
<clus scale="   65.645">  2  9  1 -1</clus>
<clus scale="   81.508">  5  6 -1 -1</clus>
<clus scale="   90.883">  7  8 -1 -1</clus>
<clus scale="  216.924">  2  5  1 -1</clus>
<clus scale="   65.645">  2  5  1 -1</clus>
</clustering>
</event>
<event>
 9    2  0.3745229E-005  0.9042969E+02  0.7546771E-02  0.1306937E+00
         -1   -1    0    0    0  501 -0.00000000000E+00  0.00000000000E+00  0.11080676115E+03  0.11080676115E+03  0.00000000000E+00 0.  1.
         21   -1    0    0  501  502  0.00000000000E+00 -0.00000000000E+00 -0.41182791339E+03  0.41182791339E+03  0.00000000000E+00 0.  1.
         24    2    1    2    0    0  0.97923634275E+01  0.70554101821E+01  0.54306153996E+02  0.98430865082E+02  0.81202263790E+02 0.  0.
         23    2    1    2    0    0  0.43836835420E+00 -0.58867157919E+02 -0.35563072097E+03  0.37139077000E+03  0.89399999395E+02 0.  0.
        -11    1    3    3    0    0 -0.12194184131E+02  0.36566781758E+02  0.81487077395E+01  0.39398338703E+02  0.00000000000E+00 0.  1.
         12    1    3    3    0    0  0.21986547558E+02 -0.29511371576E+02  0.46157446256E+02  0.59032526379E+02  0.00000000000E+00 0. -1.
        -13    1    4    4    0    0 -0.20807711930E+02 -0.28621639037E+01 -0.15700086690E+02  0.26222997160E+02  0.00000000000E+00 0. -1.
         13    1    4    4    0    0  0.21246080284E+02 -0.56004994015E+02 -0.33993063428E+03  0.34516777284E+03  0.00000000000E+00 0.  1.
         -2    1    1    2    0  502 -0.10230731782E+02  0.51811747737E+02  0.30341474660E+00  0.52813039459E+02  0.00000000000E+00 0.  1.
<scales pt_clust_5="13000.00000" pt_clust_6="13000.00000" pt_clust_7="13000.00000" pt_clust_8="13000.00000" pt_clust_9="52.81219"></scales>
<clustering>
<clus scale="   52.812">  2  9  1 -1</clus>
<clus scale="   81.202">  5  6 -1 -1</clus>
<clus scale="   82.335">  1  5  2 -1</clus>
<clus scale="   89.400">  7  8 -1 -1</clus>
<clus scale="   52.812">  2  5  1 -1</clus>
</clustering>
</event>
<event>
 9    2  0.3745229E-005  0.1905197E+03  0.7546771E-02  0.1159109E+00
          2   -1    0    0  502    0 -0.00000000000E+00  0.00000000000E+00  0.10186356300E+04  0.10186356300E+04  0.00000000000E+00 0. -1.
         21   -1    0    0  501  502  0.00000000000E+00 -0.00000000000E+00 -0.63708224137E+02  0.63708224137E+02  0.00000000000E+00 0. -1.
         23    2    1    2    0    0 -0.16869004106E+03 -0.67714376310E+00  0.42932039798E+03  0.47005660433E+03  0.90445666982E+02 0.  0.
         24    2    1    2    0    0  0.15650477721E+03 -0.93804202388E+02  0.24344940193E+03  0.31448174277E+03  0.79612697225E+02 0.  0.
        -13    1    4    4    0    0  0.64044447002E+02 -0.83747863190E+01  0.42366723860E+02  0.77244854381E+02  0.00000000000E+00 0.  1.
         14    1    4    4    0    0  0.92460330206E+02 -0.85429416069E+02  0.20108267807E+03  0.23723688838E+03  0.00000000000E+00 0. -1.
        -13    1    3    3    0    0 -0.91181340589E+02 -0.92276341594E+00  0.11741355000E+03  0.14866347933E+03  0.00000000000E+00 0. -1.
         13    1    3    3    0    0 -0.77508700468E+02  0.24561965284E+00  0.31190684798E+03  0.32139312499E+03  0.00000000000E+00 0.  1.
          1    1    1    2  501    0  0.12185263849E+02  0.94481346152E+02  0.28215760596E+03  0.29780550705E+03  0.00000000000E+00 0. -1.
<scales pt_clust_5="13000.00000" pt_clust_6="13000.00000" pt_clust_7="13000.00000" pt_clust_8="13000.00000" pt_clust_9="95.26392"></scales>
<clustering>
<clus scale="   79.613">  5  6 -1 -1</clus>
<clus scale="   90.446">  7  8 -1 -1</clus>
<clus scale="   95.264">  2  9  1 -1</clus>
<clus scale="  185.622">  2  5  1 -1</clus>
<clus scale="   95.264">  2  5  1 -1</clus>
</clustering>
</event>
<event>
 9    2  0.3745229E-005  0.1014279E+03  0.7546771E-02  0.1284093E+00
         21   -1    0    0  501  502  0.00000000000E+00  0.00000000000E+00  0.42994762638E+02  0.42994762638E+02  0.00000000000E+00 0.  1.
          2   -1    0    0  502    0 -0.00000000000E+00 -0.00000000000E+00 -0.50554436723E+03  0.50554436723E+03  0.00000000000E+00 0. -1.
         23    2    1    2    0    0 -0.41010844545E+02  0.48835279219E+01 -0.40183307321E+03  0.41488244599E+03  0.94614412478E+02 0.  0.
         24    2    1    2    0    0  0.14882226709E+02  0.97726421690E+01 -0.24798442216E+02  0.86884714483E+02  0.81344979364E+02 0.  0.
        -11    1    4    4    0    0  0.40052659153E+02 -0.17054876708E+02 -0.19426362029E+01  0.43575889666E+02  0.00000000000E+00 0.  1.
         12    1    4    4    0    0 -0.25170432444E+02  0.26827518877E+02 -0.22855806013E+02  0.43308824817E+02  0.00000000000E+00 0. -1.
        -11    1    3    3    0    0 -0.95532244547E+01  0.47163282760E+02 -0.14764491113E+03  0.15528895363E+03  0.00000000000E+00 0. -1.
         11    1    3    3    0    0 -0.31457620090E+02 -0.42279754838E+02 -0.25418816209E+03  0.25959349236E+03  0.00000000000E+00 0.  1.
          1    1    1    2  501    0  0.26128617836E+02 -0.14656170091E+02 -0.35918089157E+02  0.46771969388E+02  0.00000000000E+00 0. -1.
<scales pt_clust_5="13000.00000" pt_clust_6="13000.00000" pt_clust_7="13000.00000" pt_clust_8="13000.00000" pt_clust_9="29.95844"></scales>
<clustering>
<clus scale="   29.958">  1  9  2 -1</clus>
<clus scale="   81.345">  5  6 -1 -1</clus>
<clus scale="   89.178">  1  5  2 -1</clus>
<clus scale="   94.614">  7  8 -1 -1</clus>
<clus scale="   29.958">  1  5  2 -1</clus>
</clustering>
</event>
<event>
 9    2  0.3745229E-005  0.2165970E+03  0.7546771E-02  0.1150099E+00
         21   -1    0    0  501  502  0.00000000000E+00  0.00000000000E+00  0.95565802416E+02  0.95565802416E+02  0.00000000000E+00 0.  1.
          2   -1    0    0  502    0 -0.00000000000E+00 -0.00000000000E+00 -0.13863920118E+04  0.13863920118E+04  0.00000000000E+00 0. -1.
         24    2    1    2    0    0 -0.55649649672E+02  0.12179476622E+03 -0.36291144262E+03  0.39506693839E+03  0.80264076841E+02 0.  0.
         23    2    1    2    0    0  0.10814412642E+03  0.84395354751E+02 -0.84126491233E+03  0.85715573846E+03  0.90396787973E+02 0.  0.
        -11    1    3    3    0    0 -0.94336658202E+01  0.92834692795E+02 -0.16269717424E+03  0.18755704397E+03  0.00000000000E+00 0.  1.
         12    1    3    3    0    0 -0.46215983852E+02  0.28960073430E+02 -0.20021426839E+03  0.20750989442E+03  0.00000000000E+00 0. -1.
        -11    1    4    4    0    0  0.89771769623E+02  0.98454457087E+02 -0.78648712683E+03  0.79769308096E+03  0.00000000000E+00 0. -1.
         11    1    4    4    0    0  0.18372356796E+02 -0.14059102336E+02 -0.54777785492E+02  0.59462657493E+02  0.00000000000E+00 0.  1.
          1    1    1    2  501    0 -0.52494476748E+02 -0.20619012098E+03 -0.86649854458E+02  0.22973513740E+03  0.00000000000E+00 0. -1.
<scales pt_clust_5="13000.00000" pt_clust_6="13000.00000" pt_clust_7="13000.00000" pt_clust_8="13000.00000" pt_clust_9="196.83164"></scales>
<clustering>
<clus scale="   80.264">  5  6 -1 -1</clus>
<clus scale="   90.397">  7  8 -1 -1</clus>
<clus scale="  156.119">  2  5  1 -1</clus>
<clus scale="  196.832">  1  9  2 -1</clus>
<clus scale="  196.832">  1  5  2 -1</clus>
</clustering>
</event>
<event>
 9    2  0.3745229E-005  0.9861692E+02  0.7546771E-02  0.1292730E+00
         21   -1    0    0  501  502  0.00000000000E+00  0.00000000000E+00  0.12247846801E+03  0.12247846801E+03  0.00000000000E+00 0. -1.
         -1   -1    0    0    0  501 -0.00000000000E+00 -0.00000000000E+00 -0.25719708798E+03  0.25719708798E+03  0.00000000000E+00 0.  1.
         23    2    1    2    0    0 -0.40828571672E+02  0.80639004727E+01 -0.21680928486E+03  0.23874290510E+03  0.90884046889E+02 0.  0.
         24    2    1    2    0    0  0.22838611370E+02  0.19575914917E+01  0.25517630020E+02  0.80728188858E+02  0.73078428422E+02 0.  0.
        -11    1    4    4    0    0 -0.19996616383E+01 -0.30865166016E+02 -0.23519506211E+01  0.31019168132E+02  0.00000000000E+00 0.  1.
         12    1    4    4    0    0  0.24838273009E+02  0.32822757508E+02  0.27869580641E+02  0.49709020726E+02  0.00000000000E+00 0. -1.
        -11    1    3    3    0    0  0.70835352823E+01  0.39680152072E+02 -0.11508745043E+03  0.12194183936E+03  0.00000000000E+00 0.  1.
         11    1    3    3    0    0 -0.47912106954E+02 -0.31616251599E+02 -0.10172183443E+03  0.11680106574E+03  0.00000000000E+00 0. -1.
         -2    1    1    2    0  502  0.17989960301E+02 -0.10021491964E+02  0.56573034881E+02  0.60204462031E+02  0.00000000000E+00 0.  1.
<scales pt_clust_5="13000.00000" pt_clust_6="13000.00000" pt_clust_7="13000.00000" pt_clust_8="13000.00000" pt_clust_9="20.59294"></scales>
<clustering>
<clus scale="   20.593">  1  9  2 -1</clus>
<clus scale="   73.078">  5  6 -1 -1</clus>
<clus scale="   82.498">  1  5  2 -1</clus>
<clus scale="   90.884">  7  8 -1 -1</clus>
<clus scale="   20.593">  1  5  2 -1</clus>
</clustering>
</event>
<event>
 9    2  0.3745229E-005  0.8887845E+02  0.7546771E-02  0.1305702E+00
         -1   -1    0    0    0  501 -0.00000000000E+00  0.00000000000E+00  0.75397060157E+02  0.75397060157E+02  0.00000000000E+00 0.  1.
         21   -1    0    0  501  502  0.00000000000E+00 -0.00000000000E+00 -0.35409672276E+03  0.35409672276E+03  0.00000000000E+00 0.  1.
         24    2    1    2    0    0  0.11075435450E+02  0.32492389033E+02 -0.34057340995E+01  0.88087058080E+02  0.81051281057E+02 0.  0.
         23    2    1    2    0    0 -0.62129885072E+02 -0.25965024440E+02 -0.26986308619E+03  0.28965097769E+03  0.80853561901E+02 0.  0.
        -13    1    3    3    0    0  0.24131147972E+02  0.55024661039E+02  0.60381284661E+01  0.60386129370E+02  0.00000000000E+00 0.  1.
         14    1    3    3    0    0 -0.13055712522E+02 -0.22532272007E+02 -0.94438625656E+01  0.27700928710E+02  0.00000000000E+00 0. -1.
        -13    1    4    4    0    0 -0.65818067174E+02  0.11857159142E+02 -0.16061232966E+03  0.17397968453E+03  0.00000000000E+00 0.  1.
         13    1    4    4    0    0  0.36881821023E+01 -0.37822183582E+02 -0.10925075653E+03  0.11567129316E+03  0.00000000000E+00 0. -1.
         -2    1    1    2    0  502  0.51054449622E+02 -0.65273645932E+01 -0.54308423086E+01  0.51755747149E+02  0.00000000000E+00 0.  1.
<scales pt_clust_5="13000.00000" pt_clust_6="13000.00000" pt_clust_7="13000.00000" pt_clust_8="13000.00000" pt_clust_9="51.47005"></scales>
<clustering>
<clus scale="   51.470">  2  9  1 -1</clus>
<clus scale="   80.854">  7  8 -1 -1</clus>
<clus scale="   81.051">  5  6 -1 -1</clus>
<clus scale="   88.698">  2  7  1 -1</clus>
<clus scale="   51.470">  2  5  1 -1</clus>
</clustering>
</event>
<event>
 9    2  0.3745229E-005  0.3491593E+03  0.7546771E-02  0.1063268E+00
          2   -1    0    0  502    0 -0.00000000000E+00  0.00000000000E+00  0.28454368535E+03  0.28454368535E+03  0.00000000000E+00 0. -1.
         21   -1    0    0  501  502  0.00000000000E+00 -0.00000000000E+00 -0.70129464174E+03  0.70129464174E+03  0.00000000000E+00 0.  1.
         24    2    1    2    0    0  0.33819729082E+03 -0.70704167884E+02  0.64464021712E+02  0.36046530357E+03  0.80019610771E+02 0.  0.
         23    2    1    2    0    0 -0.30730765831E+03  0.66856398377E+02 -0.30910787125E+03  0.45047353538E+03  0.92037791961E+02 0.  0.
        -13    1    3    3    0    0  0.20188605023E+03 -0.53980883222E+01  0.20180421905E+02  0.20296395262E+03  0.00000000000E+00 0.  1.
         14    1    3    3    0    0  0.13631124059E+03 -0.65306079562E+02  0.44283599806E+02  0.15750135095E+03  0.00000000000E+00 0. -1.
        -11    1    4    4    0    0 -0.17577436955E+03  0.71294169602E+02 -0.13782621527E+03  0.23446866150E+03  0.00000000000E+00 0. -1.
         11    1    4    4    0    0 -0.13153328877E+03 -0.44377712249E+01 -0.17128165597E+03  0.21600487388E+03  0.00000000000E+00 0.  1.
          1    1    1    2  501    0 -0.30889632502E+02  0.38477695065E+01 -0.17210710685E+03  0.17489948815E+03  0.00000000000E+00 0. -1.
<scales pt_clust_5="13000.00000" pt_clust_6="13000.00000" pt_clust_7="13000.00000" pt_clust_8="13000.00000" pt_clust_9="31.12836"></scales>
<clustering>
<clus scale="   31.128">  2  9  1 -1</clus>
<clus scale="   80.020">  5  6 -1 -1</clus>
<clus scale="   92.038">  7  8 -1 -1</clus>
<clus scale="  346.185">  1  5  2 -1</clus>
<clus scale="   31.128">  2  5  1 -1</clus>
</clustering>
</event>
<event>
 9    2  0.3745229E-005  0.1303403E+03  0.7546771E-02  0.1230838E+00
         21   -1    0    0  501  502  0.00000000000E+00  0.00000000000E+00  0.74697155030E+02  0.74697155030E+02  0.00000000000E+00 0. -1.
          2   -1    0    0  502    0 -0.00000000000E+00 -0.00000000000E+00 -0.53869883099E+03  0.53869883099E+03  0.00000000000E+00 0. -1.
         23    2    1    2    0    0 -0.79504545236E+02  0.32565251418E+02 -0.15687576777E+03  0.20224261079E+03  0.94395968106E+02 0.  0.
         24    2    1    2    0    0  0.10634651692E+03  0.72947665876E+02 -0.11519658083E+03  0.19049451214E+03  0.79918479100E+02 0.  0.
        -13    1    4    4    0    0  0.38304512364E+02 -0.12583139104E+02 -0.17696055634E+02  0.44030914619E+02  0.00000000000E+00 0.  1.
         14    1    4    4    0    0  0.68042004554E+02  0.85530804980E+02 -0.97500525197E+02  0.14646359752E+03  0.00000000000E+00 0. -1.
        -11    1    3    3    0    0 -0.47282405477E+02  0.33994895145E+02 -0.15958191656E+03  0.16987544513E+03  0.00000000000E+00 0.  1.
         11    1    3    3    0    0 -0.32222139758E+02 -0.14296437271E+01  0.27061487965E+01  0.32367165664E+02  0.00000000000E+00 0. -1.
          1    1    1    2  501    0 -0.26841971682E+02 -0.10551291729E+03 -0.19192932736E+03  0.22065886309E+03  0.00000000000E+00 0. -1.
<scales pt_clust_5="13000.00000" pt_clust_6="13000.00000" pt_clust_7="13000.00000" pt_clust_8="13000.00000" pt_clust_9="108.87368"></scales>
<clustering>
<clus scale="   79.918">  5  6 -1 -1</clus>
<clus scale="   94.396">  7  8 -1 -1</clus>
<clus scale="  108.874">  1  9  2 -1</clus>
<clus scale="  120.270">  1  5  2 -1</clus>
<clus scale="  108.874">  1  5  2 -1</clus>
</clustering>
</event>
<event>
 9    2  0.3745229E-005  0.9187499E+02  0.7546771E-02  0.1309848E+00
         -3   -1    0    0    0  501 -0.00000000000E+00  0.00000000000E+00  0.10044082372E+03  0.10044082372E+03  0.00000000000E+00 0.  1.
         21   -1    0    0  501  502  0.00000000000E+00 -0.00000000000E+00 -0.18280913285E+03  0.18280913285E+03  0.00000000000E+00 0.  1.
         23    2    1    2    0    0  0.10295847208E+02  0.12572665956E+02  0.47926647494E+02  0.10423683743E+03  0.91127813194E+02 0.  0.
         24    2    1    2    0    0 -0.14100808554E+02  0.23084455159E+02 -0.55349709248E+02  0.95930641313E+02  0.73534840430E+02 0.  0.
        -11    1    4    4    0    0 -0.17338086403E+02  0.48651786561E+02 -0.29743823565E+02  0.59601179653E+02  0.00000000000E+00 0.  1.
         12    1    4    4    0    0  0.32372778488E+01 -0.25567331402E+02 -0.25605885683E+02  0.36329461660E+02  0.00000000000E+00 0. -1.
        -13    1    3    3    0    0 -0.22219735218E+02 -0.25091878313E+02 -0.22245055095E+01  0.33589692097E+02  0.00000000000E+00 0. -1.
         13    1    3    3    0    0  0.32515582425E+02  0.37664544269E+02  0.50151153003E+02  0.70647145328E+02  0.00000000000E+00 0.  1.
         -4    1    1    2    0  502  0.38049613466E+01 -0.35657121115E+02 -0.74945247383E+02  0.83082477830E+02  0.00000000000E+00 0.  1.
<scales pt_clust_5="13000.00000" pt_clust_6="13000.00000" pt_clust_7="13000.00000" pt_clust_8="13000.00000" pt_clust_9="35.85956"></scales>
<clustering>
<clus scale="   35.860">  2  9  1 -1</clus>
<clus scale="   73.535">  5  6 -1 -1</clus>
<clus scale="   74.459">  2  5  1 -1</clus>
<clus scale="   91.128">  7  8 -1 -1</clus>
<clus scale="   35.860">  2  5  1 -1</clus>
</clustering>
</event>
<event>
 9    2  0.3745229E-005  0.1047619E+03  0.7546771E-02  0.1274438E+00
         -3   -1    0    0    0  501 -0.00000000000E+00  0.00000000000E+00  0.24842451905E+03  0.24842451905E+03  0.00000000000E+00 0.  1.
         21   -1    0    0  501  502  0.00000000000E+00 -0.00000000000E+00 -0.13859462444E+03  0.13859462444E+03  0.00000000000E+00 0. -1.
         24    2    1    2    0    0  0.37302960815E+02 -0.33468705260E+02  0.18395049457E+03  0.20740774818E+03  0.81661033754E+02 0.  0.
         23    2    1    2    0    0 -0.72050697423E+02  0.23265937117E+02 -0.28473330123E+02  0.12134326577E+03  0.90448055752E+02 0.  0.
        -11    1    3    3    0    0  0.26093157004E+02 -0.58380768445E+02  0.96291837453E+02  0.11559102442E+03  0.00000000000E+00 0.  1.
         12    1    3    3    0    0  0.11209803811E+02  0.24912063185E+02  0.87658657119E+02  0.91816723757E+02  0.00000000000E+00 0. -1.
        -13    1    4    4    0    0  0.11240718082E+02  0.31256126604E+02 -0.15556382647E+02  0.36678334673E+02  0.00000000000E+00 0.  1.
         13    1    4    4    0    0 -0.83291415505E+02 -0.79901894870E+01 -0.12916947477E+02  0.84664931093E+02  0.00000000000E+00 0. -1.
         -4    1    1    2    0  502  0.34747736608E+02  0.10202768143E+02 -0.45647269834E+02  0.58268129543E+02  0.00000000000E+00 0.  1.
<scales pt_clust_5="13000.00000" pt_clust_6="13000.00000" pt_clust_7="13000.00000" pt_clust_8="13000.00000" pt_clust_9="36.21466"></scales>
<clustering>
<clus scale="   36.215">  2  9  1 -1</clus>
<clus scale="   81.661">  5  6 -1 -1</clus>
<clus scale="   90.448">  7  8 -1 -1</clus>
<clus scale="   97.277">  1  5  2 -1</clus>
<clus scale="   36.215">  2  5  1 -1</clus>
</clustering>
</event>
<event>
 9    2  0.3745229E-005  0.1345824E+03  0.7546771E-02  0.1244462E+00
          4   -1    0    0  502    0 -0.00000000000E+00  0.00000000000E+00  0.58113211573E+03  0.58113211573E+03  0.00000000000E+00 0. -1.
         21   -1    0    0  501  502  0.00000000000E+00 -0.00000000000E+00 -0.71493134241E+02  0.71493134241E+02  0.00000000000E+00 0. -1.
         24    2    1    2    0    0 -0.10782318704E+02 -0.31370068785E+02  0.15678188068E+03  0.17728255684E+03  0.75816932379E+02 0.  0.
         23    2    1    2    0    0  0.94823354634E+02  0.74249675711E+02  0.34919344278E+03  0.38092352771E+03  0.93070889934E+02 0.  0.
        -11    1    3    3    0    0 -0.94467750464E+01 -0.50794621817E+02  0.62879459384E+02  0.81382808853E+02  0.00000000000E+00 0.  1.
         12    1    3    3    0    0 -0.13355436576E+01  0.19424553032E+02  0.93902421301E+02  0.95899747984E+02  0.00000000000E+00 0. -1.
        -11    1    4    4    0    0  0.21882429085E+02 -0.17278050660E+02  0.12441516582E+03  0.12750100087E+03  0.00000000000E+00 0.  1.
         11    1    4    4    0    0  0.72940925548E+02  0.91527726371E+02  0.22477827696E+03  0.25342252684E+03  0.00000000000E+00 0. -1.
          3    1    1    2  501    0 -0.84041035930E+02 -0.42879606926E+02  0.36636580269E+01  0.94419165429E+02  0.00000000000E+00 0. -1.
<scales pt_clust_5="13000.00000" pt_clust_6="13000.00000" pt_clust_7="13000.00000" pt_clust_8="13000.00000" pt_clust_9="97.21227"></scales>
<clustering>
<clus scale="   75.817">  5  6 -1 -1</clus>
<clus scale="   82.756">  1  5  2 -1</clus>
<clus scale="   93.071">  7  8 -1 -1</clus>
<clus scale="   97.212">  2  9  1 -1</clus>
<clus scale="   97.212">  2  5  1 -1</clus>
</clustering>
</event>
<event>
 9    2  0.3745229E-005  0.9816615E+02  0.7546771E-02  0.1288682E+00
          2   -1    0    0  502    0 -0.00000000000E+00  0.00000000000E+00  0.33433184162E+03  0.33433184162E+03  0.00000000000E+00 0. -1.
         21   -1    0    0  501  502  0.00000000000E+00 -0.00000000000E+00 -0.83400967930E+02  0.83400967930E+02  0.00000000000E+00 0.  1.
         24    2    1    2    0    0 -0.18841790194E+02 -0.33518688980E+02  0.27194066668E+03  0.28621770521E+03  0.80562603077E+02 0.  0.
         23    2    1    2    0    0  0.33818855251E+02  0.47240524411E+02 -0.69735081874E+01  0.10682464998E+03  0.89372780590E+02 0.  0.
        -13    1    3    3    0    0  0.15532579796E+02 -0.41850293978E+02  0.21174990784E+03  0.21640409333E+03  0.00000000000E+00 0.  1.
         14    1    3    3    0    0 -0.34374369990E+02  0.83316049971E+01  0.60190758839E+02  0.69813611879E+02  0.00000000000E+00 0. -1.
        -11    1    4    4    0    0  0.42571639194E+02 -0.98687583369E+01  0.13163158666E+02  0.45639956188E+02  0.00000000000E+00 0.  1.
         11    1    4    4    0    0 -0.87527839431E+01  0.57109282748E+02 -0.20136666854E+02  0.61184693795E+02  0.00000000000E+00 0. -1.
          1    1    1    2  501    0 -0.14977065057E+02 -0.13721835431E+02 -0.14036284800E+02  0.24690454356E+02  0.00000000000E+00 0. -1.
<scales pt_clust_5="13000.00000" pt_clust_6="13000.00000" pt_clust_7="13000.00000" pt_clust_8="13000.00000" pt_clust_9="20.31259"></scales>
<clustering>
<clus scale="   20.313">  2  9  1 -1</clus>
<clus scale="   80.563">  5  6 -1 -1</clus>
<clus scale="   89.373">  7  8 -1 -1</clus>
<clus scale="   90.219">  1  5  2 -1</clus>
<clus scale="   20.313">  2  5  1 -1</clus>
</clustering>
</event>
<event>
 9    2  0.3745229E-005  0.2742607E+03  0.7546771E-02  0.1126341E+00
         21   -1    0    0  501  502  0.00000000000E+00  0.00000000000E+00  0.75816509466E+02  0.75816509466E+02  0.00000000000E+00 0. -1.
          2   -1    0    0  502    0 -0.00000000000E+00 -0.00000000000E+00 -0.16355855258E+04  0.16355855258E+04  0.00000000000E+00 0. -1.
         23    2    1    2    0    0 -0.98033636171E+02  0.28090457135E+02 -0.51215637885E+03  0.53007410807E+03  0.90965576200E+02 0.  0.
         24    2    1    2    0    0  0.22736720382E+01  0.24358035920E+03 -0.53202618839E+03  0.59073128847E+03  0.81086553021E+02 0.  0.
        -11    1    4    4    0    0 -0.13750191723E+02  0.15580669954E+03 -0.41552328800E+03  0.44398693479E+03  0.00000000000E+00 0.  1.
         12    1    4    4    0    0  0.16023863761E+02  0.87773659657E+02 -0.11650290039E+03  0.14674435368E+03  0.00000000000E+00 0. -1.
        -11    1    3    3    0    0 -0.49240269410E+02 -0.32349018885E+02 -0.21305846925E+03  0.22105423424E+03  0.00000000000E+00 0.  1.
         11    1    3    3    0    0 -0.48793366761E+02  0.60439476020E+02 -0.29909790960E+03  0.30901987384E+03  0.00000000000E+00 0. -1.
          1    1    1    2  501    0  0.95759964133E+02 -0.27167081633E+03 -0.51558644914E+03  0.59059663876E+03  0.00000000000E+00 0. -1.
<scales pt_clust_5="13000.00000" pt_clust_6="13000.00000" pt_clust_7="13000.00000" pt_clust_8="13000.00000" pt_clust_9="261.99993"></scales>
<clustering>
<clus scale="   81.087">  5  6 -1 -1</clus>
<clus scale="   90.966">  7  8 -1 -1</clus>
<clus scale="  136.654">  2  7  1 -1</clus>
<clus scale="  262.000">  1  9  2 -1</clus>
<clus scale="  262.000">  1  5  2 -1</clus>
</clustering>
</event>
<event>
 9    2  0.3745229E-005  0.1509075E+03  0.7546771E-02  0.1201494E+00
          2   -1    0    0  502    0 -0.00000000000E+00  0.00000000000E+00  0.32169142288E+03  0.32169142288E+03  0.00000000000E+00 0. -1.
         21   -1    0    0  501  502  0.00000000000E+00 -0.00000000000E+00 -0.14004116165E+03  0.14004116165E+03  0.00000000000E+00 0.  1.
         23    2    1    2    0    0  0.70985016632E+02  0.89324862704E+02  0.14203891081E+03  0.20406213001E+03  0.91915706151E+02 0.  0.
         24    2    1    2    0    0 -0.24348628873E+02 -0.14677738912E+03 -0.87672061640E+01  0.16926100823E+03  0.80224480795E+02 0.  0.
        -11    1    4    4    0    0  0.13001743369E+02 -0.38097000930E+02 -0.32716121130E+02  0.51872645896E+02  0.00000000000E+00 0.  1.
         12    1    4    4    0    0 -0.37350372243E+02 -0.10868038819E+03  0.23948914966E+02  0.11738836234E+03  0.00000000000E+00 0. -1.
        -13    1    3    3    0    0  0.55657205719E+02  0.40797510223E+02  0.20016509529E+02  0.71852780340E+02  0.00000000000E+00 0.  1.
         13    1    3    3    0    0  0.15327810913E+02  0.48527352480E+02  0.12202240128E+03  0.13220934967E+03  0.00000000000E+00 0. -1.
          1    1    1    2  501    0 -0.46636387759E+02  0.57452526416E+02  0.48378556586E+02  0.88409446283E+02  0.00000000000E+00 0. -1.
<scales pt_clust_5="13000.00000" pt_clust_6="13000.00000" pt_clust_7="13000.00000" pt_clust_8="13000.00000" pt_clust_9="73.99832"></scales>
<clustering>
<clus scale="   73.998">  2  9  1 -1</clus>
<clus scale="   80.224">  5  6 -1 -1</clus>
<clus scale="   91.916">  7  8 -1 -1</clus>
<clus scale="  144.085">  2  5  1 -1</clus>
<clus scale="   73.998">  2  5  1 -1</clus>
</clustering>
</event>
<event>
 9    2  0.3745229E-005  0.1096101E+03  0.7546771E-02  0.1268390E+00
          2   -1    0    0  502    0 -0.00000000000E+00  0.00000000000E+00  0.15631858556E+03  0.15631858556E+03  0.00000000000E+00 0. -1.
         21   -1    0    0  501  502  0.00000000000E+00 -0.00000000000E+00 -0.14642514888E+03  0.14642514888E+03  0.00000000000E+00 0.  1.
         23    2    1    2    0    0  0.55508605557E+02 -0.47823886912E+01  0.67305710127E+02  0.12961747138E+03  0.95742121029E+02 0.  0.
         24    2    1    2    0    0 -0.34562406837E+02  0.57589185510E+02 -0.51913400869E+02  0.11605141193E+03  0.79131882114E+02 0.  0.
        -13    1    4    4    0    0 -0.98147111223E+01  0.31515370717E+02 -0.68819437639E+02  0.76326025331E+02  0.00000000000E+00 0.  1.
         14    1    4    4    0    0 -0.24747695715E+02  0.26073814793E+02  0.16906036771E+02  0.39725386598E+02  0.00000000000E+00 0. -1.
        -13    1    3    3    0    0  0.79182791928E+01  0.21883372186E+02 -0.17266437334E+02  0.28977767026E+02  0.00000000000E+00 0.  1.
         13    1    3    3    0    0  0.47590326364E+02 -0.26665760877E+02  0.84572147461E+02  0.10063970436E+03  0.00000000000E+00 0. -1.
          1    1    1    2  501    0 -0.20946198720E+02 -0.52806796819E+02 -0.54988725820E+01  0.57074851124E+02  0.00000000000E+00 0. -1.
<scales pt_clust_5="13000.00000" pt_clust_6="13000.00000" pt_clust_7="13000.00000" pt_clust_8="13000.00000" pt_clust_9="56.80934"></scales>
<clustering>
<clus scale="   56.809">  2  9  1 -1</clus>
<clus scale="   79.132">  5  6 -1 -1</clus>
<clus scale="   95.445">  2  5  1 -1</clus>
<clus scale="   95.742">  7  8 -1 -1</clus>
<clus scale="   56.809">  2  5  1 -1</clus>
</clustering>
</event>
<event>
 9    2  0.3745229E-005  0.2003323E+03  0.7546771E-02  0.1178617E+00
         21   -1    0    0  501  502  0.00000000000E+00  0.00000000000E+00  0.48340207276E+03  0.48340207276E+03  0.00000000000E+00 0. -1.
          2   -1    0    0  502    0 -0.00000000000E+00 -0.00000000000E+00 -0.23290164759E+03  0.23290164759E+03  0.00000000000E+00 0. -1.
         23    2    1    2    0    0  0.39612532707E+02 -0.19086082221E+02 -0.13300014308E+03  0.16766892286E+03  0.92143357604E+02 0.  0.
         24    2    1    2    0    0  0.14370411170E+03  0.96552813922E+02  0.21844936140E+03  0.29008501984E+03  0.80348476285E+02 0.  0.
        -13    1    4    4    0    0  0.49173070158E+02 -0.38796792533E+01  0.84370116613E+02  0.97731056053E+02  0.00000000000E+00 0.  1.
         14    1    4    4    0    0  0.94531041542E+02  0.10043249318E+03  0.13407924479E+03  0.19235396378E+03  0.00000000000E+00 0. -1.
        -11    1    3    3    0    0 -0.82319945330E+01 -0.44459641530E+02 -0.41664643034E+02  0.61484696780E+02  0.00000000000E+00 0.  1.
         11    1    3    3    0    0  0.47844527240E+02  0.25373559309E+02 -0.91335500049E+02  0.10618422608E+03  0.00000000000E+00 0. -1.
          1    1    1    2  501    0 -0.18331664441E+03 -0.77466731702E+02  0.16505120685E+03  0.25854977765E+03  0.00000000000E+00 0. -1.
<scales pt_clust_5="13000.00000" pt_clust_6="13000.00000" pt_clust_7="13000.00000" pt_clust_8="13000.00000" pt_clust_9="183.51345"></scales>
<clustering>
<clus scale="   80.348">  5  6 -1 -1</clus>
<clus scale="   92.143">  7  8 -1 -1</clus>
<clus scale="  102.097">  2  7  1 -1</clus>
<clus scale="  183.513">  1  9  2 -1</clus>
<clus scale="  183.513">  1  5  2 -1</clus>
</clustering>
</event>
<event>
 9    2  0.3745229E-005  0.1979292E+03  0.7546771E-02  0.1152853E+00
         21   -1    0    0  501  502  0.00000000000E+00  0.00000000000E+00  0.61148212318E+03  0.61148212318E+03  0.00000000000E+00 0.  1.
         -3   -1    0    0    0  501 -0.00000000000E+00 -0.00000000000E+00 -0.34186955192E+03  0.34186955192E+03  0.00000000000E+00 0.  1.
         23    2    1    2    0    0 -0.10031430661E+03  0.12228715910E+03 -0.16567902349E+03  0.24777676746E+03  0.94481100120E+02 0.  0.
         24    2    1    2    0    0  0.32264986055E+02 -0.26074602458E+03  0.35575203847E+02  0.27711865477E+03  0.80620314028E+02 0.  0.
        -11    1    4    4    0    0  0.41171180799E+02 -0.26004598988E+03  0.41305131596E+02  0.26650534118E+03  0.00000000000E+00 0.  1.
         12    1    4    4    0    0 -0.89061947433E+01 -0.70003470055E+00 -0.57299277495E+01  0.10613313592E+02  0.00000000000E+00 0. -1.
        -11    1    3    3    0    0 -0.84698476660E+02  0.88254864694E+02 -0.61174178533E+02  0.13676634531E+03  0.00000000000E+00 0. -1.
         11    1    3    3    0    0 -0.15615829951E+02  0.34032294405E+02 -0.10450484496E+03  0.11101042215E+03  0.00000000000E+00 0.  1.
         -4    1    1    2    0  502  0.68049320556E+02  0.13845886548E+03  0.39971639090E+03  0.42845625286E+03  0.00000000000E+00 0.  1.
<scales pt_clust_5="13000.00000" pt_clust_6="13000.00000" pt_clust_7="13000.00000" pt_clust_8="13000.00000" pt_clust_9="154.27757"></scales>
<clustering>
<clus scale="   80.620">  5  6 -1 -1</clus>
<clus scale="   94.481">  7  8 -1 -1</clus>
<clus scale="  154.278">  1  9  2 -1</clus>
<clus scale="  191.700">  1  5  2 -1</clus>
<clus scale="  154.278">  1  5  2 -1</clus>
</clustering>
</event>
<event>
 9    2  0.3745229E-005  0.1092360E+03  0.7546771E-02  0.1266793E+00
         21   -1    0    0  501  502  0.00000000000E+00  0.00000000000E+00  0.58272258541E+02  0.58272258541E+02  0.00000000000E+00 0. -1.
          2   -1    0    0  502    0 -0.00000000000E+00 -0.00000000000E+00 -0.33697149619E+03  0.33697149619E+03  0.00000000000E+00 0. -1.
         23    2    1    2    0    0 -0.54441146003E+01 -0.68001043469E+02 -0.23228364351E+03  0.25892108618E+03  0.91818612124E+02 0.  0.
         24    2    1    2    0    0  0.15686051551E+02  0.33046418771E+02 -0.17098713593E+02  0.89565823646E+02  0.79947187268E+02 0.  0.
        -13    1    4    4    0    0  0.21502583223E+02  0.34657226776E+02 -0.45166557034E+02  0.60856407447E+02  0.00000000000E+00 0.  1.
         14    1    4    4    0    0 -0.58165316719E+01 -0.16108080053E+01  0.28067843440E+02  0.28709416199E+02  0.00000000000E+00 0. -1.
        -11    1    3    3    0    0  0.32460377241E+02 -0.60302264488E+02 -0.10077656816E+03  0.12184398173E+03  0.00000000000E+00 0. -1.
         11    1    3    3    0    0 -0.37904491841E+02 -0.76987789815E+01 -0.13150707535E+03  0.13707710446E+03  0.00000000000E+00 0.  1.
          1    1    1    2  501    0 -0.10241936950E+02  0.34954624698E+02 -0.29316880552E+02  0.46756844907E+02  0.00000000000E+00 0. -1.
<scales pt_clust_5="13000.00000" pt_clust_6="13000.00000" pt_clust_7="13000.00000" pt_clust_8="13000.00000" pt_clust_9="36.42421"></scales>
<clustering>
<clus scale="   36.424">  1  9  2 -1</clus>
<clus scale="   79.947">  5  6 -1 -1</clus>
<clus scale="   91.819">  7  8 -1 -1</clus>
<clus scale="   99.466">  1  5  2 -1</clus>
<clus scale="   36.424">  1  5  2 -1</clus>
</clustering>
</event>
<event>
 9    2  0.3745229E-005  0.8416585E+02  0.7546771E-02  0.1321807E+00
          2   -1    0    0  502    0 -0.00000000000E+00  0.00000000000E+00  0.30671735281E+03  0.30671735281E+03  0.00000000000E+00 0. -1.
         21   -1    0    0  501  502  0.00000000000E+00 -0.00000000000E+00 -0.36442136977E+02  0.36442136977E+02  0.00000000000E+00 0.  1.
         24    2    1    2    0    0 -0.97840446217E+01  0.15771795153E+02  0.10387615847E+03  0.13336331234E+03  0.81553906892E+02 0.  0.
         23    2    1    2    0    0 -0.31394463881E+02 -0.21158418586E+02  0.93291671233E+02  0.12571660096E+03  0.75286365274E+02 0.  0.
        -13    1    3    3    0    0  0.33555314400E+02  0.16191013269E+02  0.30528743024E+02  0.48167542867E+02  0.00000000000E+00 0.  1.
         14    1    3    3    0    0 -0.43339359022E+02 -0.41921811627E+00  0.73347415443E+02  0.85195769475E+02  0.00000000000E+00 0. -1.
        -13    1    4    4    0    0 -0.44077002719E+01  0.25013633364E+02  0.52951684118E+02  0.58728106786E+02  0.00000000000E+00 0. -1.
         13    1    4    4    0    0 -0.26986763609E+02 -0.46172051950E+02  0.40339987115E+02  0.66988494174E+02  0.00000000000E+00 0.  1.
          1    1    1    2  501    0  0.41178508502E+02  0.53866234336E+01  0.73107386129E+02  0.84079576480E+02  0.00000000000E+00 0. -1.
<scales pt_clust_5="13000.00000" pt_clust_6="13000.00000" pt_clust_7="13000.00000" pt_clust_8="13000.00000" pt_clust_9="41.52935"></scales>
<clustering>
<clus scale="   41.529">  2  9  1 -1</clus>
<clus scale="   75.286">  7  8 -1 -1</clus>
<clus scale="   78.108">  2  7  1 -1</clus>
<clus scale="   81.554">  5  6 -1 -1</clus>
<clus scale="   41.529">  2  5  1 -1</clus>
</clustering>
</event>
<event>
 9    2  0.3745229E-005  0.2187344E+03  0.7546771E-02  0.1134830E+00
         21   -1    0    0  501  502  0.00000000000E+00  0.00000000000E+00  0.11195709231E+03  0.11195709231E+03  0.00000000000E+00 0. -1.
          4   -1    0    0  502    0 -0.00000000000E+00 -0.00000000000E+00 -0.34507207138E+03  0.34507207138E+03  0.00000000000E+00 0. -1.
         24    2    1    2    0    0  0.59721144933E+02  0.44083687488E+02  0.19807567603E+02  0.11029450952E+03  0.79136290294E+02 0.  0.
         23    2    1    2    0    0  0.42255507409E+02  0.65550202363E+01 -0.45271312686E+02  0.10991710558E+03  0.90574732406E+02 0.  0.
        -11    1    3    3    0    0  0.59550200458E+02  0.71054487565E+00  0.28557224666E+02  0.66047303724E+02  0.00000000000E+00 0.  1.
         12    1    3    3    0    0  0.17094447491E+00  0.43373142613E+02 -0.87496570628E+01  0.44247205797E+02  0.00000000000E+00 0. -1.
        -13    1    4    4    0    0 -0.28227386206E+02 -0.42043393929E+01 -0.90146096817E+01  0.29928665013E+02  0.00000000000E+00 0.  1.
         13    1    4    4    0    0  0.70482893615E+02  0.10759359629E+02 -0.36256703004E+02  0.79988440569E+02  0.00000000000E+00 0. -1.
          3    1    1    2  501    0 -0.10197665234E+03 -0.50638707725E+02 -0.20765123398E+03  0.23681754858E+03  0.00000000000E+00 0. -1.
<scales pt_clust_5="13000.00000" pt_clust_6="13000.00000" pt_clust_7="13000.00000" pt_clust_8="13000.00000" pt_clust_9="113.85750"></scales>
<clustering>
<clus scale="   79.136">  5  6 -1 -1</clus>
<clus scale="   90.575">  7  8 -1 -1</clus>
<clus scale="   98.045">  5  7 -1 -1</clus>
<clus scale="  113.857">  1  9  2 -1</clus>
<clus scale="  113.857">  1  5  2 -1</clus>
</clustering>
</event>
<event>
 9    2  0.3745229E-005  0.1083366E+03  0.7546771E-02  0.1267793E+00
         -1   -1    0    0    0  501 -0.00000000000E+00  0.00000000000E+00  0.16213925517E+03  0.16213925517E+03  0.00000000000E+00 0.  1.
         21   -1    0    0  501  502  0.00000000000E+00 -0.00000000000E+00 -0.13100213403E+03  0.13100213403E+03  0.00000000000E+00 0.  1.
         23    2    1    2    0    0  0.34482251433E+02 -0.40327241819E+02  0.56444742204E+02  0.11895917388E+03  0.90277151214E+02 0.  0.
         24    2    1    2    0    0 -0.83380595367E+02  0.21428976512E+02 -0.30592086844E+02  0.12149333556E+03  0.80082645375E+02 0.  0.
        -11    1    4    4    0    0 -0.97089949008E+02  0.65000456795E+01 -0.25004170853E+02  0.10046848935E+03  0.00000000000E+00 0.  1.
         12    1    4    4    0    0  0.13709353642E+02  0.14928930832E+02 -0.55879159915E+01  0.21024846211E+02  0.00000000000E+00 0. -1.
        -13    1    3    3    0    0  0.19567680403E+02 -0.60367813171E+02  0.66599527692E+02  0.91992739237E+02  0.00000000000E+00 0.  1.
         13    1    3    3    0    0  0.14914571030E+02  0.20040571352E+02 -0.10154785488E+02  0.26966434644E+02  0.00000000000E+00 0. -1.
         -2    1    1    2    0  502  0.48898343934E+02  0.18898265307E+02  0.52844657780E+01  0.52688879754E+02  0.00000000000E+00 0.  1.
<scales pt_clust_5="13000.00000" pt_clust_6="13000.00000" pt_clust_7="13000.00000" pt_clust_8="13000.00000" pt_clust_9="52.42321"></scales>
<clustering>
<clus scale="   52.423">  2  9  1 -1</clus>
<clus scale="   80.083">  5  6 -1 -1</clus>
<clus scale="   90.277">  7  8 -1 -1</clus>
<clus scale="  100.000">  2  5  1 -1</clus>
<clus scale="   52.423">  2  5  1 -1</clus>
</clustering>
</event>
<event>
 9    2  0.3745229E-005  0.1472784E+03  0.7546771E-02  0.1222878E+00
         21   -1    0    0  501  502  0.00000000000E+00  0.00000000000E+00  0.47658363167E+02  0.47658363167E+02  0.00000000000E+00 0. -1.
          2   -1    0    0  502    0 -0.00000000000E+00 -0.00000000000E+00 -0.15453033950E+04  0.15453033950E+04  0.00000000000E+00 0. -1.
         23    2    1    2    0    0 -0.18404270631E+02 -0.28079252048E+02 -0.22191415114E+03  0.24272837419E+03  0.92433822742E+02 0.  0.
         24    2    1    2    0    0  0.34855595118E+02 -0.98565365177E+02 -0.11884705342E+04  0.11955599434E+04  0.77274341878E+02 0.  0.
        -11    1    4    4    0    0 -0.10572075693E+02 -0.51476616732E+02 -0.29095837541E+03  0.29566600595E+03  0.00000000000E+00 0.  1.
         12    1    4    4    0    0  0.45427670811E+02 -0.47088748445E+02 -0.89751215879E+03  0.89989393747E+03  0.00000000000E+00 0. -1.
        -13    1    3    3    0    0  0.36386519563E+02 -0.66795004809E+00 -0.96917958722E+02  0.10352543497E+03  0.00000000000E+00 0.  1.
         13    1    3    3    0    0 -0.54790790195E+02 -0.27411302000E+02 -0.12499619242E+03  0.13920293921E+03  0.00000000000E+00 0. -1.
          1    1    1    2  501    0 -0.16451324487E+02  0.12664461723E+03 -0.87260346519E+02  0.15467344059E+03  0.00000000000E+00 0. -1.
<scales pt_clust_5="13000.00000" pt_clust_6="13000.00000" pt_clust_7="13000.00000" pt_clust_8="13000.00000" pt_clust_9="125.37786"></scales>
<clustering>
<clus scale="   77.274">  5  6 -1 -1</clus>
<clus scale="   92.434">  7  8 -1 -1</clus>
<clus scale="   98.342">  2  7  1 -1</clus>
<clus scale="  125.378">  1  9  2 -1</clus>
<clus scale="  125.378">  1  5  2 -1</clus>
</clustering>
</event>
<event>
 9    2  0.3745229E-005  0.9316411E+02  0.7546771E-02  0.1316764E+00
         21   -1    0    0  501  502  0.00000000000E+00  0.00000000000E+00  0.28663385148E+03  0.28663385148E+03  0.00000000000E+00 0.  1.
          2   -1    0    0  502    0 -0.00000000000E+00 -0.00000000000E+00 -0.41253248629E+02  0.41253248629E+02  0.00000000000E+00 0. -1.
         24    2    1    2    0    0 -0.18255006143E+01  0.61449150913E+01  0.95371627520E+01  0.63982414590E+02  0.62942032613E+02 0.  0.
         23    2    1    2    0    0 -0.12943327958E+02  0.12269874207E+02  0.18700970081E+03  0.20966487675E+03  0.93105600228E+02 0.  0.
        -11    1    3    3    0    0  0.25426392140E+02 -0.67636400824E+01  0.18914099021E+02  0.32403570578E+02  0.00000000000E+00 0.  1.
         12    1    3    3    0    0 -0.27251892754E+02  0.12908555174E+02 -0.93769362693E+01  0.31578844012E+02  0.00000000000E+00 0. -1.
        -11    1    4    4    0    0  0.27000365843E+02  0.30204451129E+01  0.15576338103E+03  0.15811506479E+03  0.00000000000E+00 0.  1.
         11    1    4    4    0    0 -0.39943693801E+02  0.92494290939E+01  0.31246319778E+02  0.51549811956E+02  0.00000000000E+00 0. -1.
          1    1    1    2  501    0  0.14768828572E+02 -0.18414789298E+02  0.48833739287E+02  0.54239808767E+02  0.00000000000E+00 0. -1.
<scales pt_clust_5="13000.00000" pt_clust_6="13000.00000" pt_clust_7="13000.00000" pt_clust_8="13000.00000" pt_clust_9="23.60557"></scales>
<clustering>
<clus scale="   23.606">  1  9  2 -1</clus>
<clus scale="   62.942">  5  6 -1 -1</clus>
<clus scale="   63.029">  2  5  1 -1</clus>
<clus scale="   93.106">  7  8 -1 -1</clus>
<clus scale="   23.606">  1  5  2 -1</clus>
</clustering>
</event>
<event>
 9    2  0.3745229E-005  0.1382332E+03  0.7546771E-02  0.1228806E+00
          2   -1    0    0  502    0 -0.00000000000E+00  0.00000000000E+00  0.10892036328E+04  0.10892036328E+04  0.00000000000E+00 0. -1.
         21   -1    0    0  501  502  0.00000000000E+00 -0.00000000000E+00 -0.59667222454E+02  0.59667222454E+02  0.00000000000E+00 0. -1.
         24    2    1    2    0    0  0.99912379434E+01  0.42612441231E+02  0.57374078420E+03  0.58329578261E+03  0.95602497705E+02 0.  0.
         23    2    1    2    0    0  0.82201278846E+02  0.10863170161E+02  0.44086017322E+03  0.45795458709E+03  0.92139311888E+02 0.  0.
        -13    1    3    3    0    0  0.28689509514E+02 -0.57731281654E+01  0.58116047280E+02  0.65068363406E+02  0.00000000000E+00 0.  1.
         14    1    3    3    0    0 -0.18698271570E+02  0.48385569396E+02  0.51562473692E+03  0.51822741920E+03  0.00000000000E+00 0. -1.
        -11    1    4    4    0    0  0.96121590600E+02 -0.12120416352E+02  0.35549617576E+03  0.36846138963E+03  0.00000000000E+00 0. -1.
         11    1    4    4    0    0 -0.13920311753E+02  0.22983586513E+02  0.85363997457E+02  0.89493197452E+02  0.00000000000E+00 0.  1.
          1    1    1    2  501    0 -0.92192516790E+02 -0.53475611391E+02  0.14935452968E+02  0.10762048560E+03  0.00000000000E+00 0. -1.
<scales pt_clust_5="13000.00000" pt_clust_6="13000.00000" pt_clust_7="13000.00000" pt_clust_8="13000.00000" pt_clust_9="103.04743"></scales>
<clustering>
<clus scale="   92.139">  7  8 -1 -1</clus>
<clus scale="   95.602">  5  6 -1 -1</clus>
<clus scale="  105.145">  1  5  2 -1</clus>
<clus scale="  103.047">  2  9  1 -1</clus>
<clus scale="  103.047">  2  5  1 -1</clus>
</clustering>
</event>
<event>
 9    2  0.3745229E-005  0.2849414E+03  0.7546771E-02  0.1134978E+00
          2   -1    0    0  502    0 -0.00000000000E+00  0.00000000000E+00  0.96734999668E+02  0.96734999668E+02  0.00000000000E+00 0. -1.
         21   -1    0    0  501  502  0.00000000000E+00 -0.00000000000E+00 -0.16751620902E+04  0.16751620902E+04  0.00000000000E+00 0. -1.
         23    2    1    2    0    0 -0.36823680307E+02 -0.16098332010E+02 -0.16321508747E+03  0.19068163887E+03  0.90028789279E+02 0.  0.
         24    2    1    2    0    0  0.23257764906E+03  0.19855636163E+03 -0.30206755041E+03  0.43635689147E+03  0.75136809447E+02 0.  0.
        -11    1    4    4    0    0  0.69475393377E+02  0.21985636911E+02 -0.90039927538E+02  0.11583344537E+03  0.00000000000E+00 0.  1.
         12    1    4    4    0    0  0.16310225568E+03  0.17657072472E+03 -0.21202762287E+03  0.32052344609E+03  0.00000000000E+00 0. -1.
        -13    1    3    3    0    0 -0.21407241706E+02  0.24971276684E+02 -0.13399564657E+03  0.13797343207E+03  0.00000000000E+00 0. -1.
         13    1    3    3    0    0 -0.15416438601E+02 -0.41069608694E+02 -0.29219440892E+02  0.52708206794E+02  0.00000000000E+00 0.  1.
          1    1    1    2  501    0 -0.19575396875E+03 -0.18245802962E+03 -0.11131444527E+04  0.11448585595E+04  0.00000000000E+00 0. -1.
<scales pt_clust_5="13000.00000" pt_clust_6="13000.00000" pt_clust_7="13000.00000" pt_clust_8="13000.00000" pt_clust_9="274.85641"></scales>
<clustering>
<clus scale="   75.137">  5  6 -1 -1</clus>
<clus scale="   90.029">  7  8 -1 -1</clus>
<clus scale="   98.592">  1  7  2 -1</clus>
<clus scale="  274.856">  2  9  1 -1</clus>
<clus scale="  274.856">  2  5  1 -1</clus>
</clustering>
</event>
<event>
 9    2  0.3745229E-005  0.1077059E+03  0.7546771E-02  0.1269747E+00
          2   -1    0    0  502    0 -0.00000000000E+00  0.00000000000E+00  0.12780291031E+03  0.12780291031E+03  0.00000000000E+00 0. -1.
         21   -1    0    0  501  502  0.00000000000E+00 -0.00000000000E+00 -0.49865737785E+03  0.49865737785E+03  0.00000000000E+00 0. -1.
         23    2    1    2    0    0 -0.49236821611E+02 -0.38132473152E+02  0.50156520386E+02  0.12877172350E+03  0.10093626764E+03 0.  0.
         24    2    1    2    0    0  0.12993716007E+02 -0.52904650619E+02 -0.44076697041E+02  0.10822639672E+03  0.82477021117E+02 0.  0.
        -11    1    4    4    0    0  0.40522329893E+02 -0.57202480219E+01 -0.32801194533E+02  0.52447104974E+02  0.00000000000E+00 0.  1.
         12    1    4    4    0    0 -0.27528613886E+02 -0.47184402597E+02 -0.11275502508E+02  0.55779291746E+02  0.00000000000E+00 0. -1.
        -11    1    3    3    0    0  0.12497551901E+02 -0.53485419188E+02  0.25305370827E+02  0.60475124324E+02  0.00000000000E+00 0.  1.
         11    1    3    3    0    0 -0.61734373512E+02  0.15352946037E+02  0.24851149559E+02  0.68296599179E+02  0.00000000000E+00 0. -1.
          1    1    1    2  501    0  0.36243105604E+02  0.91037123771E+02 -0.37693429089E+03  0.38946216794E+03  0.00000000000E+00 0. -1.
<scales pt_clust_5="13000.00000" pt_clust_6="13000.00000" pt_clust_7="13000.00000" pt_clust_8="13000.00000" pt_clust_9="97.98633"></scales>
<clustering>
<clus scale="   82.477">  5  6 -1 -1</clus>
<clus scale="   97.986">  2  9  1 -1</clus>
<clus scale="   97.986">  2  5  1 -1</clus>
<clus scale="  100.936">  7  8 -1 -1</clus>
<clus scale="   97.986">  2  5  1 -1</clus>
</clustering>
</event>
<event>
 9    2  0.3745229E-005  0.2054755E+03  0.7546771E-02  0.1146041E+00
         -3   -1    0    0    0  501 -0.00000000000E+00  0.00000000000E+00  0.63730000313E+03  0.63730000313E+03  0.00000000000E+00 0.  1.
         21   -1    0    0  501  502  0.00000000000E+00 -0.00000000000E+00 -0.14339871092E+03  0.14339871092E+03  0.00000000000E+00 0.  1.
         23    2    1    2    0    0 -0.45763547382E+02 -0.17046417522E+03  0.43514300161E+03  0.47815547318E+03  0.90171433288E+02 0.  0.
         24    2    1    2    0    0  0.17701101976E+02  0.22226139590E+03  0.56092574726E+02  0.24357240949E+03  0.80421916228E+02 0.  0.
        -11    1    4    4    0    0  0.48214676151E+02  0.10005205842E+03  0.25904896983E+02  0.11404443466E+03  0.00000000000E+00 0.  1.
         12    1    4    4    0    0 -0.30513574175E+02  0.12220933748E+03  0.30187677743E+02  0.12952797483E+03  0.00000000000E+00 0. -1.
        -11    1    3    3    0    0 -0.55879690158E+02 -0.80550396379E+02  0.29922138245E+03  0.31487194516E+03  0.00000000000E+00 0. -1.
         11    1    3    3    0    0  0.10116142776E+02 -0.89913778845E+02  0.13592161915E+03  0.16328352802E+03  0.00000000000E+00 0.  1.
         -4    1    1    2    0  502  0.28062445406E+02 -0.51797220675E+02  0.26657158829E+01  0.58970831374E+02  0.00000000000E+00 0.  1.
<scales pt_clust_5="13000.00000" pt_clust_6="13000.00000" pt_clust_7="13000.00000" pt_clust_8="13000.00000" pt_clust_9="58.91055"></scales>
<clustering>
<clus scale="   58.911">  2  9  1 -1</clus>
<clus scale="   80.422">  5  6 -1 -1</clus>
<clus scale="   90.171">  7  8 -1 -1</clus>
<clus scale="  201.388">  2  5  1 -1</clus>
<clus scale="   58.911">  2  5  1 -1</clus>
</clustering>
</event>
<event>
 9    2  0.3745229E-005  0.2004572E+03  0.7546771E-02  0.1150360E+00
         21   -1    0    0  501  502  0.00000000000E+00  0.00000000000E+00  0.51010534114E+02  0.51010534114E+02  0.00000000000E+00 0. -1.
          2   -1    0    0  502    0 -0.00000000000E+00 -0.00000000000E+00 -0.22648863063E+04  0.22648863063E+04  0.00000000000E+00 0. -1.
         24    2    1    2    0    0  0.52752792152E+02 -0.17327192130E+03 -0.19985846268E+04  0.20084092997E+04  0.81002400241E+02 0.  0.
         23    2    1    2    0    0 -0.58374616838E+02  0.14720836616E+03 -0.21280823323E+03  0.28070921604E+03  0.91828213975E+02 0.  0.
        -11    1    3    3    0    0  0.33149868500E+02 -0.59071310642E+02 -0.40571052544E+03  0.41132634729E+03  0.00000000000E+00 0.  1.
         12    1    3    3    0    0  0.19602923652E+02 -0.11420061066E+03 -0.15928741013E+04  0.15970829524E+04  0.00000000000E+00 0. -1.
        -11    1    4    4    0    0 -0.69287102561E+02  0.70566402269E+02 -0.15592502060E+03  0.18464271380E+03  0.00000000000E+00 0. -1.
         11    1    4    4    0    0  0.10912485722E+02  0.76641963896E+02 -0.56883212631E+02  0.96066502245E+02  0.00000000000E+00 0.  1.
          1    1    1    2  501    0  0.56218246863E+01  0.26063555136E+02 -0.24829121505E+01  0.26778324665E+02  0.00000000000E+00 0. -1.
<scales pt_clust_5="13000.00000" pt_clust_6="13000.00000" pt_clust_7="13000.00000" pt_clust_8="13000.00000" pt_clust_9="26.66297"></scales>
<clustering>
<clus scale="   26.663">  1  9  2 -1</clus>
<clus scale="   81.002">  5  6 -1 -1</clus>
<clus scale="   91.828">  7  8 -1 -1</clus>
<clus scale="  195.735">  2  5  1 -1</clus>
<clus scale="   26.663">  1  5  2 -1</clus>
</clustering>
</event>
<event>
 9    2  0.3745229E-005  0.1402129E+03  0.7546771E-02  0.1219173E+00
         21   -1    0    0  501  502  0.00000000000E+00  0.00000000000E+00  0.91842591858E+03  0.91842591858E+03  0.00000000000E+00 0.  1.
         -3   -1    0    0    0  501 -0.00000000000E+00 -0.00000000000E+00 -0.81443566692E+02  0.81443566692E+02  0.00000000000E+00 0.  1.
         24    2    1    2    0    0  0.68622535911E+02 -0.61974335354E+02  0.66807899842E+02  0.14012638960E+03  0.81377139928E+02 0.  0.
         23    2    1    2    0    0  0.91621831493E+02 -0.14725520431E+02  0.59857115120E+03  0.61274346405E+03  0.92497182267E+02 0.  0.
        -13    1    3    3    0    0  0.31155871468E+02  0.16763988639E+02  0.13166133094E+02  0.37750055665E+02  0.00000000000E+00 0.  1.
         14    1    3    3    0    0  0.37466664443E+02 -0.78738323993E+02  0.53641766747E+02  0.10237633393E+03  0.00000000000E+00 0. -1.
        -13    1    4    4    0    0  0.39627250183E+02 -0.50299879684E+02  0.37659933279E+03  0.38200452132E+03  0.00000000000E+00 0.  1.
         13    1    4    4    0    0  0.51994581310E+02  0.35574359254E+02  0.22197181841E+03  0.23073894273E+03  0.00000000000E+00 0. -1.
         -4    1    1    2    0  502 -0.16024436740E+03  0.76699855785E+02  0.17160330084E+03  0.24699963162E+03  0.00000000000E+00 0.  1.
<scales pt_clust_5="13000.00000" pt_clust_6="13000.00000" pt_clust_7="13000.00000" pt_clust_8="13000.00000" pt_clust_9="105.37522"></scales>
<clustering>
<clus scale="   81.377">  5  6 -1 -1</clus>
<clus scale="   92.497">  7  8 -1 -1</clus>
<clus scale="  123.175">  2  5  1 -1</clus>
<clus scale="  105.375">  1  9  2 -1</clus>
<clus scale="  105.375">  1  5  2 -1</clus>
</clustering>
</event>
<event>
 9    2  0.3745229E-005  0.8388345E+03  0.7546771E-02  0.9505447E-01
         21   -1    0    0  501  502  0.00000000000E+00  0.00000000000E+00  0.11028109796E+04  0.11028109796E+04  0.00000000000E+00 0. -1.
          2   -1    0    0  502    0 -0.00000000000E+00 -0.00000000000E+00 -0.71999339063E+03  0.71999339063E+03  0.00000000000E+00 0. -1.
         24    2    1    2    0    0  0.90549575896E+02 -0.66370362023E+03 -0.12714385646E+03  0.68670441887E+03  0.81827119308E+02 0.  0.
         23    2    1    2    0    0  0.10082808364E+03 -0.86586987865E+02 -0.62315023146E+02  0.17325948605E+03  0.92043894299E+02 0.  0.
        -13    1    3    3    0    0  0.45157353427E+02 -0.10694334089E+03 -0.16663843073E+02  0.11727637612E+03  0.00000000000E+00 0.  1.
         14    1    3    3    0    0  0.45392222468E+02 -0.55676027934E+03 -0.11048001338E+03  0.56942804275E+03  0.00000000000E+00 0. -1.
        -11    1    4    4    0    0 -0.17692401677E+02 -0.14622581134E+02 -0.10437104269E+02  0.25214561302E+02  0.00000000000E+00 0.  1.
         11    1    4    4    0    0  0.11852048532E+03 -0.71964406731E+02 -0.51877918878E+02  0.14804492475E+03  0.00000000000E+00 0. -1.
          1    1    1    2  501    0 -0.19137765954E+03  0.75029060810E+03  0.57227646858E+03  0.96284046532E+03  0.00000000000E+00 0. -1.
<scales pt_clust_5="13000.00000" pt_clust_6="13000.00000" pt_clust_7="13000.00000" pt_clust_8="13000.00000" pt_clust_9="774.31351"></scales>
<clustering>
<clus scale="   81.827">  5  6 -1 -1</clus>
<clus scale="   92.044">  7  8 -1 -1</clus>
<clus scale="  137.647">  5  7 -1 -1</clus>
<clus scale="  774.314">  1  9  2 -1</clus>
<clus scale="  774.314">  1  5  2 -1</clus>
</clustering>
</event>
<event>
 9    2  0.3745229E-005  0.9842480E+02  0.7546771E-02  0.1285221E+00
         21   -1    0    0  501  502  0.00000000000E+00  0.00000000000E+00  0.13891541840E+03  0.13891541840E+03  0.00000000000E+00 0.  1.
          4   -1    0    0  502    0 -0.00000000000E+00 -0.00000000000E+00 -0.13384212891E+03  0.13384212891E+03  0.00000000000E+00 0. -1.
         24    2    1    2    0    0  0.27398599389E+02  0.52974762480E+01 -0.64059938159E+02  0.11597558862E+03  0.92563032450E+02 0.  0.
         23    2    1    2    0    0 -0.14638226530E+01 -0.30237493113E+02  0.32322803119E+02  0.10530745589E+03  0.95542911287E+02 0.  0.
        -13    1    3    3    0    0  0.88800591862E+01  0.48521784784E+02 -0.28032053158E+02  0.56736364477E+02  0.00000000000E+00 0.  1.
         14    1    3    3    0    0  0.18518540203E+02 -0.43224308536E+02 -0.36027885001E+02  0.59239224145E+02  0.00000000000E+00 0. -1.
        -11    1    4    4    0    0  0.22982380294E+02  0.12473728744E+02  0.47144965201E+02  0.53911329575E+02  0.00000000000E+00 0.  1.
         11    1    4    4    0    0 -0.24446202947E+02 -0.42711221856E+02 -0.14822162082E+02  0.51396126311E+02  0.00000000000E+00 0. -1.
          3    1    1    2  501    0 -0.25934776736E+02  0.24940016865E+02  0.36810424529E+02  0.51474502810E+02  0.00000000000E+00 0. -1.
<scales pt_clust_5="13000.00000" pt_clust_6="13000.00000" pt_clust_7="13000.00000" pt_clust_8="13000.00000" pt_clust_9="35.98079"></scales>
<clustering>
<clus scale="   35.981">  1  9  2 -1</clus>
<clus scale="   92.563">  5  6 -1 -1</clus>
<clus scale="   95.535">  2  5  1 -1</clus>
<clus scale="   95.543">  7  8 -1 -1</clus>
<clus scale="   35.981">  1  5  2 -1</clus>
</clustering>
</event>
<event>
 9    2  0.3745229E-005  0.9546441E+02  0.7546771E-02  0.1297595E+00
         21   -1    0    0  501  502  0.00000000000E+00  0.00000000000E+00  0.25881691996E+03  0.25881691996E+03  0.00000000000E+00 0.  1.
         -3   -1    0    0    0  501 -0.00000000000E+00 -0.00000000000E+00 -0.60549955373E+02  0.60549955373E+02  0.00000000000E+00 0.  1.
         23    2    1    2    0    0 -0.19652250635E+02 -0.29347530839E+01  0.17170471885E+02  0.97011459496E+02  0.93389370048E+02 0.  0.
         24    2    1    2    0    0  0.23144014104E+01  0.38325507355E+02  0.11916659365E+03  0.14894956526E+03  0.80691356284E+02 0.  0.
        -13    1    4    4    0    0 -0.36460016376E+02  0.21475466115E+02  0.35603706464E+02  0.55300563767E+02  0.00000000000E+00 0.  1.
         14    1    4    4    0    0  0.38774417786E+02  0.16850041240E+02  0.83562887191E+02  0.93649001490E+02  0.00000000000E+00 0. -1.
        -11    1    3    3    0    0 -0.51993739770E+02 -0.12766350734E+02  0.29381735920E+02  0.61070574682E+02  0.00000000000E+00 0.  1.
         11    1    3    3    0    0  0.32341489135E+02  0.98315976506E+01 -0.12211264035E+02  0.35940884814E+02  0.00000000000E+00 0. -1.
         -4    1    1    2    0  502  0.17337849224E+02 -0.35390754271E+02  0.61929899050E+02  0.73405850584E+02  0.00000000000E+00 0.  1.
<scales pt_clust_5="13000.00000" pt_clust_6="13000.00000" pt_clust_7="13000.00000" pt_clust_8="13000.00000" pt_clust_9="39.40947"></scales>
<clustering>
<clus scale="   39.409">  1  9  2 -1</clus>
<clus scale="   80.691">  5  6 -1 -1</clus>
<clus scale="   83.084">  1  5  2 -1</clus>
<clus scale="   93.389">  7  8 -1 -1</clus>
<clus scale="   39.409">  1  5  2 -1</clus>
</clustering>
</event>
<event>
 9    2  0.3745229E-005  0.1037345E+03  0.7546771E-02  0.1277873E+00
         21   -1    0    0  501  502  0.00000000000E+00  0.00000000000E+00  0.24205700288E+03  0.24205700288E+03  0.00000000000E+00 0.  1.
         -1   -1    0    0    0  501 -0.00000000000E+00 -0.00000000000E+00 -0.10137355324E+03  0.10137355324E+03  0.00000000000E+00 0.  1.
         24    2    1    2    0    0  0.35333661304E+02  0.34177294265E+02 -0.24486981140E+02  0.10034408479E+03  0.83980759954E+02 0.  0.
         23    2    1    2    0    0  0.56103849768E+01 -0.39220574986E+02  0.38447261039E+02  0.10981752763E+03  0.94931383493E+02 0.  0.
        -11    1    3    3    0    0  0.54076744565E+02  0.31636782340E+02 -0.41298471183E+02  0.75038283707E+02  0.00000000000E+00 0.  1.
         12    1    3    3    0    0 -0.18743083261E+02  0.25405119245E+01  0.16811490043E+02  0.25305801083E+02  0.00000000000E+00 0. -1.
        -13    1    4    4    0    0  0.15054749585E+02  0.28807781891E+02  0.33158505723E+01  0.32673056906E+02  0.00000000000E+00 0.  1.
         13    1    4    4    0    0 -0.94443646086E+01 -0.68028356877E+02  0.35131410467E+02  0.77144470726E+02  0.00000000000E+00 0. -1.
         -2    1    1    2    0  502 -0.40944046281E+02  0.50432807212E+01  0.12672316974E+03  0.13326894370E+03  0.00000000000E+00 0.  1.
<scales pt_clust_5="13000.00000" pt_clust_6="13000.00000" pt_clust_7="13000.00000" pt_clust_8="13000.00000" pt_clust_9="41.25348"></scales>
<clustering>
<clus scale="   41.253">  1  9  2 -1</clus>
<clus scale="   83.981">  5  6 -1 -1</clus>
<clus scale="   93.817">  2  5  1 -1</clus>
<clus scale="   94.931">  7  8 -1 -1</clus>
<clus scale="   41.253">  1  5  2 -1</clus>
</clustering>
</event>
<event>
 9    2  0.3745229E-005  0.1017659E+03  0.7546771E-02  0.1280841E+00
         -1   -1    0    0    0  501 -0.00000000000E+00  0.00000000000E+00  0.63260995248E+03  0.63260995248E+03  0.00000000000E+00 0.  1.
         21   -1    0    0  501  502  0.00000000000E+00 -0.00000000000E+00 -0.41636632611E+02  0.41636632611E+02  0.00000000000E+00 0. -1.
         23    2    1    2    0    0  0.35597291714E+02 -0.13533440551E+02  0.31515749524E+03  0.32983757295E+03  0.89544718050E+02 0.  0.
         24    2    1    2    0    0 -0.80456467862E+02  0.43453232116E+02  0.91481855648E+02  0.15235029265E+03  0.80500032031E+02 0.  0.
        -11    1    4    4    0    0 -0.97184557606E+01 -0.22871475201E+02  0.19352266389E+02  0.31497031204E+02  0.00000000000E+00 0.  1.
         12    1    4    4    0    0 -0.70738012101E+02  0.66324707316E+02  0.72129589259E+02  0.12085326145E+03  0.00000000000E+00 0. -1.
        -13    1    3    3    0    0 -0.17451259161E+02  0.15270718442E+02  0.27769965903E+02  0.36178892939E+02  0.00000000000E+00 0. -1.
         13    1    3    3    0    0  0.53048550874E+02 -0.28804158993E+02  0.28738752934E+03  0.29365868001E+03  0.00000000000E+00 0.  1.
         -2    1    1    2    0  502  0.44859176149E+02 -0.29919791565E+02  0.18433396898E+03  0.19205871949E+03  0.00000000000E+00 0.  1.
<scales pt_clust_5="13000.00000" pt_clust_6="13000.00000" pt_clust_7="13000.00000" pt_clust_8="13000.00000" pt_clust_9="53.92163"></scales>
<clustering>
<clus scale="   53.922">  2  9  1 -1</clus>
<clus scale="   80.500">  5  6 -1 -1</clus>
<clus scale="   89.545">  7  8 -1 -1</clus>
<clus scale="   93.906">  2  5  1 -1</clus>
<clus scale="   53.922">  2  5  1 -1</clus>
</clustering>
</event>
<event>
 9    2  0.3745229E-005  0.9817683E+02  0.7546771E-02  0.1288999E+00
         21   -1    0    0  501  502  0.00000000000E+00  0.00000000000E+00  0.22968541483E+03  0.22968541483E+03  0.00000000000E+00 0. -1.
         -1   -1    0    0    0  501 -0.00000000000E+00 -0.00000000000E+00 -0.76024104516E+02  0.76024104516E+02  0.00000000000E+00 0.  1.
         23    2    1    2    0    0  0.33348514880E+02  0.17747758052E+02 -0.13092294590E+02  0.98382576734E+02  0.89892251427E+02 0.  0.
         24    2    1    2    0    0 -0.50860132119E+02  0.20688892209E+01  0.14279422973E+03  0.17164210120E+03  0.80497114979E+02 0.  0.
        -11    1    4    4    0    0  0.17984131402E+00  0.23184393939E+02  0.57531127880E+01  0.23888214081E+02  0.00000000000E+00 0.  1.
         12    1    4    4    0    0 -0.51039973433E+02 -0.21115504718E+02  0.13704111694E+03  0.14775388712E+03  0.00000000000E+00 0. -1.
        -13    1    3    3    0    0  0.55620112342E+02 -0.12425765385E+02 -0.19704133186E+02  0.60301321768E+02  0.00000000000E+00 0.  1.
         13    1    3    3    0    0 -0.22271597462E+02  0.30173523437E+02  0.66118385961E+01  0.38081254966E+02  0.00000000000E+00 0. -1.
         -2    1    1    2    0  502  0.17511617239E+02 -0.19816647273E+02  0.23959375172E+02  0.35684841405E+02  0.00000000000E+00 0.  1.
<scales pt_clust_5="13000.00000" pt_clust_6="13000.00000" pt_clust_7="13000.00000" pt_clust_8="13000.00000" pt_clust_9="26.44534"></scales>
<clustering>
<clus scale="   26.445">  1  9  2 -1</clus>
<clus scale="   80.497">  5  6 -1 -1</clus>
<clus scale="   89.654">  1  5  2 -1</clus>
<clus scale="   89.892">  7  8 -1 -1</clus>
<clus scale="   26.445">  1  5  2 -1</clus>
</clustering>
</event>
<event>
 9    2  0.3745229E-005  0.1063854E+03  0.7546771E-02  0.1271685E+00
         -1   -1    0    0    0  501 -0.00000000000E+00  0.00000000000E+00  0.11207306622E+04  0.11207306622E+04  0.00000000000E+00 0.  1.
         21   -1    0    0  501  502  0.00000000000E+00 -0.00000000000E+00 -0.23596421441E+02  0.23596421441E+02  0.00000000000E+00 0.  1.
         23    2    1    2    0    0 -0.73130042609E+02 -0.37701419937E+02  0.56216559372E+03  0.57540742534E+03  0.91072225059E+02 0.  0.
         24    2    1    2    0    0  0.30534395219E+02 -0.47110324467E+02  0.26397567169E+03  0.28178795706E+03  0.81052856459E+02 0.  0.
        -11    1    4    4    0    0  0.37096439657E+02 -0.65950017268E+02  0.23268087514E+03  0.24467517297E+03  0.00000000000E+00 0.  1.
         12    1    4    4    0    0 -0.65620444385E+01  0.18839692802E+02  0.31294796551E+02  0.37112784094E+02  0.00000000000E+00 0. -1.
        -11    1    3    3    0    0  0.17736727209E+02 -0.25482555815E+02  0.14343125666E+03  0.14675311761E+03  0.00000000000E+00 0. -1.
         11    1    3    3    0    0 -0.90866769818E+02 -0.12218864122E+02  0.41873433706E+03  0.42865430773E+03  0.00000000000E+00 0.  1.
         -2    1    1    2    0  502  0.42595647390E+02  0.84811744404E+02  0.27099297534E+03  0.28713170123E+03  0.00000000000E+00 0.  1.
<scales pt_clust_5="13000.00000" pt_clust_6="13000.00000" pt_clust_7="13000.00000" pt_clust_8="13000.00000" pt_clust_9="94.90743"></scales>
<clustering>
<clus scale="   81.053">  5  6 -1 -1</clus>
<clus scale="   91.072">  7  8 -1 -1</clus>
<clus scale="   94.907">  2  9  1 -1</clus>
<clus scale="   97.945">  2  5  1 -1</clus>
<clus scale="   94.907">  2  5  1 -1</clus>
</clustering>
</event>
<event>
 9    2  0.3745229E-005  0.1035968E+03  0.7546771E-02  0.1278086E+00
         21   -1    0    0  501  502  0.00000000000E+00  0.00000000000E+00  0.82606055781E+02  0.82606055781E+02  0.00000000000E+00 0.  1.
          2   -1    0    0  502    0 -0.00000000000E+00 -0.00000000000E+00 -0.36869138223E+03  0.36869138223E+03  0.00000000000E+00 0. -1.
         23    2    1    2    0    0 -0.65504276714E+01  0.53393996910E+02 -0.29639506198E+03  0.31452392157E+03  0.90451298875E+02 0.  0.
         24    2    1    2    0    0 -0.19019304250E+02 -0.39162299759E+02 -0.22294433939E+02  0.92962738534E+02  0.79054470553E+02 0.  0.
        -13    1    4    4    0    0  0.52623547668E+01 -0.54719640996E+02  0.23594885397E+01  0.55022710535E+02  0.00000000000E+00 0.  1.
         14    1    4    4    0    0 -0.24281659017E+02  0.15557341237E+02 -0.24653922478E+02  0.37940027999E+02  0.00000000000E+00 0. -1.
        -11    1    3    3    0    0 -0.40235541604E+02  0.24207069547E+02 -0.73518911643E+02  0.87234806089E+02  0.00000000000E+00 0.  1.
         11    1    3    3    0    0  0.33685113932E+02  0.29186927363E+02 -0.22287615033E+03  0.22728911548E+03  0.00000000000E+00 0. -1.
          1    1    1    2  501    0  0.25569731921E+02 -0.14231697151E+02  0.32604169465E+02  0.43810777907E+02  0.00000000000E+00 0. -1.
<scales pt_clust_5="13000.00000" pt_clust_6="13000.00000" pt_clust_7="13000.00000" pt_clust_8="13000.00000" pt_clust_9="29.26350"></scales>
<clustering>
<clus scale="   29.263">  1  9  2 -1</clus>
<clus scale="   79.054">  5  6 -1 -1</clus>
<clus scale="   90.451">  7  8 -1 -1</clus>
<clus scale="   93.811">  1  5  2 -1</clus>
<clus scale="   29.263">  1  5  2 -1</clus>
</clustering>
</event>
<event>
 9    2  0.3745229E-005  0.9175071E+02  0.7546771E-02  0.1306633E+00
         21   -1    0    0  501  502  0.00000000000E+00  0.00000000000E+00  0.29165303338E+02  0.29165303338E+02  0.00000000000E+00 0.  1.
          2   -1    0    0  502    0 -0.00000000000E+00 -0.00000000000E+00 -0.72176730351E+03  0.72176730351E+03  0.00000000000E+00 0. -1.
         23    2    1    2    0    0 -0.21353139220E+00 -0.19474272420E+02 -0.48588235132E+03  0.49473676904E+03  0.91123643644E+02 0.  0.
         24    2    1    2    0    0 -0.21517579151E+02 -0.14044716346E+02 -0.19904599522E+03  0.21551846408E+03  0.78540689323E+02 0.  0.
        -11    1    4    4    0    0 -0.34127169543E+02  0.16486908318E+02 -0.49369082603E+02  0.62239763527E+02  0.00000000000E+00 0.  1.
         12    1    4    4    0    0  0.12609590392E+02 -0.30531624664E+02 -0.14967691261E+03  0.15327870056E+03  0.00000000000E+00 0. -1.
        -11    1    3    3    0    0  0.18653006324E+02  0.32630015338E+02 -0.21169396439E+03  0.21500462113E+03  0.00000000000E+00 0.  1.
         11    1    3    3    0    0 -0.18866537717E+02 -0.52104287759E+02 -0.27418838693E+03  0.27973214791E+03  0.00000000000E+00 0. -1.
          1    1    1    2  501    0  0.21731110543E+02  0.33518988766E+02 -0.76736536364E+01  0.40677373729E+02  0.00000000000E+00 0. -1.
<scales pt_clust_5="13000.00000" pt_clust_6="13000.00000" pt_clust_7="13000.00000" pt_clust_8="13000.00000" pt_clust_9="39.94701"></scales>
<clustering>
<clus scale="   39.947">  1  9  2 -1</clus>
<clus scale="   78.541">  5  6 -1 -1</clus>
<clus scale="   79.267">  1  5  2 -1</clus>
<clus scale="   91.124">  7  8 -1 -1</clus>
<clus scale="   39.947">  1  5  2 -1</clus>
</clustering>
</event>
<event>
 9    2  0.3745229E-005  0.2627789E+03  0.7546771E-02  0.1139496E+00
         21   -1    0    0  501  502  0.00000000000E+00  0.00000000000E+00  0.25311918070E+03  0.25311918070E+03  0.00000000000E+00 0. -1.
          2   -1    0    0  502    0 -0.00000000000E+00 -0.00000000000E+00 -0.80147567903E+03  0.80147567903E+03  0.00000000000E+00 0. -1.
         24    2    1    2    0    0 -0.75919928744E+02 -0.26636896152E+02  0.15451936742E+02  0.11371580078E+03  0.78861658495E+02 0.  0.
         23    2    1    2    0    0  0.21436218482E+03  0.21996997905E+03 -0.61868947957E+03  0.69683834870E+03  0.92027572612E+02 0.  0.
        -13    1    3    3    0    0 -0.72612417511E+02  0.29907860323E+01 -0.11437872225E+02  0.73568559174E+02  0.00000000000E+00 0.  1.
         14    1    3    3    0    0 -0.33075112327E+01 -0.29627682185E+02  0.26889808967E+02  0.40147241605E+02  0.00000000000E+00 0. -1.
        -11    1    4    4    0    0  0.18279191340E+03  0.19997785838E+03 -0.59158884045E+03  0.65067763416E+03  0.00000000000E+00 0. -1.
         11    1    4    4    0    0  0.31570271418E+02  0.19992120667E+02 -0.27100639124E+02  0.46160714543E+02  0.00000000000E+00 0.  1.
          1    1    1    2  501    0 -0.13844225608E+03 -0.19333308290E+03  0.54881044501E+02  0.24404071024E+03  0.00000000000E+00 0. -1.
<scales pt_clust_5="13000.00000" pt_clust_6="13000.00000" pt_clust_7="13000.00000" pt_clust_8="13000.00000" pt_clust_9="246.13751"></scales>
<clustering>
<clus scale="   78.862">  5  6 -1 -1</clus>
<clus scale="   92.028">  7  8 -1 -1</clus>
<clus scale="  112.661">  2  5  1 -1</clus>
<clus scale="  246.138">  1  9  2 -1</clus>
<clus scale="  246.138">  1  5  2 -1</clus>
</clustering>
</event>
<event>
 9    2  0.3745229E-005  0.1091062E+03  0.7546771E-02  0.1268386E+00
         -1   -1    0    0    0  501 -0.00000000000E+00  0.00000000000E+00  0.15248577041E+03  0.15248577041E+03  0.00000000000E+00 0.  1.
         21   -1    0    0  501  502  0.00000000000E+00 -0.00000000000E+00 -0.13704275788E+03  0.13704275788E+03  0.00000000000E+00 0. -1.
         23    2    1    2    0    0  0.44490451503E+02  0.36250004560E+02  0.80113368925E+02  0.13711164942E+03  0.95330946810E+02 0.  0.
         24    2    1    2    0    0 -0.34548213410E+02 -0.16491812768E+02 -0.84204895562E+02  0.12290700829E+03  0.80932745605E+02 0.  0.
        -11    1    4    4    0    0  0.17484508717E+02  0.11190882595E+02 -0.79423222213E+00  0.20774376120E+02  0.00000000000E+00 0.  1.
         12    1    4    4    0    0 -0.52032722127E+02 -0.27682695363E+02 -0.83410663340E+02  0.10213263217E+03  0.00000000000E+00 0. -1.
        -13    1    3    3    0    0  0.57196711724E+02  0.60675767905E+02  0.64826187840E+02  0.10561935084E+03  0.00000000000E+00 0.  1.
         13    1    3    3    0    0 -0.12706260222E+02 -0.24425763345E+02  0.15287181085E+02  0.31492298572E+02  0.00000000000E+00 0. -1.
         -2    1    1    2    0  502 -0.99422380930E+01 -0.19758191791E+02  0.19534539167E+02  0.29509870580E+02  0.00000000000E+00 0.  1.
<scales pt_clust_5="13000.00000" pt_clust_6="13000.00000" pt_clust_7="13000.00000" pt_clust_8="13000.00000" pt_clust_9="22.11865"></scales>
<clustering>
<clus scale="   22.119">  2  9  1 -1</clus>
<clus scale="   80.933">  5  6 -1 -1</clus>
<clus scale="   95.331">  7  8 -1 -1</clus>
<clus scale="   96.780">  2  5  1 -1</clus>
<clus scale="   22.119">  2  5  1 -1</clus>
</clustering>
</event>
<event>
 9    2  0.3745229E-005  0.1135501E+03  0.7546771E-02  0.1258024E+00
         21   -1    0    0  501  502  0.00000000000E+00  0.00000000000E+00  0.27589038479E+02  0.27589038479E+02  0.00000000000E+00 0.  1.
         -3   -1    0    0    0  501 -0.00000000000E+00 -0.00000000000E+00 -0.85163871453E+03  0.85163871453E+03  0.00000000000E+00 0.  1.
         23    2    1    2    0    0  0.43423868589E+02 -0.80123625318E+02 -0.55637876255E+03  0.57113259852E+03  0.91267135272E+02 0.  0.
         24    2    1    2    0    0 -0.15035400690E+02  0.36609720215E+02 -0.21990957728E+03  0.23752242403E+03  0.80562676519E+02 0.  0.
        -13    1    4    4    0    0  0.27925993724E+02  0.84594794191E+00 -0.37653979652E+02  0.46887087103E+02  0.00000000000E+00 0.  1.
         14    1    4    4    0    0 -0.42961394414E+02  0.35763772273E+02 -0.18225559763E+03  0.19063533693E+03  0.00000000000E+00 0. -1.
        -13    1    3    3    0    0 -0.27876811327E+02 -0.32438106259E+02 -0.16379050537E+03  0.16928283137E+03  0.00000000000E+00 0.  1.
         13    1    3    3    0    0  0.71300679915E+02 -0.47685519059E+02 -0.39258825718E+03  0.40184976715E+03  0.00000000000E+00 0. -1.
         -4    1    1    2    0  502 -0.28388467899E+02  0.43513905104E+02 -0.47761336221E+02  0.70572730460E+02  0.00000000000E+00 0.  1.
<scales pt_clust_5="13000.00000" pt_clust_6="13000.00000" pt_clust_7="13000.00000" pt_clust_8="13000.00000" pt_clust_9="51.95541"></scales>
<clustering>
<clus scale="   51.955">  1  9  2 -1</clus>
<clus scale="   80.563">  5  6 -1 -1</clus>
<clus scale="   91.267">  7  8 -1 -1</clus>
<clus scale="  105.139">  1  5  2 -1</clus>
<clus scale="   51.955">  1  5  2 -1</clus>
</clustering>
</event>
<event>
 9    2  0.3745229E-005  0.1021754E+03  0.7546771E-02  0.1281319E+00
         21   -1    0    0  501  502  0.00000000000E+00  0.00000000000E+00  0.58034295160E+02  0.58034295160E+02  0.00000000000E+00 0. -1.
         -1   -1    0    0    0  501 -0.00000000000E+00 -0.00000000000E+00 -0.34008669769E+03  0.34008669769E+03  0.00000000000E+00 0.  1.
         24    2    1    2    0    0 -0.10879685158E+02 -0.69232903172E+02 -0.11055648794E+03  0.15316950906E+03  0.79539921102E+02 0.  0.
         23    2    1    2    0    0  0.32445375400E+02  0.54905510705E+01 -0.57864642558E+02  0.11289001163E+03  0.91175596134E+02 0.  0.
        -13    1    3    3    0    0 -0.41296770873E+02 -0.42852020906E+02 -0.39279216969E+02  0.71306211974E+02  0.00000000000E+00 0.  1.
         14    1    3    3    0    0  0.30417085715E+02 -0.26380882266E+02 -0.71277270973E+02  0.81863297087E+02  0.00000000000E+00 0. -1.
        -13    1    4    4    0    0  0.53918508861E+02 -0.21348008031E+02 -0.19039529311E+02  0.61036437651E+02  0.00000000000E+00 0. -1.
         13    1    4    4    0    0 -0.21473133461E+02  0.26838559101E+02 -0.38825113247E+02  0.51853573974E+02  0.00000000000E+00 0.  1.
         -2    1    1    2    0  502 -0.21565690242E+02  0.63742352102E+02 -0.11363127203E+03  0.13206147217E+03  0.00000000000E+00 0.  1.
<scales pt_clust_5="13000.00000" pt_clust_6="13000.00000" pt_clust_7="13000.00000" pt_clust_8="13000.00000" pt_clust_9="67.29169"></scales>
<clustering>
<clus scale="   67.292">  1  9  2 -1</clus>
<clus scale="   79.540">  5  6 -1 -1</clus>
<clus scale="   91.176">  7  8 -1 -1</clus>
<clus scale="   91.942">  2  5  1 -1</clus>
<clus scale="   67.292">  1  5  2 -1</clus>
</clustering>
</event>
<event>
 9    2  0.3745229E-005  0.1890772E+03  0.7546771E-02  0.1164893E+00
         21   -1    0    0  501  502  0.00000000000E+00  0.00000000000E+00  0.13913974341E+03  0.13913974341E+03  0.00000000000E+00 0.  1.
         -1   -1    0    0    0  501 -0.00000000000E+00 -0.00000000000E+00 -0.40296981736E+03  0.40296981736E+03  0.00000000000E+00 0.  1.
         23    2    1    2    0    0  0.14180022747E+03  0.18522973909E+02 -0.69130843149E+02  0.19860635579E+03  0.11922670008E+03 0.  0.
         24    2    1    2    0    0 -0.15203868100E+03  0.28898121780E+02 -0.35109994042E+02  0.17670299293E+03  0.77719843464E+02 0.  0.
        -13    1    4    4    0    0 -0.43863746096E+02  0.43714504902E+02  0.27343963016E+00  0.61927868764E+02  0.00000000000E+00 0.  1.
         14    1    4    4    0    0 -0.10817493490E+03 -0.14816383122E+02 -0.35383433672E+02  0.11477512417E+03  0.00000000000E+00 0. -1.
        -13    1    3    3    0    0  0.17605802086E+02  0.47314555729E+02  0.56586817713E+01  0.50800119392E+02  0.00000000000E+00 0. -1.
         13    1    3    3    0    0  0.12419442538E+03 -0.28791581819E+02 -0.74789524920E+02  0.14780623640E+03  0.00000000000E+00 0.  1.
         -2    1    1    2    0  502  0.10238453528E+02 -0.47421095689E+02 -0.15958923676E+03  0.16680021204E+03  0.00000000000E+00 0.  1.
<scales pt_clust_5="13000.00000" pt_clust_6="13000.00000" pt_clust_7="13000.00000" pt_clust_8="13000.00000" pt_clust_9="48.51380"></scales>
<clustering>
<clus scale="   48.514">  1  9  2 -1</clus>
<clus scale="   77.720">  5  6 -1 -1</clus>
<clus scale="  119.227">  7  8 -1 -1</clus>
<clus scale="  166.059">  1  5  2 -1</clus>
<clus scale="   48.514">  1  5  2 -1</clus>
</clustering>
</event>
<event>
 9    2  0.3745229E-005  0.1105336E+03  0.7546771E-02  0.1264101E+00
         21   -1    0    0  501  502  0.00000000000E+00  0.00000000000E+00  0.42561710554E+02  0.42561710554E+02  0.00000000000E+00 0.  1.
         -3   -1    0    0    0  501 -0.00000000000E+00 -0.00000000000E+00 -0.35759581995E+03  0.35759581995E+03  0.00000000000E+00 0.  1.
         23    2    1    2    0    0 -0.39384731979E+02  0.55563007957E+02 -0.22881100296E+03  0.25598740711E+03  0.92394115376E+02 0.  0.
         24    2    1    2    0    0  0.30828552114E+02 -0.36031710877E+02 -0.65433934170E+02  0.11438976976E+03  0.80961323294E+02 0.  0.
        -11    1    4    4    0    0  0.56971831767E+02 -0.23213854307E+02 -0.29753590945E+02  0.68337023792E+02  0.00000000000E+00 0.  1.
         12    1    4    4    0    0 -0.26143279653E+02 -0.12817856570E+02 -0.35680343225E+02  0.46052745963E+02  0.00000000000E+00 0. -1.
        -11    1    3    3    0    0  0.30236134407E+02  0.17208483993E+02 -0.81108300954E+02  0.88254814197E+02  0.00000000000E+00 0.  1.
         11    1    3    3    0    0 -0.69620866387E+02  0.38354523964E+02 -0.14770270201E+03  0.16773259291E+03  0.00000000000E+00 0. -1.
         -4    1    1    2    0  502  0.85561798653E+01 -0.19531297080E+02 -0.20789172270E+02  0.29780353644E+02  0.00000000000E+00 0.  1.
<scales pt_clust_5="13000.00000" pt_clust_6="13000.00000" pt_clust_7="13000.00000" pt_clust_8="13000.00000" pt_clust_9="21.32322"></scales>
<clustering>
<clus scale="   21.323">  1  9  2 -1</clus>
<clus scale="   80.961">  5  6 -1 -1</clus>
<clus scale="   92.394">  7  8 -1 -1</clus>
<clus scale="  101.172">  1  5  2 -1</clus>
<clus scale="   21.323">  1  5  2 -1</clus>
</clustering>
</event>
<event>
 9    2  0.3745229E-005  0.9406380E+02  0.7546771E-02  0.1297796E+00
          2   -1    0    0  502    0 -0.00000000000E+00  0.00000000000E+00  0.31443792311E+03  0.31443792311E+03  0.00000000000E+00 0. -1.
         21   -1    0    0  501  502  0.00000000000E+00 -0.00000000000E+00 -0.24093820533E+03  0.24093820533E+03  0.00000000000E+00 0. -1.
         23    2    1    2    0    0 -0.15964256411E+02  0.28011953808E+02  0.27759427288E+03  0.29336894471E+03  0.89259343174E+02 0.  0.
         24    2    1    2    0    0  0.65436388630E+01 -0.81953406723E+01 -0.31145587165E+02  0.87671898431E+02  0.81279341510E+02 0.  0.
        -13    1    4    4    0    0  0.41114000327E+02 -0.16574943824E+02 -0.75023138458E+01  0.44959698605E+02  0.00000000000E+00 0.  1.
         14    1    4    4    0    0 -0.34570361464E+02  0.83796031521E+01 -0.23643273320E+02  0.42712199826E+02  0.00000000000E+00 0. -1.
        -11    1    3    3    0    0 -0.35606263537E+02 -0.12304479795E+02  0.20191881319E+03  0.20540305096E+03  0.00000000000E+00 0. -1.
         11    1    3    3    0    0  0.19642007126E+02  0.40316433604E+02  0.75675459694E+02  0.87965893745E+02  0.00000000000E+00 0.  1.
          1    1    1    2  501    0  0.94206175478E+01 -0.19816613136E+02 -0.17294896794E+03  0.17433528530E+03  0.00000000000E+00 0. -1.
<scales pt_clust_5="13000.00000" pt_clust_6="13000.00000" pt_clust_7="13000.00000" pt_clust_8="13000.00000" pt_clust_9="21.94188"></scales>
<clustering>
<clus scale="   21.942">  2  9  1 -1</clus>
<clus scale="   81.279">  5  6 -1 -1</clus>
<clus scale="   86.528">  2  5  1 -1</clus>
<clus scale="   89.259">  7  8 -1 -1</clus>
<clus scale="   21.942">  2  5  1 -1</clus>
</clustering>
</event>
<event>
 9    2  0.3745229E-005  0.1388672E+03  0.7546771E-02  0.1217261E+00
         21   -1    0    0  501  502  0.00000000000E+00  0.00000000000E+00  0.38073583758E+02  0.38073583758E+02  0.00000000000E+00 0. -1.
          2   -1    0    0  502    0 -0.00000000000E+00 -0.00000000000E+00 -0.11464425092E+04  0.11464425092E+04  0.00000000000E+00 0. -1.
         24    2    1    2    0    0 -0.86041982235E+02 -0.45532334939E+02 -0.71144816432E+03  0.72264352753E+03  0.81109562600E+02 0.  0.
         23    2    1    2    0    0  0.89252843977E+02  0.89640026746E+02 -0.38580002137E+03  0.41627137071E+03  0.91862903451E+02 0.  0.
        -11    1    3    3    0    0  0.14608354181E+01 -0.20172795207E+02 -0.37873502499E+02  0.42935741500E+02  0.00000000000E+00 0.  1.
         12    1    3    3    0    0 -0.87502817653E+02 -0.25359539731E+02 -0.67357466182E+03  0.67970778603E+03  0.00000000000E+00 0. -1.
        -11    1    4    4    0    0  0.50834446523E+02  0.33381873960E+02 -0.67896912354E+02  0.91150870372E+02  0.00000000000E+00 0.  1.
         11    1    4    4    0    0  0.38418397454E+02  0.56258152786E+02 -0.31790310901E+03  0.32512050033E+03  0.00000000000E+00 0. -1.
          1    1    1    2  501    0 -0.32108617417E+01 -0.44107691808E+02 -0.11120739799E+02  0.45601194759E+02  0.00000000000E+00 0. -1.
<scales pt_clust_5="13000.00000" pt_clust_6="13000.00000" pt_clust_7="13000.00000" pt_clust_8="13000.00000" pt_clust_9="44.22441"></scales>
<clustering>
<clus scale="   44.224">  1  9  2 -1</clus>
<clus scale="   81.110">  5  6 -1 -1</clus>
<clus scale="   91.863">  7  8 -1 -1</clus>
<clus scale="  132.000">  2  5  1 -1</clus>
<clus scale="   44.224">  1  5  2 -1</clus>
</clustering>
</event>
<event>
 9    2  0.3745229E-005  0.9519712E+02  0.7546771E-02  0.1291406E+00
          2   -1    0    0  502    0 -0.00000000000E+00  0.00000000000E+00  0.27565282451E+03  0.27565282451E+03  0.00000000000E+00 0. -1.
         21   -1    0    0  501  502  0.00000000000E+00 -0.00000000000E+00 -0.30148360475E+03  0.30148360475E+03  0.00000000000E+00 0. -1.
         24    2    1    2    0    0 -0.33873806958E+02  0.40516809704E+02  0.12122308766E+03  0.15521053069E+03  0.81278688402E+02 0.  0.
         23    2    1    2    0    0 -0.28685217870E+02 -0.54507191953E+02  0.11366367611E+03  0.15344312419E+03  0.82652800282E+02 0.  0.
        -13    1    3    3    0    0 -0.26908734650E+02 -0.17238791218E+02  0.17880677559E+02  0.36619319397E+02  0.00000000000E+00 0.  1.
         14    1    3    3    0    0 -0.69650723082E+01  0.57755600922E+02  0.10334241010E+03  0.11859121129E+03  0.00000000000E+00 0. -1.
        -11    1    4    4    0    0 -0.52943125808E+02 -0.12481329591E+02  0.55790351312E+02  0.77918684911E+02  0.00000000000E+00 0. -1.
         11    1    4    4    0    0  0.24257907938E+02 -0.42025862362E+02  0.57873324800E+02  0.75524439278E+02  0.00000000000E+00 0.  1.
          1    1    1    2  501    0  0.62559024829E+02  0.13990382249E+02 -0.26071754401E+03  0.26848277438E+03  0.00000000000E+00 0. -1.
<scales pt_clust_5="13000.00000" pt_clust_6="13000.00000" pt_clust_7="13000.00000" pt_clust_8="13000.00000" pt_clust_9="64.10431"></scales>
<clustering>
<clus scale="   64.104">  2  9  1 -1</clus>
<clus scale="   81.279">  5  6 -1 -1</clus>
<clus scale="   82.653">  7  8 -1 -1</clus>
<clus scale="   94.007">  1  5  2 -1</clus>
<clus scale="   64.104">  2  5  1 -1</clus>
</clustering>
</event>
<event>
 9    2  0.3745229E-005  0.9201374E+02  0.7546771E-02  0.1304240E+00
          2   -1    0    0  502    0 -0.00000000000E+00  0.00000000000E+00  0.46400968699E+02  0.46400968699E+02  0.00000000000E+00 0. -1.
         21   -1    0    0  501  502  0.00000000000E+00 -0.00000000000E+00 -0.30040185393E+03  0.30040185393E+03  0.00000000000E+00 0.  1.
         23    2    1    2    0    0  0.68750069550E+01  0.13015399596E+01 -0.36895592997E+02  0.98623208437E+02  0.91193709942E+02 0.  0.
         24    2    1    2    0    0 -0.14876600294E+02  0.27985380831E+02 -0.13546918559E+03  0.16108080172E+03  0.81182693124E+02 0.  0.
        -11    1    4    4    0    0 -0.10609136056E+02  0.34816189877E+02 -0.14448063871E+03  0.14899454959E+03  0.00000000000E+00 0.  1.
         12    1    4    4    0    0 -0.42674642377E+01 -0.68308090456E+01  0.90114531220E+01  0.12086252132E+02  0.00000000000E+00 0. -1.
        -13    1    3    3    0    0  0.45419682794E+02 -0.45878416268E+00 -0.26919616079E+00  0.45422797520E+02  0.00000000000E+00 0. -1.
         13    1    3    3    0    0 -0.38544675839E+02  0.17603241223E+01 -0.36626396836E+02  0.53200410917E+02  0.00000000000E+00 0.  1.
          1    1    1    2  501    0  0.80015933385E+01 -0.29286920791E+02 -0.81636106648E+02  0.87098812472E+02  0.00000000000E+00 0. -1.
<scales pt_clust_5="13000.00000" pt_clust_6="13000.00000" pt_clust_7="13000.00000" pt_clust_8="13000.00000" pt_clust_9="30.36032"></scales>
<clustering>
<clus scale="   30.360">  2  9  1 -1</clus>
<clus scale="   81.183">  5  6 -1 -1</clus>
<clus scale="   82.103">  2  5  1 -1</clus>
<clus scale="   91.194">  7  8 -1 -1</clus>
<clus scale="   30.360">  2  5  1 -1</clus>
</clustering>
</event>
<event>
 9    2  0.3745229E-005  0.1366554E+03  0.7546771E-02  0.1220124E+00
          2   -1    0    0  502    0 -0.00000000000E+00  0.00000000000E+00  0.62159902809E+03  0.62159902809E+03  0.00000000000E+00 0. -1.
         21   -1    0    0  501  502  0.00000000000E+00 -0.00000000000E+00 -0.79660913701E+02  0.79660913701E+02  0.00000000000E+00 0. -1.
         23    2    1    2    0    0 -0.36716498670E+02 -0.12666670128E+03  0.35948480811E+03  0.39342089306E+03  0.90322297029E+02 0.  0.
         24    2    1    2    0    0  0.69920884876E+02  0.48997908087E+02  0.18967201899E+03  0.22306238619E+03  0.80570641091E+02 0.  0.
        -11    1    4    4    0    0  0.45034690688E+02  0.59137518885E+02  0.76196860298E+02  0.10644872486E+03  0.00000000000E+00 0.  1.
         12    1    4    4    0    0  0.24886194188E+02 -0.10139610798E+02  0.11347515869E+03  0.11661366132E+03  0.00000000000E+00 0. -1.
        -13    1    3    3    0    0  0.22190615508E+02 -0.69172802924E+02  0.21738156374E+03  0.22919870055E+03  0.00000000000E+00 0. -1.
         13    1    3    3    0    0 -0.58907114179E+02 -0.57493898358E+02  0.14210324438E+03  0.16422219251E+03  0.00000000000E+00 0.  1.
          1    1    1    2  501    0 -0.33204386205E+02  0.77668793195E+02 -0.72187127114E+01  0.84776662548E+02  0.00000000000E+00 0. -1.
<scales pt_clust_5="13000.00000" pt_clust_6="13000.00000" pt_clust_7="13000.00000" pt_clust_8="13000.00000" pt_clust_9="84.46877"></scales>
<clustering>
<clus scale="   80.571">  5  6 -1 -1</clus>
<clus scale="   84.469">  2  9  1 -1</clus>
<clus scale="   90.322">  7  8 -1 -1</clus>
<clus scale="  130.415">  2  5  1 -1</clus>
<clus scale="   84.469">  2  5  1 -1</clus>
</clustering>
</event>
<event>
 9    2  0.3745229E-005  0.1533700E+03  0.7546771E-02  0.1214226E+00
          2   -1    0    0  502    0 -0.00000000000E+00  0.00000000000E+00  0.65827389048E+03  0.65827389048E+03  0.00000000000E+00 0. -1.
         21   -1    0    0  501  502  0.00000000000E+00 -0.00000000000E+00 -0.10574829972E+03  0.10574829972E+03  0.00000000000E+00 0.  1.
         23    2    1    2    0    0 -0.39973919518E+02  0.27629632274E+02  0.24105550294E+03  0.26272301476E+03  0.92489546268E+02 0.  0.
         24    2    1    2    0    0 -0.93112937359E+02 -0.53810361978E+02  0.33760571765E+03  0.36316658252E+03  0.79666629820E+02 0.  0.
        -13    1    4    4    0    0 -0.75835928606E+02 -0.74471490079E+02  0.28244644829E+03  0.30178317888E+03  0.00000000000E+00 0.  1.
         14    1    4    4    0    0 -0.17277008753E+02  0.20661128102E+02  0.55159269359E+02  0.61383403637E+02  0.00000000000E+00 0. -1.
        -11    1    3    3    0    0 -0.37523575691E+02 -0.27526807394E+02  0.81056250301E+02  0.93465820334E+02  0.00000000000E+00 0. -1.
         11    1    3    3    0    0 -0.24503438266E+01  0.55156439668E+02  0.15999925263E+03  0.16925719443E+03  0.00000000000E+00 0.  1.
          1    1    1    2  501    0  0.13308685688E+03  0.26180729704E+02 -0.26135629832E+02  0.13813259292E+03  0.00000000000E+00 0. -1.
<scales pt_clust_5="13000.00000" pt_clust_6="13000.00000" pt_clust_7="13000.00000" pt_clust_8="13000.00000" pt_clust_9="131.05562"></scales>
<clustering>
<clus scale="   79.667">  5  6 -1 -1</clus>
<clus scale="   92.490">  7  8 -1 -1</clus>
<clus scale="  104.478">  1  7  2 -1</clus>
<clus scale="  131.056">  2  9  1 -1</clus>
<clus scale="  131.056">  2  5  1 -1</clus>
</clustering>
</event>
<event>
 9    2  0.3745229E-005  0.1198886E+03  0.7546771E-02  0.1252559E+00
         21   -1    0    0  501  502  0.00000000000E+00  0.00000000000E+00  0.32983432015E+03  0.32983432015E+03  0.00000000000E+00 0.  1.
          4   -1    0    0  502    0 -0.00000000000E+00 -0.00000000000E+00 -0.15579836878E+03  0.15579836878E+03  0.00000000000E+00 0. -1.
         23    2    1    2    0    0 -0.61683190347E+02  0.39845395943E+02 -0.10061534686E+03  0.15562470482E+03  0.93290563170E+02 0.  0.
         24    2    1    2    0    0  0.61137262558E+02 -0.77818622449E+02  0.26581802428E+03  0.29101707880E+03  0.65101576388E+02 0.  0.
        -13    1    4    4    0    0  0.34347678233E+02 -0.80042619867E+02  0.23203222698E+03  0.24784176071E+03  0.00000000000E+00 0.  1.
         14    1    4    4    0    0  0.26789584325E+02  0.22239974178E+01  0.33785797297E+02  0.43175318086E+02  0.00000000000E+00 0. -1.
        -13    1    3    3    0    0  0.24887553981E+01 -0.21123025126E+02  0.45360307597E+00  0.21273971178E+02  0.00000000000E+00 0.  1.
         13    1    3    3    0    0 -0.64171945746E+02  0.60968421069E+02 -0.10106894994E+03  0.13435073364E+03  0.00000000000E+00 0. -1.
          3    1    1    2  501    0  0.54592778977E+00  0.37973226506E+02  0.88332739518E+01  0.38990905313E+02  0.00000000000E+00 0. -1.
<scales pt_clust_5="13000.00000" pt_clust_6="13000.00000" pt_clust_7="13000.00000" pt_clust_8="13000.00000" pt_clust_9="37.97717"></scales>
<clustering>
<clus scale="   37.977">  1  9  2 -1</clus>
<clus scale="   65.102">  5  6 -1 -1</clus>
<clus scale="   93.291">  7  8 -1 -1</clus>
<clus scale="   99.541">  1  5  2 -1</clus>
<clus scale="   37.977">  1  5  2 -1</clus>
</clustering>
</event>
<event>
 9    2  0.3745229E-005  0.1527256E+03  0.7546771E-02  0.1199192E+00
          2   -1    0    0  502    0 -0.00000000000E+00  0.00000000000E+00  0.37332458279E+03  0.37332458279E+03  0.00000000000E+00 0. -1.
         21   -1    0    0  501  502  0.00000000000E+00 -0.00000000000E+00 -0.14169857118E+03  0.14169857118E+03  0.00000000000E+00 0. -1.
         24    2    1    2    0    0 -0.52985678403E+02  0.11894340232E+03  0.19109196866E+03  0.24475112208E+03  0.80199477568E+02 0.  0.
         23    2    1    2    0    0  0.47153287101E+02 -0.76085135388E+02 -0.73914892351E+02  0.14792250544E+03  0.91680292277E+02 0.  0.
        -11    1    3    3    0    0 -0.65417135392E+02  0.12230263515E+03  0.18269013159E+03  0.22937528277E+03  0.00000000000E+00 0.  1.
         12    1    3    3    0    0  0.12431456990E+02 -0.33592328362E+01  0.84018370715E+01  0.15375839304E+02  0.00000000000E+00 0. -1.
        -13    1    4    4    0    0  0.36073199134E+02 -0.96412561797E+02 -0.69891039646E+02  0.12442433520E+03  0.00000000000E+00 0. -1.
         13    1    4    4    0    0  0.11080087966E+02  0.20327426409E+02 -0.40238527059E+01  0.23498170234E+02  0.00000000000E+00 0.  1.
          1    1    1    2  501    0  0.58323913023E+01 -0.42858266927E+02  0.11444893531E+03  0.12234952646E+03  0.00000000000E+00 0. -1.
<scales pt_clust_5="13000.00000" pt_clust_6="13000.00000" pt_clust_7="13000.00000" pt_clust_8="13000.00000" pt_clust_9="43.25332"></scales>
<clustering>
<clus scale="   43.253">  2  9  1 -1</clus>
<clus scale="   80.199">  5  6 -1 -1</clus>
<clus scale="   91.680">  7  8 -1 -1</clus>
<clus scale="  146.122">  1  5  2 -1</clus>
<clus scale="   43.253">  2  5  1 -1</clus>
</clustering>
</event>
<event>
 9    2  0.3745229E-005  0.1147406E+03  0.7546771E-02  0.1259240E+00
         -1   -1    0    0    0  501 -0.00000000000E+00  0.00000000000E+00  0.27890629379E+03  0.27890629379E+03  0.00000000000E+00 0.  1.
         21   -1    0    0  501  502  0.00000000000E+00 -0.00000000000E+00 -0.12362965995E+03  0.12362965995E+03  0.00000000000E+00 0. -1.
         23    2    1    2    0    0  0.35151225146E+02  0.23251399187E+02 -0.34648168435E+02  0.10534850258E+03  0.90119782657E+02 0.  0.
         24    2    1    2    0    0  0.65845131401E+02  0.16539554876E+02  0.42757148342E+02  0.11431617833E+03  0.81430195197E+02 0.  0.
        -11    1    4    4    0    0  0.34139629671E+02 -0.24665133342E+02  0.45818415263E+02  0.62235121066E+02  0.00000000000E+00 0.  1.
         12    1    4    4    0    0  0.31705501730E+02  0.41204688217E+02 -0.30612669213E+01  0.52081057268E+02  0.00000000000E+00 0. -1.
        -11    1    3    3    0    0  0.38028967650E+02 -0.28582797679E+02 -0.16785466761E+02  0.50447305162E+02  0.00000000000E+00 0. -1.
         11    1    3    3    0    0 -0.28777425045E+01  0.51834196866E+02 -0.17862701675E+02  0.54901197416E+02  0.00000000000E+00 0.  1.
         -2    1    1    2    0  502 -0.10099635655E+03 -0.39790954062E+02  0.14716765393E+03  0.18287127283E+03  0.00000000000E+00 0.  1.
<scales pt_clust_5="13000.00000" pt_clust_6="13000.00000" pt_clust_7="13000.00000" pt_clust_8="13000.00000" pt_clust_9="80.83646"></scales>
<clustering>
<clus scale="   81.430">  5  6 -1 -1</clus>
<clus scale="   90.120">  7  8 -1 -1</clus>
<clus scale="   99.488">  1  7  2 -1</clus>
<clus scale="   80.836">  2  9  1 -1</clus>
<clus scale="   80.836">  2  5  1 -1</clus>
</clustering>
</event>
<event>
 9    2  0.3745229E-005  0.1605234E+03  0.7546771E-02  0.1190130E+00
         21   -1    0    0  501  502  0.00000000000E+00  0.00000000000E+00  0.10667726549E+03  0.10667726549E+03  0.00000000000E+00 0.  1.
         -1   -1    0    0    0  501 -0.00000000000E+00 -0.00000000000E+00 -0.58314843716E+03  0.58314843716E+03  0.00000000000E+00 0.  1.
         23    2    1    2    0    0 -0.40870765882E+02 -0.13402830877E+03 -0.33119304067E+03  0.37121711922E+03  0.92083181719E+02 0.  0.
         24    2    1    2    0    0  0.24310719183E+02  0.11944086386E+03 -0.20706770763E+03  0.25299623340E+03  0.79201815282E+02 0.  0.
        -11    1    4    4    0    0 -0.13120203721E+01  0.60886221512E+02 -0.16651305998E+03  0.17730045829E+03  0.00000000000E+00 0.  1.
         12    1    4    4    0    0  0.25622739555E+02  0.58554642346E+02 -0.40554647652E+02  0.75695775105E+02  0.00000000000E+00 0. -1.
        -13    1    3    3    0    0  0.13312779721E+02 -0.48117343413E+02 -0.43840334604E+02  0.66441581703E+02  0.00000000000E+00 0.  1.
         13    1    3    3    0    0 -0.54183545602E+02 -0.85910965355E+02 -0.28735270607E+03  0.30477553752E+03  0.00000000000E+00 0. -1.
         -2    1    1    2    0  502  0.16560046698E+02  0.14587444910E+02  0.61789576632E+02  0.65612350027E+02  0.00000000000E+00 0.  1.
<scales pt_clust_5="13000.00000" pt_clust_6="13000.00000" pt_clust_7="13000.00000" pt_clust_8="13000.00000" pt_clust_9="22.06873"></scales>
<clustering>
<clus scale="   22.069">  1  9  2 -1</clus>
<clus scale="   79.202">  5  6 -1 -1</clus>
<clus scale="   92.083">  7  8 -1 -1</clus>
<clus scale="  153.497">  1  5  2 -1</clus>
<clus scale="   22.069">  1  5  2 -1</clus>
</clustering>
</event>
<event>
 9    2  0.3745229E-005  0.1005377E+03  0.7546771E-02  0.1284078E+00
          2   -1    0    0  502    0 -0.00000000000E+00  0.00000000000E+00  0.80916605797E+02  0.80916605797E+02  0.00000000000E+00 0. -1.
         21   -1    0    0  501  502  0.00000000000E+00 -0.00000000000E+00 -0.29344085131E+03  0.29344085131E+03  0.00000000000E+00 0. -1.
         23    2    1    2    0    0  0.27176362631E+02  0.27484760098E+02 -0.12894438941E+02  0.99452088789E+02  0.90722018746E+02 0.  0.
         24    2    1    2    0    0 -0.70916006419E+01 -0.53376459756E+02 -0.29139103025E+02  0.10129414238E+03  0.80697451632E+02 0.  0.
        -11    1    4    4    0    0 -0.99179121367E+01 -0.74773589591E+02 -0.22846873171E+02  0.78812653141E+02  0.00000000000E+00 0.  1.
         12    1    4    4    0    0  0.28263114948E+01  0.21397129836E+02 -0.62922298547E+01  0.22481489239E+02  0.00000000000E+00 0. -1.
        -11    1    3    3    0    0  0.15293697963E+01  0.39124957382E+02 -0.43047588439E+02  0.58191031375E+02  0.00000000000E+00 0.  1.
         11    1    3    3    0    0  0.25646992835E+02 -0.11640197283E+02  0.30153149498E+02  0.41261057414E+02  0.00000000000E+00 0. -1.
          1    1    1    2  501    0 -0.20084761989E+02  0.25891699657E+02 -0.17049070355E+03  0.17361122594E+03  0.00000000000E+00 0. -1.
<scales pt_clust_5="13000.00000" pt_clust_6="13000.00000" pt_clust_7="13000.00000" pt_clust_8="13000.00000" pt_clust_9="32.76855"></scales>
<clustering>
<clus scale="   32.769">  2  9  1 -1</clus>
<clus scale="   80.697">  5  6 -1 -1</clus>
<clus scale="   90.722">  7  8 -1 -1</clus>
<clus scale="   91.594">  2  5  1 -1</clus>
<clus scale="   32.769">  2  5  1 -1</clus>
</clustering>
</event>
<event>
 9    2  0.3745229E-005  0.9014760E+02  0.7546771E-02  0.1309280E+00
         -3   -1    0    0    0  501 -0.00000000000E+00  0.00000000000E+00  0.32815112536E+03  0.32815112536E+03  0.00000000000E+00 0.  1.
         21   -1    0    0  501  502  0.00000000000E+00 -0.00000000000E+00 -0.13875714153E+03  0.13875714153E+03  0.00000000000E+00 0.  1.
         23    2    1    2    0    0 -0.23269679227E+02 -0.12044565550E+02  0.23442731399E+03  0.25203462319E+03  0.88762245412E+02 0.  0.
         24    2    1    2    0    0 -0.45519425903E+02  0.20076158012E+02  0.43653734230E+02  0.10234878932E+03  0.78067636755E+02 0.  0.
        -13    1    4    4    0    0 -0.63348413832E+02 -0.29379844129E+01  0.31368523848E+02  0.70750530569E+02  0.00000000000E+00 0.  1.
         14    1    4    4    0    0  0.17828987929E+02  0.23014142425E+02  0.12285210382E+02  0.31598258753E+02  0.00000000000E+00 0. -1.
        -13    1    3    3    0    0 -0.32454130724E+02  0.31827805721E+02  0.90262802148E+02  0.10106262054E+03  0.00000000000E+00 0.  1.
         13    1    3    3    0    0  0.91844514973E+01 -0.43872371271E+02  0.14416451184E+03  0.15097200265E+03  0.00000000000E+00 0. -1.
         -4    1    1    2    0  502  0.68789105130E+02 -0.80315924615E+01 -0.88687064391E+02  0.11252485438E+03  0.00000000000E+00 0.  1.
<scales pt_clust_5="13000.00000" pt_clust_6="13000.00000" pt_clust_7="13000.00000" pt_clust_8="13000.00000" pt_clust_9="69.25639"></scales>
<clustering>
<clus scale="   69.256">  2  9  1 -1</clus>
<clus scale="   78.068">  5  6 -1 -1</clus>
<clus scale="   79.639">  2  5  1 -1</clus>
<clus scale="   88.762">  7  8 -1 -1</clus>
<clus scale="   69.256">  2  5  1 -1</clus>
</clustering>
</event>
<event>
 9    2  0.3745229E-005  0.1176270E+03  0.7546771E-02  0.1250766E+00
          2   -1    0    0  502    0 -0.00000000000E+00  0.00000000000E+00  0.69928739530E+03  0.69928739530E+03  0.00000000000E+00 0. -1.
         21   -1    0    0  501  502  0.00000000000E+00 -0.00000000000E+00 -0.24423029025E+02  0.24423029025E+02  0.00000000000E+00 0.  1.
         24    2    1    2    0    0  0.68604311065E+02 -0.16103390966E+02  0.38804332083E+03  0.40291050101E+03  0.82421976998E+02 0.  0.
         23    2    1    2    0    0 -0.65982194159E+02  0.36981968132E+02  0.26234289159E+03  0.28852035550E+03  0.93267823276E+02 0.  0.
        -13    1    3    3    0    0  0.38095468792E+02  0.31217935356E+02  0.13568878354E+03  0.14435120439E+03  0.00000000000E+00 0.  1.
         14    1    3    3    0    0  0.30508842274E+02 -0.47321326322E+02  0.25235453728E+03  0.25855929662E+03  0.00000000000E+00 0. -1.
        -13    1    4    4    0    0  0.67273539742E+01  0.37636772036E+02  0.43500406881E+02  0.57914327239E+02  0.00000000000E+00 0.  1.
         13    1    4    4    0    0 -0.72709548133E+02 -0.65480390355E+00  0.21884248471E+03  0.23060602826E+03  0.00000000000E+00 0. -1.
          1    1    1    2  501    0 -0.26221169060E+01 -0.20878577167E+02  0.24478153857E+02  0.32279567807E+02  0.00000000000E+00 0. -1.
<scales pt_clust_5="13000.00000" pt_clust_6="13000.00000" pt_clust_7="13000.00000" pt_clust_8="13000.00000" pt_clust_9="21.04259"></scales>
<clustering>
<clus scale="   21.043">  2  9  1 -1</clus>
<clus scale="   82.422">  5  6 -1 -1</clus>
<clus scale="   93.268">  7  8 -1 -1</clus>
<clus scale="  109.227">  1  5  2 -1</clus>
<clus scale="   21.043">  2  5  1 -1</clus>
</clustering>
</event>
<event>
 9    2  0.3745229E-005  0.9700214E+02  0.7546771E-02  0.1293452E+00
         21   -1    0    0  501  502  0.00000000000E+00  0.00000000000E+00  0.21086754817E+02  0.21086754817E+02  0.00000000000E+00 0. -1.
          2   -1    0    0  502    0 -0.00000000000E+00 -0.00000000000E+00 -0.85218225949E+03  0.85218225949E+03  0.00000000000E+00 0. -1.
         24    2    1    2    0    0  0.32343674636E+02 -0.38459233453E+02 -0.28945686864E+03  0.30450152920E+03  0.80066700655E+02 0.  0.
         23    2    1    2    0    0  0.94132703016E+01  0.54001127257E+01 -0.17341483191E+03  0.19671195452E+03  0.92223198016E+02 0.  0.
        -11    1    3    3    0    0  0.35260337048E+02  0.16642929245E+02 -0.10696156395E+03  0.11384662764E+03  0.00000000000E+00 0.  1.
         12    1    3    3    0    0 -0.29166624117E+01 -0.55102162698E+02 -0.18249530469E+03  0.19065490156E+03  0.00000000000E+00 0. -1.
        -13    1    4    4    0    0  0.16757271193E+02 -0.29064254120E+02 -0.15160005835E+03  0.15526788044E+03  0.00000000000E+00 0.  1.
         13    1    4    4    0    0 -0.73440008910E+01  0.34464366846E+02 -0.21814773557E+02  0.41444074082E+02  0.00000000000E+00 0. -1.
          1    1    1    2  501    0 -0.41756944938E+02  0.33059120727E+02 -0.36822380413E+03  0.37205553059E+03  0.00000000000E+00 0. -1.
<scales pt_clust_5="13000.00000" pt_clust_6="13000.00000" pt_clust_7="13000.00000" pt_clust_8="13000.00000" pt_clust_9="53.25928"></scales>
<clustering>
<clus scale="   53.259">  1  9  2 -1</clus>
<clus scale="   80.067">  5  6 -1 -1</clus>
<clus scale="   85.528">  2  5  1 -1</clus>
<clus scale="   92.223">  7  8 -1 -1</clus>
<clus scale="   53.259">  1  5  2 -1</clus>
</clustering>
</event>
<event>
 9    2  0.3745229E-005  0.9688070E+02  0.7546771E-02  0.1295130E+00
         -1   -1    0    0    0  501 -0.00000000000E+00  0.00000000000E+00  0.75891709695E+02  0.75891709695E+02  0.00000000000E+00 0.  1.
         21   -1    0    0  501  502  0.00000000000E+00 -0.00000000000E+00 -0.21319352645E+03  0.21319352645E+03  0.00000000000E+00 0.  1.
         24    2    1    2    0    0 -0.18390465471E+02 -0.18298233412E+01 -0.74602513719E+01  0.80968182319E+02  0.78476963014E+02 0.  0.
         23    2    1    2    0    0  0.50832591706E+02  0.32032677931E+02 -0.11906207313E+03  0.16250015528E+03  0.92846531291E+02 0.  0.
        -13    1    3    3    0    0 -0.23870348592E+02 -0.22213060119E+02 -0.33966764179E+02  0.47084547896E+02  0.00000000000E+00 0.  1.
         14    1    3    3    0    0  0.54798831206E+01  0.20383236778E+02  0.26506512807E+02  0.33883634424E+02  0.00000000000E+00 0. -1.
        -13    1    4    4    0    0 -0.25904010815E+02  0.12767142517E+02 -0.17536156875E+02  0.33786602408E+02  0.00000000000E+00 0. -1.
         13    1    4    4    0    0  0.76736602521E+02  0.19265535413E+02 -0.10152591626E+03  0.12871355287E+03  0.00000000000E+00 0.  1.
         -2    1    1    2    0  502 -0.32442126235E+02 -0.30202854589E+02 -0.10779492257E+02  0.45616898550E+02  0.00000000000E+00 0.  1.
<scales pt_clust_5="13000.00000" pt_clust_6="13000.00000" pt_clust_7="13000.00000" pt_clust_8="13000.00000" pt_clust_9="44.32500"></scales>
<clustering>
<clus scale="   44.325">  2  9  1 -1</clus>
<clus scale="   78.477">  5  6 -1 -1</clus>
<clus scale="   83.211">  1  5  2 -1</clus>
<clus scale="   92.847">  7  8 -1 -1</clus>
<clus scale="   44.325">  2  5  1 -1</clus>
</clustering>
</event>
<event>
 9    2  0.3745229E-005  0.9839518E+02  0.7546771E-02  0.1290510E+00
         -3   -1    0    0    0  501 -0.00000000000E+00  0.00000000000E+00  0.44556870195E+03  0.44556870195E+03  0.00000000000E+00 0.  1.
         21   -1    0    0  501  502  0.00000000000E+00 -0.00000000000E+00 -0.46881397643E+02  0.46881397643E+02  0.00000000000E+00 0. -1.
         24    2    1    2    0    0 -0.28509585028E+02  0.25198650438E+02  0.22396927201E+03  0.24080448799E+03  0.79854857148E+02 0.  0.
         23    2    1    2    0    0 -0.21199588916E+02 -0.38304917956E+02  0.44459706273E+02  0.11160987430E+03  0.92538690557E+02 0.  0.
        -13    1    3    3    0    0 -0.37755271134E+02 -0.19113860290E+02  0.91433590765E+02  0.10075168323E+03  0.00000000000E+00 0.  1.
         14    1    3    3    0    0  0.92456861059E+01  0.44312510728E+02  0.13253568125E+03  0.14005280476E+03  0.00000000000E+00 0. -1.
        -13    1    4    4    0    0 -0.27066137581E+02  0.12000333866E+01  0.62248776369E+02  0.67889071603E+02  0.00000000000E+00 0.  1.
         13    1    4    4    0    0  0.58665486649E+01 -0.39504951342E+02 -0.17789070096E+02  0.43720802699E+02  0.00000000000E+00 0. -1.
         -4    1    1    2    0  502  0.49709173944E+02  0.13106267518E+02  0.13025832602E+03  0.14003573729E+03  0.00000000000E+00 0.  1.
<scales pt_clust_5="13000.00000" pt_clust_6="13000.00000" pt_clust_7="13000.00000" pt_clust_8="13000.00000" pt_clust_9="51.40796"></scales>
<clustering>
<clus scale="   51.408">  2  9  1 -1</clus>
<clus scale="   79.855">  5  6 -1 -1</clus>
<clus scale="   86.574">  1  5  2 -1</clus>
<clus scale="   92.539">  7  8 -1 -1</clus>
<clus scale="   51.408">  2  5  1 -1</clus>
</clustering>
</event>
<event>
 9    2  0.5998199E-005  0.1124575E+03  0.7546771E-02  0.1258862E+00
         21   -1    0    0  501  502  0.00000000000E+00  0.00000000000E+00  0.16172561665E+03  0.16172561665E+03  0.00000000000E+00 0. -1.
          2   -1    0    0  502    0 -0.00000000000E+00 -0.00000000000E+00 -0.70495672876E+03  0.70495672876E+03  0.00000000000E+00 0. -1.
         24    2    1    2    0    0  0.70137612143E+02 -0.22741068357E+02 -0.57121155762E+03  0.58199022957E+03  0.83627405354E+02 0.  0.
         23    2    1    2    0    0 -0.34874994994E+02  0.14703633813E+02 -0.10664132214E+03  0.14529673267E+03  0.91138942357E+02 0.  0.
        -13    1    3    3    0    0  0.40542826738E+02  0.17799266207E+02 -0.11845585980E+03  0.12646076625E+03  0.00000000000E+00 0.  1.
         14    1    3    3    0    0  0.29594785404E+02 -0.40540334564E+02 -0.45275569781E+03  0.45552946332E+03  0.00000000000E+00 0. -1.
        -13    1    4    4    0    0 -0.64946884485E+02  0.12588357155E+01 -0.61829594561E+02  0.89680439535E+02  0.00000000000E+00 0.  1.
         13    1    4    4    0    0  0.30071889492E+02  0.13444798098E+02 -0.44811727583E+02  0.55616293139E+02  0.00000000000E+00 0. -1.
          1    1    1    2  501    0 -0.35262617149E+02  0.80374345433E+01  0.13462176765E+03  0.13939538317E+03  0.00000000000E+00 0. -1.
<scales pt_clust_5="13000.00000" pt_clust_6="13000.00000" pt_clust_7="13000.00000" pt_clust_8="13000.00000" pt_clust_9="36.16701"></scales>
<clustering>
<clus scale="   36.167">  1  9  2 -1</clus>
<clus scale="   83.627">  5  6 -1 -1</clus>
<clus scale="   91.139">  7  8 -1 -1</clus>
<clus scale="  106.461">  2  5  1 -1</clus>
<clus scale="   36.167">  1  5  2 -1</clus>
</clustering>
</event>
<event>
 9    2  0.3745229E-005  0.1005300E+03  0.7546771E-02  0.1283853E+00
          2   -1    0    0  502    0 -0.00000000000E+00  0.00000000000E+00  0.22494925258E+03  0.22494925258E+03  0.00000000000E+00 0. -1.
         21   -1    0    0  501  502  0.00000000000E+00 -0.00000000000E+00 -0.13846280451E+03  0.13846280451E+03  0.00000000000E+00 0.  1.
         23    2    1    2    0    0  0.17933464907E+02 -0.37466903295E+02  0.17264046133E+03  0.19969164890E+03  0.91359989837E+02 0.  0.
         24    2    1    2    0    0 -0.37522649726E+02  0.29509022176E+02 -0.23584455484E+02  0.97674866366E+02  0.81886637169E+02 0.  0.
        -11    1    4    4    0    0 -0.27605324931E+02  0.19627624158E+01 -0.50705394087E+02  0.57766282470E+02  0.00000000000E+00 0.  1.
         12    1    4    4    0    0 -0.99173247948E+01  0.27546259760E+02  0.27120938603E+02  0.39908583896E+02  0.00000000000E+00 0. -1.
        -11    1    3    3    0    0 -0.90784630576E+01  0.19669153318E+02  0.75888518642E+01  0.22953970383E+02  0.00000000000E+00 0.  1.
         11    1    3    3    0    0  0.27011927964E+02 -0.57136056613E+02  0.16505160947E+03  0.17673767851E+03  0.00000000000E+00 0. -1.
          1    1    1    2  501    0  0.19589184819E+02  0.79578811187E+01 -0.62569557784E+02  0.66045541826E+02  0.00000000000E+00 0. -1.
<scales pt_clust_5="13000.00000" pt_clust_6="13000.00000" pt_clust_7="13000.00000" pt_clust_8="13000.00000" pt_clust_9="21.14389"></scales>
<clustering>
<clus scale="   21.144">  2  9  1 -1</clus>
<clus scale="   81.887">  5  6 -1 -1</clus>
<clus scale="   91.360">  7  8 -1 -1</clus>
<clus scale="   92.006">  2  5  1 -1</clus>
<clus scale="   21.144">  2  5  1 -1</clus>
</clustering>
</event>
<event>
 9    2  0.3745229E-005  0.1083331E+03  0.7546771E-02  0.1268228E+00
          4   -1    0    0  502    0 -0.00000000000E+00  0.00000000000E+00  0.31446439215E+03  0.31446439215E+03  0.00000000000E+00 0. -1.
         21   -1    0    0  501  502  0.00000000000E+00 -0.00000000000E+00 -0.21397666823E+03  0.21397666823E+03  0.00000000000E+00 0. -1.
         24    2    1    2    0    0 -0.20436400356E+02  0.58651538897E+02  0.14005009967E+03  0.17319214463E+03  0.80770285822E+02 0.  0.
         23    2    1    2    0    0 -0.28088921750E+02 -0.56151152954E+02  0.13450647951E+03  0.17452557695E+03  0.91789130502E+02 0.  0.
        -11    1    3    3    0    0  0.15694849813E+02  0.35650713318E+02  0.11949598493E+03  0.12568449421E+03  0.00000000000E+00 0.  1.
         12    1    3    3    0    0 -0.36131250169E+02  0.23000825579E+02  0.20554114737E+02  0.47507650423E+02  0.00000000000E+00 0. -1.
        -11    1    4    4    0    0 -0.13533906925E+02 -0.80835591980E+02  0.10720353485E+03  0.13494501640E+03  0.00000000000E+00 0.  1.
         11    1    4    4    0    0 -0.14555014825E+02  0.24684439026E+02  0.27302944657E+02  0.39580560551E+02  0.00000000000E+00 0. -1.
          3    1    1    2  501    0  0.48525322106E+02 -0.25003859428E+01 -0.17406885525E+03  0.18072333879E+03  0.00000000000E+00 0. -1.
<scales pt_clust_5="13000.00000" pt_clust_6="13000.00000" pt_clust_7="13000.00000" pt_clust_8="13000.00000" pt_clust_9="48.58970"></scales>
<clustering>
<clus scale="   48.590">  2  9  1 -1</clus>
<clus scale="   80.770">  5  6 -1 -1</clus>
<clus scale="   91.789">  7  8 -1 -1</clus>
<clus scale="   99.170">  1  5  2 -1</clus>
<clus scale="   48.590">  2  5  1 -1</clus>
</clustering>
</event>
<event>
 9    2  0.3745229E-005  0.1029890E+03  0.7546771E-02  0.1279747E+00
         -1   -1    0    0    0  501 -0.00000000000E+00  0.00000000000E+00  0.12429051580E+03  0.12429051580E+03  0.00000000000E+00 0.  1.
         21   -1    0    0  501  502  0.00000000000E+00 -0.00000000000E+00 -0.41323859425E+03  0.41323859425E+03  0.00000000000E+00 0. -1.
         24    2    1    2    0    0  0.20737621533E+02  0.40671717726E+02  0.90424307435E+02  0.12920466172E+03  0.80206306885E+02 0.  0.
         23    2    1    2    0    0  0.36114687652E+01 -0.58411991599E+02 -0.21384664366E+03  0.24007948748E+03  0.92101953471E+02 0.  0.
        -11    1    3    3    0    0  0.43878836837E+02  0.43173153730E+02  0.85597532905E+02  0.10543344424E+03  0.00000000000E+00 0.  1.
         12    1    3    3    0    0 -0.23141215304E+02 -0.25014360038E+01  0.48267745301E+01  0.23771217474E+02  0.00000000000E+00 0. -1.
        -11    1    4    4    0    0  0.33603781731E+02 -0.70906435117E+01 -0.26066672115E+02  0.43115690498E+02  0.00000000000E+00 0.  1.
         11    1    4    4    0    0 -0.29992312965E+02 -0.51321348088E+02 -0.18777997155E+03  0.19696379698E+03  0.00000000000E+00 0. -1.
         -2    1    1    2    0  502 -0.24349090298E+02  0.17740273873E+02 -0.16552574222E+03  0.16824496085E+03  0.00000000000E+00 0.  1.
<scales pt_clust_5="13000.00000" pt_clust_6="13000.00000" pt_clust_7="13000.00000" pt_clust_8="13000.00000" pt_clust_9="30.12633"></scales>
<clustering>
<clus scale="   30.126">  2  9  1 -1</clus>
<clus scale="   80.206">  5  6 -1 -1</clus>
<clus scale="   92.102">  7  8 -1 -1</clus>
<clus scale="   92.504">  1  5  2 -1</clus>
<clus scale="   30.126">  2  5  1 -1</clus>
</clustering>
</event>
<event>
 9    2  0.3745229E-005  0.2084718E+03  0.7546771E-02  0.1173794E+00
          2   -1    0    0  502    0 -0.00000000000E+00  0.00000000000E+00  0.25113712775E+03  0.25113712775E+03  0.00000000000E+00 0. -1.
         21   -1    0    0  501  502  0.00000000000E+00 -0.00000000000E+00 -0.30805074019E+03  0.30805074019E+03  0.00000000000E+00 0.  1.
         23    2    1    2    0    0 -0.22837587054E+02  0.40011628687E+02 -0.78491223540E+02  0.12794978783E+03  0.89932142308E+02 0.  0.
         24    2    1    2    0    0  0.18690387129E+02 -0.21996061737E+03  0.69247180422E+02  0.24503597047E+03  0.80718344018E+02 0.  0.
        -13    1    4    4    0    0  0.16709866818E+02 -0.22251942142E+03  0.54185351414E+02  0.22963049638E+03  0.00000000000E+00 0.  1.
         14    1    4    4    0    0  0.19805203110E+01  0.25588040496E+01  0.15061829008E+02  0.15405474090E+02  0.00000000000E+00 0. -1.
        -11    1    3    3    0    0  0.26050160951E+02  0.12718818258E+02  0.29280525066E+01  0.29136793147E+02  0.00000000000E+00 0.  1.
         11    1    3    3    0    0 -0.48887748004E+02  0.27292810429E+02 -0.81419276046E+02  0.98812994682E+02  0.00000000000E+00 0. -1.
          1    1    1    2  501    0  0.41471999244E+01  0.17994898869E+03 -0.47669569317E+02  0.18620210964E+03  0.00000000000E+00 0. -1.
<scales pt_clust_5="13000.00000" pt_clust_6="13000.00000" pt_clust_7="13000.00000" pt_clust_8="13000.00000" pt_clust_9="192.21096"></scales>
<clustering>
<clus scale="   80.718">  5  6 -1 -1</clus>
<clus scale="   89.932">  7  8 -1 -1</clus>
<clus scale="  101.046">  1  7  2 -1</clus>
<clus scale="  192.211">  2  9  1 -1</clus>
<clus scale="  192.211">  2  5  1 -1</clus>
</clustering>
</event>
<event>
 9    2  0.3745229E-005  0.9686529E+02  0.7546771E-02  0.1294070E+00
         21   -1    0    0  501  502  0.00000000000E+00  0.00000000000E+00  0.95118722365E+02  0.95118722365E+02  0.00000000000E+00 0. -1.
         -3   -1    0    0    0  501 -0.00000000000E+00 -0.00000000000E+00 -0.16001419602E+03  0.16001419602E+03  0.00000000000E+00 0.  1.
         23    2    1    2    0    0 -0.34777269213E+01  0.23257133424E+02 -0.92457169716E+02  0.13255289643E+03  0.92026916061E+02 0.  0.
         24    2    1    2    0    0  0.71140773789E+01 -0.47089629653E+02  0.10689597598E+02  0.93154206296E+02  0.79343527373E+02 0.  0.
        -11    1    4    4    0    0 -0.25351039155E+02 -0.90468054038E+01 -0.20832270208E+02  0.34036794154E+02  0.00000000000E+00 0.  1.
         12    1    4    4    0    0  0.32465116534E+02 -0.38042824249E+02  0.31521867806E+02  0.59117412142E+02  0.00000000000E+00 0. -1.
        -11    1    3    3    0    0 -0.43328034188E+02  0.28981949274E+02 -0.36575315033E+02  0.63679082909E+02  0.00000000000E+00 0.  1.
         11    1    3    3    0    0  0.39850307267E+02 -0.57248158505E+01 -0.55881854683E+02  0.68873813519E+02  0.00000000000E+00 0. -1.
         -4    1    1    2    0  502 -0.36363504576E+01  0.23832496229E+02  0.16872098460E+02  0.29425815666E+02  0.00000000000E+00 0.  1.
<scales pt_clust_5="13000.00000" pt_clust_6="13000.00000" pt_clust_7="13000.00000" pt_clust_8="13000.00000" pt_clust_9="24.10832"></scales>
<clustering>
<clus scale="   24.108">  1  9  2 -1</clus>
<clus scale="   79.344">  5  6 -1 -1</clus>
<clus scale="   84.908">  1  5  2 -1</clus>
<clus scale="   92.027">  7  8 -1 -1</clus>
<clus scale="   24.108">  1  5  2 -1</clus>
</clustering>
</event>
<event>
 9    2  0.3745229E-005  0.2173663E+03  0.7546771E-02  0.1136677E+00
          2   -1    0    0  502    0 -0.00000000000E+00  0.00000000000E+00  0.49014703428E+03  0.49014703428E+03  0.00000000000E+00 0. -1.
         21   -1    0    0  501  502  0.00000000000E+00 -0.00000000000E+00 -0.23678701191E+03  0.23678701191E+03  0.00000000000E+00 0. -1.
         23    2    1    2    0    0 -0.14419597978E+03 -0.70292764825E+02  0.11338697367E+03  0.21688740404E+03  0.91923810088E+02 0.  0.
         24    2    1    2    0    0  0.18730310922E+03  0.23911158075E+03  0.69082148042E+02  0.32194151991E+03  0.81346151052E+02 0.  0.
        -13    1    4    4    0    0  0.28426401771E+02  0.31625742335E+02 -0.18436505144E+02  0.46348167362E+02  0.00000000000E+00 0.  1.
         14    1    4    4    0    0  0.15887670745E+03  0.20748583841E+03  0.87518653186E+02  0.27559335254E+03  0.00000000000E+00 0. -1.
        -11    1    3    3    0    0 -0.54624406878E+02 -0.76996639517E+02  0.48936262623E+02  0.10633468918E+03  0.00000000000E+00 0.  1.
         11    1    3    3    0    0 -0.89571572898E+02  0.67038746920E+01  0.64450711048E+02  0.11055271486E+03  0.00000000000E+00 0. -1.
          1    1    1    2  501    0 -0.43107129443E+02 -0.16881881592E+03  0.70890900660E+02  0.18810512224E+03  0.00000000000E+00 0. -1.
<scales pt_clust_5="13000.00000" pt_clust_6="13000.00000" pt_clust_7="13000.00000" pt_clust_8="13000.00000" pt_clust_9="174.23561"></scales>
<clustering>
<clus scale="   81.346">  5  6 -1 -1</clus>
<clus scale="   91.924">  7  8 -1 -1</clus>
<clus scale="  174.236">  2  9  1 -1</clus>
<clus scale="  213.109">  2  5  1 -1</clus>
<clus scale="  174.236">  2  5  1 -1</clus>
</clustering>
</event>
<event>
 9    2  0.3745229E-005  0.1061851E+03  0.7546771E-02  0.1273487E+00
         21   -1    0    0  501  502  0.00000000000E+00  0.00000000000E+00  0.22830193315E+03  0.22830193315E+03  0.00000000000E+00 0. -1.
         -1   -1    0    0    0  501 -0.00000000000E+00 -0.00000000000E+00 -0.20238858584E+03  0.20238858584E+03  0.00000000000E+00 0.  1.
         24    2    1    2    0    0 -0.24220050328E+02  0.48808927990E+02 -0.17099259556E+03  0.19618201747E+03  0.79246412872E+02 0.  0.
         23    2    1    2    0    0  0.10339900466E+02 -0.30839028877E+02  0.12264681942E+03  0.15685547035E+03  0.92214082557E+02 0.  0.
        -13    1    3    3    0    0 -0.40341463192E+02  0.49427683244E+02 -0.16808838820E+03  0.17978942063E+03  0.00000000000E+00 0.  1.
         14    1    3    3    0    0  0.16121412865E+02 -0.61875525411E+00 -0.29042073629E+01  0.16392596842E+02  0.00000000000E+00 0. -1.
        -11    1    4    4    0    0 -0.22094216524E+02  0.24878256763E+02  0.39653853233E+02  0.51763984967E+02  0.00000000000E+00 0.  1.
         11    1    4    4    0    0  0.32434116990E+02 -0.55717285640E+02  0.82992966182E+02  0.10509148538E+03  0.00000000000E+00 0. -1.
         -2    1    1    2    0  502  0.13880149862E+02 -0.17969899113E+02  0.74259123450E+02  0.77653031170E+02  0.00000000000E+00 0.  1.
<scales pt_clust_5="13000.00000" pt_clust_6="13000.00000" pt_clust_7="13000.00000" pt_clust_8="13000.00000" pt_clust_9="22.70630"></scales>
<clustering>
<clus scale="   22.706">  1  9  2 -1</clus>
<clus scale="   79.246">  5  6 -1 -1</clus>
<clus scale="   92.214">  7  8 -1 -1</clus>
<clus scale="   95.141">  2  5  1 -1</clus>
<clus scale="   22.706">  1  5  2 -1</clus>
</clustering>
</event>
<event>
 9    2  0.3745229E-005  0.1040057E+03  0.7546771E-02  0.1276758E+00
         -3   -1    0    0    0  501 -0.00000000000E+00  0.00000000000E+00  0.85191777946E+03  0.85191777946E+03  0.00000000000E+00 0.  1.
         21   -1    0    0  501  502  0.00000000000E+00 -0.00000000000E+00 -0.48189271084E+02  0.48189271084E+02  0.00000000000E+00 0.  1.
         23    2    1    2    0    0  0.12849125579E+02  0.50028675348E+02  0.48589025355E+03  0.49697200459E+03  0.90685536161E+02 0.  0.
         24    2    1    2    0    0 -0.93875731187E+02 -0.25952857334E+00  0.26971604579E+03  0.29656100695E+03  0.79931002901E+02 0.  0.
        -13    1    4    4    0    0 -0.93147044300E+02  0.26241173128E+02  0.21002958390E+03  0.23125180462E+03  0.00000000000E+00 0.  1.
         14    1    4    4    0    0 -0.72868688781E+00 -0.26500701702E+02  0.59686461897E+02  0.65309202331E+02  0.00000000000E+00 0. -1.
        -13    1    3    3    0    0  0.10650944729E+02 -0.23497987052E+02  0.69496401196E+02  0.74130613098E+02  0.00000000000E+00 0. -1.
         13    1    3    3    0    0  0.21981808499E+01  0.73526662400E+02  0.41639385235E+03  0.42284139149E+03  0.00000000000E+00 0.  1.
         -4    1    1    2    0  502  0.81026605608E+02 -0.49769146774E+02  0.48122209039E+02  0.10657403900E+03  0.00000000000E+00 0.  1.
<scales pt_clust_5="13000.00000" pt_clust_6="13000.00000" pt_clust_7="13000.00000" pt_clust_8="13000.00000" pt_clust_9="95.09090"></scales>
<clustering>
<clus scale="   79.931">  5  6 -1 -1</clus>
<clus scale="   90.686">  7  8 -1 -1</clus>
<clus scale="   95.091">  2  9  1 -1</clus>
<clus scale="   95.091">  2  5  1 -1</clus>
<clus scale="   95.091">  2  5  1 -1</clus>
</clustering>
</event>
<event>
 9    2  0.3745229E-005  0.9506937E+02  0.7546771E-02  0.1295693E+00
          2   -1    0    0  502    0 -0.00000000000E+00  0.00000000000E+00  0.17860574090E+03  0.17860574090E+03  0.00000000000E+00 0. -1.
         21   -1    0    0  501  502  0.00000000000E+00 -0.00000000000E+00 -0.16289345391E+03  0.16289345391E+03  0.00000000000E+00 0. -1.
         23    2    1    2    0    0  0.18466729297E+02 -0.12964830033E+02  0.12595987190E+03  0.15713853047E+03  0.91200446935E+02 0.  0.
         24    2    1    2    0    0 -0.20568087895E+02  0.56912458149E+02 -0.66411484833E+02  0.12225258600E+03  0.82904374643E+02 0.  0.
        -13    1    4    4    0    0  0.24236188492E+02  0.51457872216E+02 -0.30283846478E+02  0.64439248934E+02  0.00000000000E+00 0.  1.
         14    1    4    4    0    0 -0.44804276386E+02  0.54545859331E+01 -0.36127638355E+02  0.57813337071E+02  0.00000000000E+00 0. -1.
        -11    1    3    3    0    0 -0.40625914670E+01 -0.49494898600E+02  0.80768586398E+02  0.94814630651E+02  0.00000000000E+00 0.  1.
         11    1    3    3    0    0  0.22529320764E+02  0.36530068566E+02  0.45191285505E+02  0.62323899823E+02  0.00000000000E+00 0. -1.
          1    1    1    2  501    0  0.21013585979E+01 -0.43947628116E+02 -0.43836100079E+02  0.62108078340E+02  0.00000000000E+00 0. -1.
<scales pt_clust_5="13000.00000" pt_clust_6="13000.00000" pt_clust_7="13000.00000" pt_clust_8="13000.00000" pt_clust_9="43.99784"></scales>
<clustering>
<clus scale="   43.998">  2  9  1 -1</clus>
<clus scale="   82.904">  5  6 -1 -1</clus>
<clus scale="   87.142">  2  5  1 -1</clus>
<clus scale="   91.200">  7  8 -1 -1</clus>
<clus scale="   43.998">  2  5  1 -1</clus>
</clustering>
</event>
<event>
 9    2  0.3745229E-005  0.1401801E+03  0.7546771E-02  0.1216132E+00
          2   -1    0    0  502    0 -0.00000000000E+00  0.00000000000E+00  0.46889162318E+03  0.46889162318E+03  0.00000000000E+00 0. -1.
         21   -1    0    0  501  502  0.00000000000E+00 -0.00000000000E+00 -0.61805524900E+02  0.61805524900E+02  0.00000000000E+00 0. -1.
         24    2    1    2    0    0  0.11110069690E+03 -0.14288132112E+02  0.29918327605E+03  0.32929574998E+03  0.79859518662E+02 0.  0.
         23    2    1    2    0    0 -0.85628913307E+02 -0.13289481082E+02  0.61141988079E+02  0.14143547344E+03  0.93577397586E+02 0.  0.
        -11    1    3    3    0    0  0.30798217839E+02 -0.34216153105E+02  0.56407447436E+02  0.72808484956E+02  0.00000000000E+00 0.  1.
         12    1    3    3    0    0  0.80302479063E+02  0.19928020993E+02  0.24277582861E+03  0.25648726503E+03  0.00000000000E+00 0. -1.
        -11    1    4    4    0    0 -0.22212265733E+02  0.34666117106E+02  0.43694882301E+02  0.60036381999E+02  0.00000000000E+00 0.  1.
         11    1    4    4    0    0 -0.63416647574E+02 -0.47955598188E+02  0.17447105778E+02  0.81399091440E+02  0.00000000000E+00 0. -1.
          1    1    1    2  501    0 -0.25471783594E+02  0.27577613194E+02  0.46760834152E+02  0.59965924653E+02  0.00000000000E+00 0. -1.
<scales pt_clust_5="13000.00000" pt_clust_6="13000.00000" pt_clust_7="13000.00000" pt_clust_8="13000.00000" pt_clust_9="37.54115"></scales>
<clustering>
<clus scale="   37.541">  2  9  1 -1</clus>
<clus scale="   79.860">  5  6 -1 -1</clus>
<clus scale="   93.577">  7  8 -1 -1</clus>
<clus scale="  131.420">  1  5  2 -1</clus>
<clus scale="   37.541">  2  5  1 -1</clus>
</clustering>
</event>
<event>
 9    2  0.3745229E-005  0.9884596E+02  0.7546771E-02  0.1289270E+00
          2   -1    0    0  502    0 -0.00000000000E+00  0.00000000000E+00  0.19290721319E+03  0.19290721319E+03  0.00000000000E+00 0. -1.
         21   -1    0    0  501  502  0.00000000000E+00 -0.00000000000E+00 -0.18175752777E+03  0.18175752777E+03  0.00000000000E+00 0. -1.
         23    2    1    2    0    0  0.22517766984E+02  0.29712487951E+02  0.14416599648E+03  0.17574957924E+03  0.93349870334E+02 0.  0.
         24    2    1    2    0    0 -0.10593256898E+02 -0.12405729781E+02 -0.21595129788E+02  0.85529106774E+02  0.81134205191E+02 0.  0.
        -13    1    4    4    0    0 -0.46192342058E+02 -0.73862136828E+01 -0.13304330809E+02  0.48634286626E+02  0.00000000000E+00 0.  1.
         14    1    4    4    0    0  0.35599085160E+02 -0.50195160984E+01 -0.82907989783E+01  0.36894820148E+02  0.00000000000E+00 0. -1.
        -13    1    3    3    0    0  0.40727668185E+02  0.54866173121E+02  0.86281622754E+02  0.11006161154E+03  0.00000000000E+00 0. -1.
         13    1    3    3    0    0 -0.18209901201E+02 -0.25153685170E+02  0.57884373725E+02  0.65687967703E+02  0.00000000000E+00 0.  1.
          1    1    1    2  501    0 -0.11924510086E+02 -0.17306758170E+02 -0.11142118127E+03  0.11338605494E+03  0.00000000000E+00 0. -1.
<scales pt_clust_5="13000.00000" pt_clust_6="13000.00000" pt_clust_7="13000.00000" pt_clust_8="13000.00000" pt_clust_9="21.01708"></scales>
<clustering>
<clus scale="   21.017">  2  9  1 -1</clus>
<clus scale="   81.134">  5  6 -1 -1</clus>
<clus scale="   87.402">  2  5  1 -1</clus>
<clus scale="   93.350">  7  8 -1 -1</clus>
<clus scale="   21.017">  2  5  1 -1</clus>
</clustering>
</event>
<event>
 9    2  0.3745229E-005  0.1390227E+03  0.7546771E-02  0.1226173E+00
         21   -1    0    0  501  502  0.00000000000E+00  0.00000000000E+00  0.13711522314E+03  0.13711522314E+03  0.00000000000E+00 0.  1.
          2   -1    0    0  502    0 -0.00000000000E+00 -0.00000000000E+00 -0.32169480028E+03  0.32169480028E+03  0.00000000000E+00 0. -1.
         23    2    1    2    0    0  0.60038540449E+02  0.86414992421E+01  0.12642783912E+02  0.10989444070E+03  0.90761480061E+02 0.  0.
         24    2    1    2    0    0  0.77086456827E+02 -0.57435532426E+02 -0.38512461036E+02  0.13357177642E+03  0.84362595915E+02 0.  0.
        -13    1    4    4    0    0  0.73871037965E+02 -0.31434761635E+02 -0.59562638734E+02  0.99963905596E+02  0.00000000000E+00 0.  1.
         14    1    4    4    0    0  0.32154188615E+01 -0.26000770791E+02  0.21050177697E+02  0.33607870823E+02  0.00000000000E+00 0. -1.
        -13    1    3    3    0    0  0.78457435825E+02  0.21951173324E+02  0.23383152618E+02  0.84759631151E+02  0.00000000000E+00 0.  1.
         13    1    3    3    0    0 -0.18418895376E+02 -0.13309674081E+02 -0.10740368706E+02  0.25134809547E+02  0.00000000000E+00 0. -1.
          1    1    1    2  501    0 -0.13712499728E+03  0.48794033184E+02 -0.15870990002E+03  0.21534380631E+03  0.00000000000E+00 0. -1.
<scales pt_clust_5="13000.00000" pt_clust_6="13000.00000" pt_clust_7="13000.00000" pt_clust_8="13000.00000" pt_clust_9="110.50018"></scales>
<clustering>
<clus scale="   84.363">  5  6 -1 -1</clus>
<clus scale="   90.761">  7  8 -1 -1</clus>
<clus scale="  109.165">  2  7  1 -1</clus>
<clus scale="  110.500">  1  9  2 -1</clus>
<clus scale="  110.500">  1  5  2 -1</clus>
</clustering>
</event>
<event>
 9    2  0.3745229E-005  0.1898613E+03  0.7546771E-02  0.1159354E+00
          2   -1    0    0  502    0 -0.00000000000E+00  0.00000000000E+00  0.11717858174E+04  0.11717858174E+04  0.00000000000E+00 0. -1.
         21   -1    0    0  501  502  0.00000000000E+00 -0.00000000000E+00 -0.50873603576E+02  0.50873603576E+02  0.00000000000E+00 0. -1.
         23    2    1    2    0    0  0.69255035829E+02  0.12259843685E+03  0.39339622134E+03  0.42704866029E+03  0.88223208873E+02 0.  0.
         24    2    1    2    0    0 -0.14171258086E+03 -0.16298494774E+03  0.44525804439E+03  0.50141573124E+03  0.80724597683E+02 0.  0.
        -13    1    4    4    0    0 -0.20963118587E+02 -0.16510933137E+00  0.14938237654E+02  0.25741611181E+02  0.00000000000E+00 0.  1.
         14    1    4    4    0    0 -0.12074946227E+03 -0.16281983841E+03  0.43031980674E+03  0.47567412005E+03  0.00000000000E+00 0. -1.
        -13    1    3    3    0    0  0.22894528274E+02  0.88540902399E+02  0.32527860457E+03  0.33789025054E+03  0.00000000000E+00 0. -1.
         13    1    3    3    0    0  0.46360507555E+02  0.34057534451E+02  0.68117616775E+02  0.89158409748E+02  0.00000000000E+00 0.  1.
          1    1    1    2  501    0  0.72457545030E+02  0.40386510894E+02  0.28225794814E+03  0.29419502950E+03  0.00000000000E+00 0. -1.
<scales pt_clust_5="13000.00000" pt_clust_6="13000.00000" pt_clust_7="13000.00000" pt_clust_8="13000.00000" pt_clust_9="82.95284"></scales>
<clustering>
<clus scale="   80.725">  5  6 -1 -1</clus>
<clus scale="   82.953">  2  9  1 -1</clus>
<clus scale="   88.223">  7  8 -1 -1</clus>
<clus scale="  186.495">  2  5  1 -1</clus>
<clus scale="   82.953">  2  5  1 -1</clus>
</clustering>
</event>
<event>
 9    2  0.3745229E-005  0.9087543E+02  0.7546771E-02  0.1303551E+00
         -3   -1    0    0    0  501 -0.00000000000E+00  0.00000000000E+00  0.42917278774E+03  0.42917278774E+03  0.00000000000E+00 0.  1.
         21   -1    0    0  501  502  0.00000000000E+00 -0.00000000000E+00 -0.41993018901E+02  0.41993018901E+02  0.00000000000E+00 0.  1.
         23    2    1    2    0    0  0.14887775467E+02  0.14760091914E+01  0.31743630862E+03  0.33033900224E+03  0.90189921326E+02 0.  0.
         24    2    1    2    0    0  0.40806414857E+00  0.11679182419E+02  0.80402144475E+02  0.11800950119E+03  0.85587193653E+02 0.  0.
        -11    1    4    4    0    0  0.37733957996E+02  0.32338074649E+01  0.12172907807E+02  0.39780507554E+02  0.00000000000E+00 0.  1.
         12    1    4    4    0    0 -0.37325893847E+02  0.84453749545E+01  0.68229236668E+02  0.78228993640E+02  0.00000000000E+00 0. -1.
        -11    1    3    3    0    0  0.42559264368E+02 -0.26432202655E+02  0.21135258944E+03  0.21720927555E+03  0.00000000000E+00 0.  1.
         11    1    3    3    0    0 -0.27671488901E+02  0.27908211846E+02  0.10608371918E+03  0.11312972669E+03  0.00000000000E+00 0. -1.
         -4    1    1    2    0  502 -0.15295839616E+02 -0.13155191611E+02 -0.10658684252E+02  0.22817303212E+02  0.00000000000E+00 0.  1.
<scales pt_clust_5="13000.00000" pt_clust_6="13000.00000" pt_clust_7="13000.00000" pt_clust_8="13000.00000" pt_clust_9="20.17478"></scales>
<clustering>
<clus scale="   20.175">  2  9  1 -1</clus>
<clus scale="   85.587">  5  6 -1 -1</clus>
<clus scale="   86.309">  2  5  1 -1</clus>
<clus scale="   90.190">  7  8 -1 -1</clus>
<clus scale="   20.175">  2  5  1 -1</clus>
</clustering>
</event>
<event>
 9    2  0.3745229E-005  0.1240977E+03  0.7546771E-02  0.1255910E+00
         21   -1    0    0  501  502  0.00000000000E+00  0.00000000000E+00  0.10184788889E+03  0.10184788889E+03  0.00000000000E+00 0.  1.
          2   -1    0    0  502    0 -0.00000000000E+00 -0.00000000000E+00 -0.26291311967E+03  0.26291311967E+03  0.00000000000E+00 0. -1.
         23    2    1    2    0    0  0.25430934483E+02 -0.41805778566E+01 -0.23182481713E+02  0.12645837477E+03  0.12161448693E+03 0.  0.
         24    2    1    2    0    0  0.43344662619E+02 -0.37226099297E+02 -0.28387558782E+02  0.10253153095E+03  0.80264058572E+02 0.  0.
        -11    1    4    4    0    0  0.45546416855E+02 -0.49483477374E+02  0.44607887279E+01  0.67401700701E+02  0.00000000000E+00 0.  1.
         12    1    4    4    0    0 -0.22017542356E+01  0.12257378077E+02 -0.32848347510E+02  0.35129830247E+02  0.00000000000E+00 0. -1.
        -13    1    3    3    0    0  0.35480983989E+02  0.49665738425E+02  0.10816456365E+02  0.61988559641E+02  0.00000000000E+00 0. -1.
         13    1    3    3    0    0 -0.10050049506E+02 -0.53846316281E+02 -0.33998938078E+02  0.64469815127E+02  0.00000000000E+00 0.  1.
          1    1    1    2  501    0 -0.68775597102E+02  0.41406677154E+02 -0.10949519029E+03  0.13577110284E+03  0.00000000000E+00 0. -1.
<scales pt_clust_5="13000.00000" pt_clust_6="13000.00000" pt_clust_7="13000.00000" pt_clust_8="13000.00000" pt_clust_9="80.27828"></scales>
<clustering>
<clus scale="   80.264">  5  6 -1 -1</clus>
<clus scale="   80.278">  1  9  2 -1</clus>
<clus scale="   83.979">  1  5  2 -1</clus>
<clus scale="  121.614">  7  8 -1 -1</clus>
<clus scale="   80.278">  1  5  2 -1</clus>
</clustering>
</event>
<event>
 9    2  0.3745229E-005  0.1025002E+03  0.7546771E-02  0.1287142E+00
         21   -1    0    0  501  502  0.00000000000E+00  0.00000000000E+00  0.41727870968E+03  0.41727870968E+03  0.00000000000E+00 0. -1.
          4   -1    0    0  502    0 -0.00000000000E+00 -0.00000000000E+00 -0.30909631584E+02  0.30909631584E+02  0.00000000000E+00 0. -1.
         23    2    1    2    0    0  0.24697227754E+02 -0.21831478606E+01  0.14024864043E+03  0.17444135485E+03  0.10072430664E+03 0.  0.
         24    2    1    2    0    0 -0.22893957869E+01  0.24556480503E+02  0.13794116122E+03  0.16102860814E+03  0.79335909985E+02 0.  0.
        -11    1    4    4    0    0  0.19408206740E+02 -0.15563101776E+02  0.95635459402E+02  0.98818164934E+02  0.00000000000E+00 0.  1.
         12    1    4    4    0    0 -0.21697602527E+02  0.40119582280E+02  0.42305701817E+02  0.62210443206E+02  0.00000000000E+00 0. -1.
        -11    1    3    3    0    0  0.58032700300E+02 -0.14802441443E+02  0.52181305604E+02  0.79434219524E+02  0.00000000000E+00 0.  1.
         11    1    3    3    0    0 -0.33335472547E+02  0.12619293583E+02  0.88067334822E+02  0.95007135327E+02  0.00000000000E+00 0. -1.
          3    1    1    2  501    0 -0.22407831967E+02 -0.22373332643E+02  0.10817927645E+03  0.11271837827E+03  0.00000000000E+00 0. -1.
<scales pt_clust_5="13000.00000" pt_clust_6="13000.00000" pt_clust_7="13000.00000" pt_clust_8="13000.00000" pt_clust_9="31.66507"></scales>
<clustering>
<clus scale="   31.665">  1  9  2 -1</clus>
<clus scale="   79.336">  5  6 -1 -1</clus>
<clus scale="   81.579">  1  5  2 -1</clus>
<clus scale="  100.724">  7  8 -1 -1</clus>
<clus scale="   31.665">  1  5  2 -1</clus>
</clustering>
</event>
<event>
 9    2  0.3745229E-005  0.1085656E+03  0.7546771E-02  0.1267681E+00
         21   -1    0    0  501  502  0.00000000000E+00  0.00000000000E+00  0.59159657254E+02  0.59159657254E+02  0.00000000000E+00 0.  1.
          2   -1    0    0  502    0 -0.00000000000E+00 -0.00000000000E+00 -0.29774399606E+03  0.29774399606E+03  0.00000000000E+00 0. -1.
         24    2    1    2    0    0 -0.28520586762E+02 -0.46261177642E+02 -0.14841657347E+03  0.17716412242E+03  0.80038281881E+02 0.  0.
         23    2    1    2    0    0  0.62954525668E+02  0.39520392802E+02 -0.83234372779E+02  0.14397353781E+03  0.90968593636E+02 0.  0.
        -13    1    3    3    0    0  0.15576270302E+02 -0.24745393862E+02 -0.10982613877E+02  0.31234156327E+02  0.00000000000E+00 0.  1.
         14    1    3    3    0    0 -0.44096857065E+02 -0.21515783780E+02 -0.13743395959E+03  0.14592996609E+03  0.00000000000E+00 0. -1.
        -13    1    4    4    0    0 -0.13387568593E+02  0.16550564222E+02 -0.55700994649E+02  0.59630101239E+02  0.00000000000E+00 0. -1.
         13    1    4    4    0    0  0.76342094261E+02  0.22969828580E+02 -0.27533378130E+02  0.84343436570E+02  0.00000000000E+00 0.  1.
          1    1    1    2  501    0 -0.34433938906E+02  0.67407848400E+01 -0.69333925537E+01  0.35765993082E+02  0.00000000000E+00 0. -1.
<scales pt_clust_5="13000.00000" pt_clust_6="13000.00000" pt_clust_7="13000.00000" pt_clust_8="13000.00000" pt_clust_9="35.08752"></scales>
<clustering>
<clus scale="   35.088">  1  9  2 -1</clus>
<clus scale="   80.038">  5  6 -1 -1</clus>
<clus scale="   90.969">  7  8 -1 -1</clus>
<clus scale="   99.586">  2  5  1 -1</clus>
<clus scale="   35.088">  1  5  2 -1</clus>
</clustering>
</event>
<event>
 9    2  0.3745229E-005  0.1005922E+03  0.7546771E-02  0.1284428E+00
         21   -1    0    0  501  502  0.00000000000E+00  0.00000000000E+00  0.19726787159E+03  0.19726787159E+03  0.00000000000E+00 0. -1.
          2   -1    0    0  502    0 -0.00000000000E+00 -0.00000000000E+00 -0.88319239799E+02  0.88319239799E+02  0.00000000000E+00 0. -1.
         23    2    1    2    0    0 -0.92006149119E+01  0.16159888826E+02  0.50941254167E+02  0.10560114002E+03  0.90613443130E+02 0.  0.
         24    2    1    2    0    0  0.69421529098E+02 -0.24968437811E+02  0.46201107220E+02  0.11798970486E+03  0.79650841524E+02 0.  0.
        -13    1    4    4    0    0  0.19636175922E+02  0.20531915626E+02  0.41615966590E+02  0.50388765011E+02  0.00000000000E+00 0.  1.
         14    1    4    4    0    0  0.49785353176E+02 -0.45500353437E+02  0.45851406292E+01  0.67600939848E+02  0.00000000000E+00 0. -1.
        -11    1    3    3    0    0 -0.35790607356E+02  0.14695247859E+02  0.64882445332E+02  0.75542369547E+02  0.00000000000E+00 0. -1.
         11    1    3    3    0    0  0.26589992444E+02  0.14646409662E+01 -0.13941191164E+02  0.30058770474E+02  0.00000000000E+00 0.  1.
          1    1    1    2  501    0 -0.60220914186E+02  0.88085489854E+01  0.11806270408E+02  0.61996266513E+02  0.00000000000E+00 0. -1.
<scales pt_clust_5="13000.00000" pt_clust_6="13000.00000" pt_clust_7="13000.00000" pt_clust_8="13000.00000" pt_clust_9="60.86175"></scales>
<clustering>
<clus scale="   60.862">  1  9  2 -1</clus>
<clus scale="   79.651">  5  6 -1 -1</clus>
<clus scale="   90.613">  7  8 -1 -1</clus>
<clus scale="   90.842">  1  5  2 -1</clus>
<clus scale="   60.862">  1  5  2 -1</clus>
</clustering>
</event>
<event>
 9    2  0.3745229E-005  0.1133604E+03  0.7546771E-02  0.1259247E+00
          4   -1    0    0  502    0 -0.00000000000E+00  0.00000000000E+00  0.34563129629E+03  0.34563129629E+03  0.00000000000E+00 0. -1.
         21   -1    0    0  501  502  0.00000000000E+00 -0.00000000000E+00 -0.13940644803E+03  0.13940644803E+03  0.00000000000E+00 0.  1.
         23    2    1    2    0    0  0.35942236827E+02  0.14784996668E+02  0.47945549468E+02  0.11100717311E+03  0.92267958981E+02 0.  0.
         24    2    1    2    0    0 -0.69839866945E+02 -0.14879916969E+02 -0.69521764419E+02  0.14372125151E+03  0.10355435029E+03 0.  0.
        -13    1    4    4    0    0 -0.45196535066E+02  0.41557628132E+02 -0.49804654509E+02  0.79058629185E+02  0.00000000000E+00 0.  1.
         14    1    4    4    0    0 -0.24643331879E+02 -0.56437545100E+02 -0.19717109910E+02  0.64662622327E+02  0.00000000000E+00 0. -1.
        -11    1    3    3    0    0 -0.13298162017E+02  0.39677906152E+02  0.34456524639E+02  0.54207282166E+02  0.00000000000E+00 0. -1.
         11    1    3    3    0    0  0.49240398845E+02 -0.24892909484E+02  0.13489024829E+02  0.56799890949E+02  0.00000000000E+00 0.  1.
          3    1    1    2  501    0  0.33897630118E+02  0.94920300911E-01  0.22780106321E+03  0.23030931969E+03  0.00000000000E+00 0. -1.
<scales pt_clust_5="13000.00000" pt_clust_6="13000.00000" pt_clust_7="13000.00000" pt_clust_8="13000.00000" pt_clust_9="33.89778"></scales>
<clustering>
<clus scale="   33.898">  2  9  1 -1</clus>
<clus scale="   92.268">  7  8 -1 -1</clus>
<clus scale="  103.153">  1  7  2 -1</clus>
<clus scale="  103.554">  5  6 -1 -1</clus>
<clus scale="   33.898">  2  5  1 -1</clus>
</clustering>
</event>
<event>
 9    2  0.3745229E-005  0.5599962E+03  0.7546771E-02  0.9992063E-01
          2   -1    0    0  502    0 -0.00000000000E+00  0.00000000000E+00  0.20249364988E+04  0.20249364988E+04  0.00000000000E+00 0. -1.
         21   -1    0    0  501  502  0.00000000000E+00 -0.00000000000E+00 -0.14096723032E+03  0.14096723032E+03  0.00000000000E+00 0. -1.
         24    2    1    2    0    0 -0.42664136300E+03 -0.11684646822E+03  0.91962066666E+03  0.10236438589E+04  0.80427791158E+02 0.  0.
         23    2    1    2    0    0 -0.52213629979E+02  0.22563332434E+02  0.29523023090E+03  0.31406254571E+03  0.90769082054E+02 0.  0.
        -11    1    3    3    0    0 -0.45881682258E+02  0.13533670487E+01  0.55769371427E+02  0.72230071013E+02  0.00000000000E+00 0.  1.
         12    1    3    3    0    0 -0.38075968074E+03 -0.11819983527E+03  0.86385129523E+03  0.95141378790E+03  0.00000000000E+00 0. -1.
        -13    1    4    4    0    0 -0.46395279471E+02  0.55210871283E+02  0.22737267212E+03  0.23853531037E+03  0.00000000000E+00 0.  1.
         13    1    4    4    0    0 -0.58183505083E+01 -0.32647538849E+02  0.67857558775E+02  0.75527235342E+02  0.00000000000E+00 0. -1.
          1    1    1    2  501    0  0.47885499298E+03  0.94283135784E+02  0.66911837091E+03  0.82819732448E+03  0.00000000000E+00 0. -1.
<scales pt_clust_5="13000.00000" pt_clust_6="13000.00000" pt_clust_7="13000.00000" pt_clust_8="13000.00000" pt_clust_9="488.04858"></scales>
<clustering>
<clus scale="   80.428">  5  6 -1 -1</clus>
<clus scale="   90.769">  7  8 -1 -1</clus>
<clus scale="  103.971">  5  7 -1 -1</clus>
<clus scale="  488.049">  2  9  1 -1</clus>
<clus scale="  488.049">  2  5  1 -1</clus>
</clustering>
</event>
<event>
 9    2  0.3745229E-005  0.9615887E+02  0.7546771E-02  0.1297238E+00
         21   -1    0    0  501  502  0.00000000000E+00  0.00000000000E+00  0.36464406849E+03  0.36464406849E+03  0.00000000000E+00 0.  1.
          2   -1    0    0  502    0 -0.00000000000E+00 -0.00000000000E+00 -0.41489818574E+02  0.41489818574E+02  0.00000000000E+00 0. -1.
         24    2    1    2    0    0  0.26907159376E+02  0.17314813884E+02  0.26771694683E+02  0.85885408793E+02  0.75071844268E+02 0.  0.
         23    2    1    2    0    0 -0.16408618065E+02 -0.36801091669E+02  0.23613818435E+03  0.25606656014E+03  0.90472526332E+02 0.  0.
        -11    1    3    3    0    0 -0.23640992729E+02  0.19976230528E+02  0.89000821031E+01  0.32204934168E+02  0.00000000000E+00 0.  1.
         12    1    3    3    0    0  0.50548152105E+02 -0.26614166443E+01  0.17871612580E+02  0.53680474625E+02  0.00000000000E+00 0. -1.
        -13    1    4    4    0    0 -0.19197696312E+02 -0.64728174428E+02  0.19421937515E+03  0.20561968240E+03  0.00000000000E+00 0.  1.
         13    1    4    4    0    0  0.27890782477E+01  0.27927082759E+02  0.41918809200E+02  0.50446877739E+02  0.00000000000E+00 0. -1.
          1    1    1    2  501    0 -0.10498541311E+02  0.19486277785E+02  0.60244370888E+02  0.64181918133E+02  0.00000000000E+00 0. -1.
<scales pt_clust_5="13000.00000" pt_clust_6="13000.00000" pt_clust_7="13000.00000" pt_clust_8="13000.00000" pt_clust_9="22.13446"></scales>
<clustering>
<clus scale="   22.134">  1  9  2 -1</clus>
<clus scale="   75.072">  5  6 -1 -1</clus>
<clus scale="   81.835">  2  5  1 -1</clus>
<clus scale="   90.473">  7  8 -1 -1</clus>
<clus scale="   22.134">  1  5  2 -1</clus>
</clustering>
</event>
<event>
 9    2  0.3745229E-005  0.1124416E+03  0.7546771E-02  0.1258781E+00
         21   -1    0    0  501  502  0.00000000000E+00  0.00000000000E+00  0.15749858153E+03  0.15749858153E+03  0.00000000000E+00 0. -1.
          2   -1    0    0  502    0 -0.00000000000E+00 -0.00000000000E+00 -0.20150900522E+03  0.20150900522E+03  0.00000000000E+00 0. -1.
         23    2    1    2    0    0 -0.44661441500E+02  0.26051626115E+02  0.10005893793E+02  0.10384163208E+03  0.89496564529E+02 0.  0.
         24    2    1    2    0    0  0.61750921630E+02 -0.76298241180E+02  0.50782318152E+02  0.13769456799E+03  0.82136181364E+02 0.  0.
        -11    1    4    4    0    0  0.15683624955E+02  0.16852001878E+02  0.16286986809E+02  0.28199858126E+02  0.00000000000E+00 0.  1.
         12    1    4    4    0    0  0.46067296675E+02 -0.93150243058E+02  0.34495331343E+02  0.10949470987E+03  0.00000000000E+00 0. -1.
        -13    1    3    3    0    0 -0.37189724590E+02  0.58795208507E+02  0.97935339168E+01  0.70255714821E+02  0.00000000000E+00 0. -1.
         13    1    3    3    0    0 -0.74717169100E+01 -0.32743582392E+02  0.21235987646E+00  0.33585917260E+02  0.00000000000E+00 0.  1.
          1    1    1    2  501    0 -0.17089480130E+02  0.50246615065E+02 -0.10479863563E+03  0.11747138668E+03  0.00000000000E+00 0. -1.
<scales pt_clust_5="13000.00000" pt_clust_6="13000.00000" pt_clust_7="13000.00000" pt_clust_8="13000.00000" pt_clust_9="53.07330"></scales>
<clustering>
<clus scale="   53.073">  1  9  2 -1</clus>
<clus scale="   82.136">  5  6 -1 -1</clus>
<clus scale="   89.497">  7  8 -1 -1</clus>
<clus scale="  106.676">  1  5  2 -1</clus>
<clus scale="   53.073">  1  5  2 -1</clus>
</clustering>
</event>
<event>
 9    2  0.3745229E-005  0.1025566E+03  0.7546771E-02  0.1279905E+00
         21   -1    0    0  501  502  0.00000000000E+00  0.00000000000E+00  0.14269978922E+03  0.14269978922E+03  0.00000000000E+00 0.  1.
          2   -1    0    0  502    0 -0.00000000000E+00 -0.00000000000E+00 -0.40874365353E+03  0.40874365353E+03  0.00000000000E+00 0. -1.
         23    2    1    2    0    0 -0.64187713940E+01  0.47679704681E+02 -0.37231447282E+03  0.38638249950E+03  0.91426551819E+02 0.  0.
         24    2    1    2    0    0  0.22031325356E+02 -0.26443132311E+02  0.46096063464E+02  0.99366805615E+02  0.81020345888E+02 0.  0.
        -13    1    4    4    0    0  0.12149478016E+02 -0.55711538077E+02  0.32309066029E+02  0.65538241040E+02  0.00000000000E+00 0.  1.
         14    1    4    4    0    0  0.98818473408E+01  0.29268405766E+02  0.13786997435E+02  0.33828564575E+02  0.00000000000E+00 0. -1.
        -13    1    3    3    0    0  0.26260851068E+02 -0.12995216022E+02 -0.62950527455E+02  0.69435414921E+02  0.00000000000E+00 0.  1.
         13    1    3    3    0    0 -0.32679622462E+02  0.60674920702E+02 -0.30936394537E+03  0.31694708458E+03  0.00000000000E+00 0. -1.
          1    1    1    2  501    0 -0.15612553962E+02 -0.21236572369E+02  0.60174545058E+02  0.65694137639E+02  0.00000000000E+00 0. -1.
<scales pt_clust_5="13000.00000" pt_clust_6="13000.00000" pt_clust_7="13000.00000" pt_clust_8="13000.00000" pt_clust_9="26.35799"></scales>
<clustering>
<clus scale="   26.358">  1  9  2 -1</clus>
<clus scale="   81.020">  5  6 -1 -1</clus>
<clus scale="   91.427">  7  8 -1 -1</clus>
<clus scale="   93.399">  1  5  2 -1</clus>
<clus scale="   26.358">  1  5  2 -1</clus>
</clustering>
</event>
<event>
 9    2  0.3745229E-005  0.5423548E+03  0.7546771E-02  0.1058975E+00
         21   -1    0    0  501  502  0.00000000000E+00  0.00000000000E+00  0.31866700610E+03  0.31866700610E+03  0.00000000000E+00 0. -1.
          2   -1    0    0  502    0 -0.00000000000E+00 -0.00000000000E+00 -0.11506410168E+04  0.11506410168E+04  0.00000000000E+00 0. -1.
         23    2    1    2    0    0 -0.33189202074E+02  0.28944465506E+02 -0.63772005292E+02  0.12210940091E+03  0.94363827364E+02 0.  0.
         24    2    1    2    0    0  0.54894900441E+03  0.10872371924E+02 -0.22991259939E+03  0.60064049373E+03  0.80286869634E+02 0.  0.
        -13    1    4    4    0    0  0.80323939487E+02 -0.20025704580E+02 -0.55461887413E+02  0.99644292632E+02  0.00000000000E+00 0.  1.
         14    1    4    4    0    0  0.46862506492E+03  0.30898076504E+02 -0.17445071198E+03  0.50099620110E+03  0.00000000000E+00 0. -1.
        -13    1    3    3    0    0 -0.62709391965E+02  0.78685855349E+01 -0.22315412242E+02  0.67025070701E+02  0.00000000000E+00 0. -1.
         13    1    3    3    0    0  0.29520189890E+02  0.21075879971E+02 -0.41456593050E+02  0.55084330213E+02  0.00000000000E+00 0.  1.
          1    1    1    2  501    0 -0.51575980233E+03 -0.39816837430E+02 -0.53828940602E+03  0.74655812826E+03  0.00000000000E+00 0. -1.
<scales pt_clust_5="13000.00000" pt_clust_6="13000.00000" pt_clust_7="13000.00000" pt_clust_8="13000.00000" pt_clust_9="536.37959"></scales>
<clustering>
<clus scale="   80.287">  5  6 -1 -1</clus>
<clus scale="   94.364">  7  8 -1 -1</clus>
<clus scale="  104.134">  2  7  1 -1</clus>
<clus scale="  536.380">  1  9  2 -1</clus>
<clus scale="  536.380">  1  5  2 -1</clus>
</clustering>
</event>
<event>
 9    2  0.3745229E-005  0.1415268E+03  0.7546771E-02  0.1216161E+00
         21   -1    0    0  501  502  0.00000000000E+00  0.00000000000E+00  0.11561194309E+03  0.11561194309E+03  0.00000000000E+00 0. -1.
          2   -1    0    0  502    0 -0.00000000000E+00 -0.00000000000E+00 -0.29840297705E+03  0.29840297705E+03  0.00000000000E+00 0. -1.
         23    2    1    2    0    0  0.12312533282E+03  0.29111393415E+02 -0.13596263555E+03  0.21106335897E+03  0.10027254072E+03 0.  0.
         24    2    1    2    0    0 -0.56404192824E+02 -0.22404173881E+00  0.25158104340E+02  0.10063711357E+03  0.79457002531E+02 0.  0.
        -13    1    4    4    0    0  0.15158077915E+02 -0.13697978769E+02 -0.62031060874E+01  0.21351357651E+02  0.00000000000E+00 0.  1.
         14    1    4    4    0    0 -0.71562270739E+02  0.13473937030E+02  0.31361210427E+02  0.79285755920E+02  0.00000000000E+00 0. -1.
        -13    1    3    3    0    0  0.11590035140E+02  0.47017180196E+02 -0.43193518154E+02  0.64889322377E+02  0.00000000000E+00 0.  1.
         13    1    3    3    0    0  0.11153529768E+03 -0.17905786781E+02 -0.92769117400E+02  0.14617403659E+03  0.00000000000E+00 0. -1.
          1    1    1    2  501    0 -0.66721140001E+02 -0.28887351676E+02 -0.71986502747E+02  0.10231444760E+03  0.00000000000E+00 0. -1.
<scales pt_clust_5="13000.00000" pt_clust_6="13000.00000" pt_clust_7="13000.00000" pt_clust_8="13000.00000" pt_clust_9="72.70622"></scales>
<clustering>
<clus scale="   72.706">  1  9  2 -1</clus>
<clus scale="   79.457">  5  6 -1 -1</clus>
<clus scale="  100.273">  7  8 -1 -1</clus>
<clus scale="  127.627">  1  5  2 -1</clus>
<clus scale="   72.706">  1  5  2 -1</clus>
</clustering>
</event>
<event>
 9    2  0.3840181E-005  0.1192781E+03  0.7546771E-02  0.1246671E+00
         -1   -1    0    0    0  501 -0.00000000000E+00  0.00000000000E+00  0.57540924665E+03  0.57540924665E+03  0.00000000000E+00 0.  1.
         21   -1    0    0  501  502  0.00000000000E+00 -0.00000000000E+00 -0.21815413964E+03  0.21815413964E+03  0.00000000000E+00 0.  1.
         24    2    1    2    0    0  0.31702122864E+01 -0.79164099065E+02  0.32346349381E+03  0.34338295823E+03  0.83703162103E+02 0.  0.
         23    2    1    2    0    0 -0.19428082532E+02  0.29297612763E+02 -0.19358557295E+03  0.21683225562E+03  0.91132060869E+02 0.  0.
        -13    1    3    3    0    0  0.39148946588E+02 -0.65545331946E+02  0.20058931451E+03  0.21462735999E+03  0.00000000000E+00 0.  1.
         14    1    3    3    0    0 -0.35978734301E+02 -0.13618767119E+02  0.12287417930E+03  0.12875559824E+03  0.00000000000E+00 0. -1.
        -13    1    4    4    0    0  0.92158152532E+00  0.53027725675E+02 -0.62022426636E+02  0.81606190994E+02  0.00000000000E+00 0. -1.
         13    1    4    4    0    0 -0.20349664058E+02 -0.23730112912E+02 -0.13156314631E+03  0.13522606462E+03  0.00000000000E+00 0.  1.
         -2    1    1    2    0  502  0.16257870246E+02  0.49866486302E+02  0.22737718615E+03  0.23334817244E+03  0.00000000000E+00 0.  1.
<scales pt_clust_5="13000.00000" pt_clust_6="13000.00000" pt_clust_7="13000.00000" pt_clust_8="13000.00000" pt_clust_9="52.44986"></scales>
<clustering>
<clus scale="   52.450">  2  9  1 -1</clus>
<clus scale="   83.703">  5  6 -1 -1</clus>
<clus scale="   91.132">  7  8 -1 -1</clus>
<clus scale="  113.703">  1  5  2 -1</clus>
<clus scale="   52.450">  2  5  1 -1</clus>
</clustering>
</event>
<event>
 9    2  0.3745229E-005  0.9799331E+02  0.7546771E-02  0.1290412E+00
         -3   -1    0    0    0  501 -0.00000000000E+00  0.00000000000E+00  0.24942692795E+03  0.24942692795E+03  0.00000000000E+00 0.  1.
         21   -1    0    0  501  502  0.00000000000E+00 -0.00000000000E+00 -0.64135452926E+02  0.64135452926E+02  0.00000000000E+00 0.  1.
         23    2    1    2    0    0 -0.16653103869E+01 -0.29927205959E+02  0.16211334839E+03  0.18844040493E+03  0.91272326406E+02 0.  0.
         24    2    1    2    0    0 -0.36245783298E+01  0.54355170603E+02  0.11918606290E+02  0.97708745975E+02  0.80232934165E+02 0.  0.
        -13    1    4    4    0    0 -0.33096763795E+02  0.35873109205E+00 -0.59955846939E+01  0.33637352713E+02  0.00000000000E+00 0.  1.
         14    1    4    4    0    0  0.29472185465E+02  0.53996439511E+02  0.17914190984E+02  0.64071393262E+02  0.00000000000E+00 0. -1.
        -13    1    3    3    0    0 -0.36158859931E+02 -0.43692875339E+02  0.77500772746E+02  0.96035932250E+02  0.00000000000E+00 0. -1.
         13    1    3    3    0    0  0.34493549544E+02  0.13765669380E+02  0.84612575644E+02  0.92404472677E+02  0.00000000000E+00 0.  1.
         -4    1    1    2    0  502  0.52898887166E+01 -0.24427964644E+02  0.11259520344E+02  0.27413229975E+02  0.00000000000E+00 0.  1.
<scales pt_clust_5="13000.00000" pt_clust_6="13000.00000" pt_clust_7="13000.00000" pt_clust_8="13000.00000" pt_clust_9="24.99417"></scales>
<clustering>
<clus scale="   24.994">  2  9  1 -1</clus>
<clus scale="   80.233">  5  6 -1 -1</clus>
<clus scale="   87.803">  2  5  1 -1</clus>
<clus scale="   91.272">  7  8 -1 -1</clus>
<clus scale="   24.994">  2  5  1 -1</clus>
</clustering>
</event>
<event>
 9    2  0.3745229E-005  0.1332178E+03  0.7546771E-02  0.1232082E+00
         21   -1    0    0  501  502  0.00000000000E+00  0.00000000000E+00  0.78428451326E+02  0.78428451326E+02  0.00000000000E+00 0.  1.
         -1   -1    0    0    0  501 -0.00000000000E+00 -0.00000000000E+00 -0.47420982288E+03  0.47420982288E+03  0.00000000000E+00 0.  1.
         24    2    1    2    0    0 -0.46058337992E+02 -0.59044805289E+02 -0.48303017462E+02  0.11995029051E+03  0.80294652164E+02 0.  0.
         23    2    1    2    0    0 -0.71190116923E+02  0.88770091671E+02 -0.21178946146E+03  0.25091265970E+03  0.71792930651E+02 0.  0.
        -13    1    3    3    0    0 -0.56124288664E+02 -0.15160569596E+02 -0.47247597588E+02  0.74914044920E+02  0.00000000000E+00 0.  1.
         14    1    3    3    0    0  0.10065950672E+02 -0.43884235693E+02 -0.10554198744E+01  0.45036245585E+02  0.00000000000E+00 0. -1.
        -11    1    4    4    0    0 -0.20009230384E+02  0.39058450217E+02 -0.23986197222E+02  0.50012693299E+02  0.00000000000E+00 0.  1.
         11    1    4    4    0    0 -0.51180886539E+02  0.49711641455E+02 -0.18780326424E+03  0.20089996640E+03  0.00000000000E+00 0. -1.
         -2    1    1    2    0  502  0.11724845492E+03 -0.29725286382E+02 -0.13568889264E+03  0.18177532400E+03  0.00000000000E+00 0.  1.
<scales pt_clust_5="13000.00000" pt_clust_6="13000.00000" pt_clust_7="13000.00000" pt_clust_8="13000.00000" pt_clust_9="112.21751"></scales>
<clustering>
<clus scale="   71.793">  7  8 -1 -1</clus>
<clus scale="   80.295">  5  6 -1 -1</clus>
<clus scale="  109.795">  2  5  1 -1</clus>
<clus scale="  112.218">  1  9  2 -1</clus>
<clus scale="  112.218">  1  5  2 -1</clus>
</clustering>
</event>
<event>
 9    2  0.3745229E-005  0.1390462E+03  0.7546771E-02  0.1217278E+00
         21   -1    0    0  501  502  0.00000000000E+00  0.00000000000E+00  0.23975124919E+03  0.23975124919E+03  0.00000000000E+00 0. -1.
         -1   -1    0    0    0  501 -0.00000000000E+00 -0.00000000000E+00 -0.20427243114E+03  0.20427243114E+03  0.00000000000E+00 0.  1.
         24    2    1    2    0    0  0.25359890761E+02 -0.10442935903E+03 -0.14836494955E+03  0.19847728806E+03  0.76370547564E+02 0.  0.
         23    2    1    2    0    0 -0.33267237161E+01  0.10564000138E+03  0.14088470276E+03  0.19725138884E+03  0.88818545047E+02 0.  0.
        -11    1    3    3    0    0 -0.67222264373E+00 -0.10436949208E+03 -0.12952180472E+03  0.16634103720E+03  0.00000000000E+00 0.  1.
         12    1    3    3    0    0  0.26032113404E+02 -0.59866954353E-01 -0.18843144831E+02  0.32136250862E+02  0.00000000000E+00 0. -1.
        -11    1    4    4    0    0 -0.41254933694E+02  0.55512714807E+02  0.44710927925E+02  0.82357137731E+02  0.00000000000E+00 0.  1.
         11    1    4    4    0    0  0.37928209978E+02  0.50127286574E+02  0.96173774833E+02  0.11489425111E+03  0.00000000000E+00 0. -1.
         -2    1    1    2    0  502 -0.22033167045E+02 -0.12106423468E+01  0.42959064836E+02  0.48295003432E+02  0.00000000000E+00 0.  1.
<scales pt_clust_5="13000.00000" pt_clust_6="13000.00000" pt_clust_7="13000.00000" pt_clust_8="13000.00000" pt_clust_9="22.06640"></scales>
<clustering>
<clus scale="   22.066">  1  9  2 -1</clus>
<clus scale="   76.371">  5  6 -1 -1</clus>
<clus scale="   88.819">  7  8 -1 -1</clus>
<clus scale="  131.444">  2  5  1 -1</clus>
<clus scale="   22.066">  1  5  2 -1</clus>
</clustering>
</event>
<event>
 9    2  0.3745229E-005  0.1118659E+03  0.7546771E-02  0.1261177E+00
         21   -1    0    0  501  502  0.00000000000E+00  0.00000000000E+00  0.11389072004E+03  0.11389072004E+03  0.00000000000E+00 0.  1.
          4   -1    0    0  502    0 -0.00000000000E+00 -0.00000000000E+00 -0.35228013549E+03  0.35228013549E+03  0.00000000000E+00 0. -1.
         23    2    1    2    0    0  0.52386817653E+02 -0.47093706879E+02 -0.22550803824E+03  0.25310191461E+03  0.90799272990E+02 0.  0.
         24    2    1    2    0    0 -0.88505350177E+01  0.34989891595E+02  0.74190218683E+02  0.11497014857E+03  0.80070731417E+02 0.  0.
        -13    1    4    4    0    0 -0.25144738969E+02  0.34196794790E+02  0.85269550690E+02  0.95250065337E+02  0.00000000000E+00 0.  1.
         14    1    4    4    0    0  0.16294203951E+02  0.79309680586E+00 -0.11079332008E+02  0.19720083232E+02  0.00000000000E+00 0. -1.
        -11    1    3    3    0    0 -0.20270152070E+02 -0.23408429736E+02 -0.29684970577E+02  0.42895583989E+02  0.00000000000E+00 0. -1.
         11    1    3    3    0    0  0.72656969723E+02 -0.23685277143E+02 -0.19582306767E+03  0.21020633062E+03  0.00000000000E+00 0.  1.
          3    1    1    2  501    0 -0.43536282636E+02  0.12103815283E+02 -0.87071595888E+02  0.98098792351E+02  0.00000000000E+00 0. -1.
<scales pt_clust_5="13000.00000" pt_clust_6="13000.00000" pt_clust_7="13000.00000" pt_clust_8="13000.00000" pt_clust_9="45.18752"></scales>
<clustering>
<clus scale="   45.188">  1  9  2 -1</clus>
<clus scale="   80.071">  5  6 -1 -1</clus>
<clus scale="   90.799">  7  8 -1 -1</clus>
<clus scale="  103.348">  1  5  2 -1</clus>
<clus scale="   45.188">  1  5  2 -1</clus>
</clustering>
</event>
<event>
 9    2  0.3745229E-005  0.1013760E+03  0.7546771E-02  0.1283858E+00
          2   -1    0    0  502    0 -0.00000000000E+00  0.00000000000E+00  0.22318972531E+03  0.22318972531E+03  0.00000000000E+00 0. -1.
         21   -1    0    0  501  502  0.00000000000E+00 -0.00000000000E+00 -0.11721776178E+03  0.11721776178E+03  0.00000000000E+00 0.  1.
         23    2    1    2    0    0 -0.33583676296E+02 -0.31524119144E+02  0.17427641005E+03  0.20164119805E+03  0.90361896007E+02 0.  0.
         24    2    1    2    0    0  0.13632424534E+02  0.50026432138E+02 -0.58913662003E+02  0.10998131264E+03  0.77049222238E+02 0.  0.
        -13    1    4    4    0    0  0.98036993446E+01  0.63502821329E+02 -0.67784352699E+02  0.93399353897E+02  0.00000000000E+00 0.  1.
         14    1    4    4    0    0  0.38287251891E+01 -0.13476389191E+02  0.88706906958E+01  0.16581958739E+02  0.00000000000E+00 0. -1.
        -13    1    3    3    0    0 -0.10196306049E+02 -0.40357491572E+02  0.17150958037E+03  0.17648860570E+03  0.00000000000E+00 0. -1.
         13    1    3    3    0    0 -0.23387370247E+02  0.88333724275E+01  0.27668296797E+01  0.25152592351E+02  0.00000000000E+00 0.  1.
          1    1    1    2  501    0  0.19951251762E+02 -0.18502312994E+02 -0.93907845186E+01  0.28784976409E+02  0.00000000000E+00 0. -1.
<scales pt_clust_5="13000.00000" pt_clust_6="13000.00000" pt_clust_7="13000.00000" pt_clust_8="13000.00000" pt_clust_9="27.21007"></scales>
<clustering>
<clus scale="   27.210">  2  9  1 -1</clus>
<clus scale="   77.049">  5  6 -1 -1</clus>
<clus scale="   89.713">  2  5  1 -1</clus>
<clus scale="   90.362">  7  8 -1 -1</clus>
<clus scale="   27.210">  2  5  1 -1</clus>
</clustering>
</event>
<event>
 9    2  0.3745229E-005  0.1048252E+03  0.7546771E-02  0.1274982E+00
          4   -1    0    0  502    0 -0.00000000000E+00  0.00000000000E+00  0.15127745920E+03  0.15127745920E+03  0.00000000000E+00 0. -1.
         21   -1    0    0  501  502  0.00000000000E+00 -0.00000000000E+00 -0.18435055012E+03  0.18435055012E+03  0.00000000000E+00 0.  1.
         23    2    1    2    0    0 -0.10753104970E+02 -0.40843733038E+02 -0.29577086631E+01  0.10003898461E+03  0.90637798997E+02 0.  0.
         24    2    1    2    0    0 -0.62359667948E+02  0.72832180728E+02 -0.73140671776E+02  0.14492528395E+03  0.80377393111E+02 0.  0.
        -11    1    4    4    0    0 -0.54862022597E+02  0.81015465213E+02 -0.84326419093E+02  0.12916768978E+03  0.00000000000E+00 0.  1.
         12    1    4    4    0    0 -0.74976453508E+01 -0.81832844848E+01  0.11185747318E+02  0.15757594164E+02  0.00000000000E+00 0. -1.
        -13    1    3    3    0    0 -0.23696745414E+02 -0.64983323136E+02  0.97338837693E+01  0.69850673026E+02  0.00000000000E+00 0.  1.
         13    1    3    3    0    0  0.12943640444E+02  0.24139590098E+02 -0.12691592432E+02  0.30188311588E+02  0.00000000000E+00 0. -1.
          3    1    1    2  501    0  0.73112772918E+02 -0.31988447690E+02  0.43025289524E+02  0.90663740757E+02  0.00000000000E+00 0. -1.
<scales pt_clust_5="13000.00000" pt_clust_6="13000.00000" pt_clust_7="13000.00000" pt_clust_8="13000.00000" pt_clust_9="79.80442"></scales>
<clustering>
<clus scale="   79.804">  2  9  1 -1</clus>
<clus scale="   80.377">  5  6 -1 -1</clus>
<clus scale="   90.638">  7  8 -1 -1</clus>
<clus scale="   96.092">  2  5  1 -1</clus>
<clus scale="   79.804">  2  5  1 -1</clus>
</clustering>
</event>
<event>
 9    2  0.3745229E-005  0.9291919E+02  0.7546771E-02  0.1301302E+00
         -1   -1    0    0    0  501 -0.00000000000E+00  0.00000000000E+00  0.36111495417E+02  0.36111495417E+02  0.00000000000E+00 0.  1.
         21   -1    0    0  501  502  0.00000000000E+00 -0.00000000000E+00 -0.45459516627E+03  0.45459516627E+03  0.00000000000E+00 0. -1.
         23    2    1    2    0    0 -0.29952608212E+02 -0.10405423827E+02 -0.69560045657E+02  0.11741159600E+03  0.89114821099E+02 0.  0.
         24    2    1    2    0    0  0.18221568986E+02 -0.29532574108E+02 -0.19026067008E+03  0.20926276922E+03  0.79922371647E+02 0.  0.
        -13    1    4    4    0    0 -0.22985182264E+02  0.13287339341E+02 -0.43987788544E+02  0.51378960008E+02  0.00000000000E+00 0.  1.
         14    1    4    4    0    0  0.41206751250E+02 -0.42819913449E+02 -0.14627288154E+03  0.15788380921E+03  0.00000000000E+00 0. -1.
        -11    1    3    3    0    0 -0.59470283945E+02  0.49159753009E+01 -0.33815807414E+02  0.68588558205E+02  0.00000000000E+00 0.  1.
         11    1    3    3    0    0  0.29517675732E+02 -0.15321399128E+02 -0.35744238243E+02  0.48823037794E+02  0.00000000000E+00 0. -1.
         -2    1    1    2    0  502  0.11731039226E+02  0.39937997935E+02 -0.15866295511E+03  0.16403229647E+03  0.00000000000E+00 0.  1.
<scales pt_clust_5="13000.00000" pt_clust_6="13000.00000" pt_clust_7="13000.00000" pt_clust_8="13000.00000" pt_clust_9="41.62524"></scales>
<clustering>
<clus scale="   41.625">  2  9  1 -1</clus>
<clus scale="   79.922">  5  6 -1 -1</clus>
<clus scale="   84.143">  2  5  1 -1</clus>
<clus scale="   89.115">  7  8 -1 -1</clus>
<clus scale="   41.625">  2  5  1 -1</clus>
</clustering>
</event>
<event>
 9    2  0.3745229E-005  0.9825994E+02  0.7546771E-02  0.1289057E+00
         21   -1    0    0  501  502  0.00000000000E+00  0.00000000000E+00  0.42607717273E+03  0.42607717273E+03  0.00000000000E+00 0. -1.
         -1   -1    0    0    0  501 -0.00000000000E+00 -0.00000000000E+00 -0.36980419472E+02  0.36980419472E+02  0.00000000000E+00 0.  1.
         23    2    1    2    0    0  0.35564615949E+01  0.38408025963E+02  0.78424634210E+02  0.12673807084E+03  0.91783933625E+02 0.  0.
         24    2    1    2    0    0 -0.31929703924E+02 -0.21187003126E+02  0.18052507614E+03  0.20200698552E+03  0.82153052215E+02 0.  0.
        -11    1    4    4    0    0 -0.86042055409E+01  0.25939508258E+02  0.11389164273E+03  0.11712470587E+03  0.00000000000E+00 0.  1.
         12    1    4    4    0    0 -0.23325498383E+02 -0.47126511384E+02  0.66633433416E+02  0.84882279652E+02  0.00000000000E+00 0. -1.
        -11    1    3    3    0    0  0.40382547435E+02  0.43184743297E+02  0.63368272006E+02  0.86667237686E+02  0.00000000000E+00 0.  1.
         11    1    3    3    0    0 -0.36826085840E+02 -0.47767173345E+01  0.15056362204E+02  0.40070833153E+02  0.00000000000E+00 0. -1.
         -2    1    1    2    0  502  0.28373242329E+02 -0.17221022836E+02  0.13014704291E+03  0.13431253585E+03  0.00000000000E+00 0.  1.
<scales pt_clust_5="13000.00000" pt_clust_6="13000.00000" pt_clust_7="13000.00000" pt_clust_8="13000.00000" pt_clust_9="33.19043"></scales>
<clustering>
<clus scale="   33.190">  1  9  2 -1</clus>
<clus scale="   82.153">  5  6 -1 -1</clus>
<clus scale="   89.330">  1  5  2 -1</clus>
<clus scale="   91.784">  7  8 -1 -1</clus>
<clus scale="   33.190">  1  5  2 -1</clus>
</clustering>
</event>
<event>
 9    2  0.3745229E-005  0.1258802E+03  0.7546771E-02  0.1234913E+00
          2   -1    0    0  502    0 -0.00000000000E+00  0.00000000000E+00  0.22045908529E+03  0.22045908529E+03  0.00000000000E+00 0. -1.
         21   -1    0    0  501  502  0.00000000000E+00 -0.00000000000E+00 -0.31607910679E+03  0.31607910679E+03  0.00000000000E+00 0.  1.
         24    2    1    2    0    0  0.48184991809E+02  0.42052774417E+02  0.13814030972E+03  0.18179157670E+03  0.99374055564E+02 0.  0.
         23    2    1    2    0    0 -0.75042534432E+02 -0.12451991107E+03 -0.13720123959E+03  0.22495518885E+03  0.10317008587E+03 0.  0.
        -13    1    3    3    0    0  0.15642763400E+02 -0.25766523036E+02  0.75318439194E+01  0.31069895863E+02  0.00000000000E+00 0.  1.
         14    1    3    3    0    0  0.32542228410E+02  0.67819297452E+02  0.13060846580E+03  0.15072168084E+03  0.00000000000E+00 0. -1.
        -13    1    4    4    0    0  0.24440883131E+02 -0.28229194347E+02 -0.45631231111E+02  0.58961457194E+02  0.00000000000E+00 0.  1.
         13    1    4    4    0    0 -0.99483417562E+02 -0.96290716723E+02 -0.91570008479E+02  0.16599373166E+03  0.00000000000E+00 0. -1.
          1    1    1    2  501    0  0.26857542622E+02  0.82467136653E+02 -0.96559091631E+02  0.12979142653E+03  0.00000000000E+00 0. -1.
<scales pt_clust_5="13000.00000" pt_clust_6="13000.00000" pt_clust_7="13000.00000" pt_clust_8="13000.00000" pt_clust_9="86.73037"></scales>
<clustering>
<clus scale="   86.730">  2  9  1 -1</clus>
<clus scale="   99.374">  5  6 -1 -1</clus>
<clus scale="  103.170">  7  8 -1 -1</clus>
<clus scale="  122.788">  1  5  2 -1</clus>
<clus scale="   86.730">  2  5  1 -1</clus>
</clustering>
</event>
<event>
 9    2  0.3745229E-005  0.1201588E+03  0.7546771E-02  0.1246641E+00
          4   -1    0    0  502    0 -0.00000000000E+00  0.00000000000E+00  0.96629005822E+02  0.96629005822E+02  0.00000000000E+00 0. -1.
         21   -1    0    0  501  502  0.00000000000E+00 -0.00000000000E+00 -0.30535447216E+03  0.30535447216E+03  0.00000000000E+00 0. -1.
         24    2    1    2    0    0 -0.17790362205E+02  0.91845598096E+02 -0.62792755395E+02  0.13842009125E+03  0.80405725252E+02 0.  0.
         23    2    1    2    0    0  0.53426471788E+02 -0.33222435636E+02 -0.15841403961E+03  0.19383253955E+03  0.92292617939E+02 0.  0.
        -13    1    3    3    0    0  0.23572048567E+02  0.28488176705E+01 -0.41753347866E+01  0.24107896141E+02  0.00000000000E+00 0.  1.
         14    1    3    3    0    0 -0.41362410771E+02  0.88996780426E+02 -0.58617420608E+02  0.11431219511E+03  0.00000000000E+00 0. -1.
        -11    1    4    4    0    0  0.38953275491E+02  0.28352407377E+02 -0.75144840953E+02  0.89263451633E+02  0.00000000000E+00 0. -1.
         11    1    4    4    0    0  0.14473196296E+02 -0.61574843013E+02 -0.83269198661E+02  0.10456908792E+03  0.00000000000E+00 0.  1.
          3    1    1    2  501    0 -0.35636109583E+02 -0.58623162461E+02  0.12481328672E+02  0.69730847181E+02  0.00000000000E+00 0. -1.
<scales pt_clust_5="13000.00000" pt_clust_6="13000.00000" pt_clust_7="13000.00000" pt_clust_8="13000.00000" pt_clust_9="68.60475"></scales>
<clustering>
<clus scale="   68.605">  2  9  1 -1</clus>
<clus scale="   80.406">  5  6 -1 -1</clus>
<clus scale="   92.293">  7  8 -1 -1</clus>
<clus scale="  111.289">  1  5  2 -1</clus>
<clus scale="   68.605">  2  5  1 -1</clus>
</clustering>
</event>
<event>
 9    2  0.3745229E-005  0.9307305E+02  0.7546771E-02  0.1297351E+00
         21   -1    0    0  501  502  0.00000000000E+00  0.00000000000E+00  0.39932686099E+02  0.39932686099E+02  0.00000000000E+00 0.  1.
          2   -1    0    0  502    0 -0.00000000000E+00 -0.00000000000E+00 -0.66161431128E+03  0.66161431128E+03  0.00000000000E+00 0. -1.
         23    2    1    2    0    0  0.29382400411E+02  0.29779394059E+02 -0.34782926133E+03  0.36084591123E+03  0.86454837046E+02 0.  0.
         24    2    1    2    0    0  0.65234182796E+02 -0.29627043535E+02 -0.13799398898E+03  0.17514197570E+03  0.80617059894E+02 0.  0.
        -13    1    4    4    0    0  0.67583912582E+02 -0.41505630308E+02 -0.69096561939E+02  0.10518858046E+03  0.00000000000E+00 0.  1.
         14    1    4    4    0    0 -0.23497297866E+01  0.11878586772E+02 -0.68897427038E+02  0.69953395245E+02  0.00000000000E+00 0. -1.
        -11    1    3    3    0    0  0.53064854958E+02  0.40020801534E+02 -0.19925502806E+03  0.21004787453E+03  0.00000000000E+00 0. -1.
         11    1    3    3    0    0 -0.23682454548E+02 -0.10241407475E+02 -0.14857423327E+03  0.15079803670E+03  0.00000000000E+00 0.  1.
          1    1    1    2  501    0 -0.94616583206E+02 -0.15235052368E+00 -0.13585837487E+03  0.16555911044E+03  0.00000000000E+00 0. -1.
<scales pt_clust_5="13000.00000" pt_clust_6="13000.00000" pt_clust_7="13000.00000" pt_clust_8="13000.00000" pt_clust_9="94.61671"></scales>
<clustering>
<clus scale="   80.617">  5  6 -1 -1</clus>
<clus scale="   86.455">  7  8 -1 -1</clus>
<clus scale="   94.617">  1  9  2 -1</clus>
<clus scale="   94.617">  1  5  2 -1</clus>
<clus scale="   93.073">  1  5  2 -1</clus>
</clustering>
</event>
<event>
 9    2  0.3745229E-005  0.1267507E+03  0.7546771E-02  0.1252849E+00
          2   -1    0    0  502    0 -0.00000000000E+00  0.00000000000E+00  0.12475274724E+03  0.12475274724E+03  0.00000000000E+00 0. -1.
         21   -1    0    0  501  502  0.00000000000E+00 -0.00000000000E+00 -0.32159959913E+03  0.32159959913E+03  0.00000000000E+00 0. -1.
         24    2    1    2    0    0  0.18802228750E+02  0.73923376080E+01  0.46564279243E+02  0.95823505711E+02  0.81275713986E+02 0.  0.
         23    2    1    2    0    0  0.26891175412E+02 -0.81313044345E+02 -0.45214691340E+02  0.13411722634E+03  0.92779930983E+02 0.  0.
        -13    1    3    3    0    0 -0.23650335800E+02 -0.18215068011E+02  0.32842246491E+02  0.44381755719E+02  0.00000000000E+00 0.  1.
         14    1    3    3    0    0  0.42452564550E+02  0.25607405619E+02  0.13722032751E+02  0.51441749992E+02  0.00000000000E+00 0. -1.
        -13    1    4    4    0    0 -0.13270787775E+01 -0.87834369283E+02 -0.98323119588E+01  0.88392940464E+02  0.00000000000E+00 0. -1.
         13    1    4    4    0    0  0.28218254190E+02  0.65213249377E+01 -0.35382379381E+02  0.45724285879E+02  0.00000000000E+00 0.  1.
          1    1    1    2  501    0 -0.45693404162E+02  0.73920706737E+02 -0.19819643979E+03  0.21641161432E+03  0.00000000000E+00 0. -1.
<scales pt_clust_5="13000.00000" pt_clust_6="13000.00000" pt_clust_7="13000.00000" pt_clust_8="13000.00000" pt_clust_9="86.35749"></scales>
<clustering>
<clus scale="   81.276">  5  6 -1 -1</clus>
<clus scale="   83.749">  1  5  2 -1</clus>
<clus scale="   86.357">  2  9  1 -1</clus>
<clus scale="   92.780">  7  8 -1 -1</clus>
<clus scale="   86.357">  2  5  1 -1</clus>
</clustering>
</event>
<event>
 9    2  0.3745229E-005  0.9515454E+02  0.7546771E-02  0.1297512E+00
         -3   -1    0    0    0  501 -0.00000000000E+00  0.00000000000E+00  0.37645112875E+03  0.37645112875E+03  0.00000000000E+00 0.  1.
         21   -1    0    0  501  502  0.00000000000E+00 -0.00000000000E+00 -0.67717820646E+02  0.67717820646E+02  0.00000000000E+00 0.  1.
         24    2    1    2    0    0  0.93668012272E+01  0.13102152026E+02  0.19071580827E+03  0.20679668125E+03  0.78313118316E+02 0.  0.
         23    2    1    2    0    0 -0.46448037815E+02 -0.44664092467E+02  0.14437824615E+03  0.18200022523E+03  0.90148225983E+02 0.  0.
        -11    1    3    3    0    0  0.10769217331E+02 -0.29128181093E+02  0.12397068381E+03  0.12780124186E+03  0.00000000000E+00 0.  1.
         12    1    3    3    0    0 -0.14024161039E+01  0.42230333119E+02  0.66745124459E+02  0.78995439396E+02  0.00000000000E+00 0. -1.
        -11    1    4    4    0    0  0.36475691944E+01 -0.46817668972E+02  0.26546840666E+02  0.53943800741E+02  0.00000000000E+00 0. -1.
         11    1    4    4    0    0 -0.50095607009E+02  0.21535765053E+01  0.11783140549E+03  0.12805642449E+03  0.00000000000E+00 0.  1.
         -4    1    1    2    0  502  0.37081236587E+02  0.31561940441E+02 -0.26360746312E+02  0.55372042922E+02  0.00000000000E+00 0.  1.
<scales pt_clust_5="13000.00000" pt_clust_6="13000.00000" pt_clust_7="13000.00000" pt_clust_8="13000.00000" pt_clust_9="48.69470"></scales>
<clustering>
<clus scale="   48.695">  2  9  1 -1</clus>
<clus scale="   78.313">  5  6 -1 -1</clus>
<clus scale="   84.028">  1  5  2 -1</clus>
<clus scale="   90.148">  7  8 -1 -1</clus>
<clus scale="   48.695">  2  5  1 -1</clus>
</clustering>
</event>
<event>
 9    2  0.3745229E-005  0.1150877E+03  0.7546771E-02  0.1256093E+00
         21   -1    0    0  501  502  0.00000000000E+00  0.00000000000E+00  0.18407639379E+02  0.18407639379E+02  0.00000000000E+00 0. -1.
          2   -1    0    0  502    0 -0.00000000000E+00 -0.00000000000E+00 -0.10382790932E+04  0.10382790932E+04  0.00000000000E+00 0. -1.
         24    2    1    2    0    0  0.21778293360E+02  0.86137678441E+02 -0.46697188102E+03  0.48203976597E+03  0.80035021108E+02 0.  0.
         23    2    1    2    0    0 -0.15792918066E+02 -0.40303207421E+02 -0.28737322078E+03  0.30512726961E+03  0.92981276883E+02 0.  0.
        -13    1    3    3    0    0  0.37099692077E+02  0.34675317350E+02 -0.11129753468E+03  0.12233521983E+03  0.00000000000E+00 0.  1.
         14    1    3    3    0    0 -0.15321398717E+02  0.51462361091E+02 -0.35567434634E+03  0.35970454614E+03  0.00000000000E+00 0. -1.
        -11    1    4    4    0    0  0.17369772744E+02 -0.57330065283E+02 -0.22128856306E+03  0.22925329558E+03  0.00000000000E+00 0. -1.
         11    1    4    4    0    0 -0.33162690810E+02  0.17026857862E+02 -0.66084657717E+02  0.75873974036E+02  0.00000000000E+00 0.  1.
          1    1    1    2  501    0 -0.59853752935E+01 -0.45834471021E+02 -0.26552635207E+03  0.26951969704E+03  0.00000000000E+00 0. -1.
<scales pt_clust_5="13000.00000" pt_clust_6="13000.00000" pt_clust_7="13000.00000" pt_clust_8="13000.00000" pt_clust_9="46.22365"></scales>
<clustering>
<clus scale="   46.224">  1  9  2 -1</clus>
<clus scale="   80.035">  5  6 -1 -1</clus>
<clus scale="   92.981">  7  8 -1 -1</clus>
<clus scale="  104.906">  2  5  1 -1</clus>
<clus scale="   46.224">  1  5  2 -1</clus>
</clustering>
</event>
<event>
 9    2  0.3745229E-005  0.1091177E+03  0.7546771E-02  0.1263107E+00
          2   -1    0    0  502    0 -0.00000000000E+00  0.00000000000E+00  0.42634223758E+02  0.42634223758E+02  0.00000000000E+00 0. -1.
         21   -1    0    0  501  502  0.00000000000E+00 -0.00000000000E+00 -0.63450800955E+03  0.63450800955E+03  0.00000000000E+00 0.  1.
         23    2    1    2    0    0  0.70953979943E+02  0.15656733818E+02 -0.63607037265E+02  0.12766209762E+03  0.83499433508E+02 0.  0.
         24    2    1    2    0    0 -0.47935902675E+02 -0.48517433655E+02 -0.43933254343E+03  0.45191502763E+03  0.81008125161E+02 0.  0.
        -11    1    4    4    0    0 -0.45612905007E+02 -0.58867466035E+02 -0.43341934173E+03  0.43977066915E+03  0.00000000000E+00 0.  1.
         12    1    4    4    0    0 -0.23229976674E+01  0.10350032380E+02 -0.59132017054E+01  0.12144358478E+02  0.00000000000E+00 0. -1.
        -13    1    3    3    0    0  0.51974824671E+00  0.36957175452E+02 -0.18241263307E+02  0.41217067371E+02  0.00000000000E+00 0. -1.
         13    1    3    3    0    0  0.70434231697E+02 -0.21300441633E+02 -0.45365773959E+02  0.86445030252E+02  0.00000000000E+00 0.  1.
          1    1    1    2  501    0 -0.23018077269E+02  0.32860699837E+02 -0.88934205095E+02  0.97565108060E+02  0.00000000000E+00 0. -1.
<scales pt_clust_5="13000.00000" pt_clust_6="13000.00000" pt_clust_7="13000.00000" pt_clust_8="13000.00000" pt_clust_9="40.12054"></scales>
<clustering>
<clus scale="   40.121">  2  9  1 -1</clus>
<clus scale="   81.008">  5  6 -1 -1</clus>
<clus scale="   83.499">  7  8 -1 -1</clus>
<clus scale="  107.223">  2  5  1 -1</clus>
<clus scale="   40.121">  2  5  1 -1</clus>
</clustering>
</event>
<event>
 9    2  0.3745229E-005  0.6509614E+03  0.7546771E-02  0.1020477E+00
          2   -1    0    0  502    0 -0.00000000000E+00  0.00000000000E+00  0.90652735507E+03  0.90652735507E+03  0.00000000000E+00 0. -1.
         21   -1    0    0  501  502  0.00000000000E+00 -0.00000000000E+00 -0.63819458981E+03  0.63819458981E+03  0.00000000000E+00 0. -1.
         23    2    1    2    0    0 -0.15170881305E+03  0.34201705673E+02  0.14064194256E+03  0.23221285752E+03  0.99786444778E+02 0.  0.
         24    2    1    2    0    0 -0.18415943950E+03 -0.60839774347E+03  0.78837985964E+02  0.64550446027E+03  0.79987916514E+02 0.  0.
        -13    1    4    4    0    0 -0.29615904062E+02 -0.53964300622E+02 -0.12272850451E+02  0.62768386734E+02  0.00000000000E+00 0.  1.
         14    1    4    4    0    0 -0.15454353544E+03 -0.55443344285E+03  0.91110836415E+02  0.58273607354E+03  0.00000000000E+00 0. -1.
        -11    1    3    3    0    0 -0.33857338296E+02 -0.85675756494E+01 -0.99013708595E+01  0.36300962163E+02  0.00000000000E+00 0.  1.
         11    1    3    3    0    0 -0.11785147475E+03  0.42769281322E+02  0.15054331342E+03  0.19591189535E+03  0.00000000000E+00 0. -1.
          1    1    1    2  501    0  0.33586825255E+03  0.57419603779E+03  0.48852836738E+02  0.66700462708E+03  0.00000000000E+00 0. -1.
<scales pt_clust_5="13000.00000" pt_clust_6="13000.00000" pt_clust_7="13000.00000" pt_clust_8="13000.00000" pt_clust_9="646.02839"></scales>
<clustering>
<clus scale="   79.988">  5  6 -1 -1</clus>
<clus scale="   99.786">  7  8 -1 -1</clus>
<clus scale="  184.777">  1  7  2 -1</clus>
<clus scale="  646.028">  2  9  1 -1</clus>
<clus scale="  646.028">  2  5  1 -1</clus>
</clustering>
</event>
<event>
 9    2  0.3745229E-005  0.9879367E+02  0.7546771E-02  0.1291493E+00
         21   -1    0    0  501  502  0.00000000000E+00  0.00000000000E+00  0.78622304941E+02  0.78622304941E+02  0.00000000000E+00 0.  1.
         -1   -1    0    0    0  501 -0.00000000000E+00 -0.00000000000E+00 -0.28033960421E+03  0.28033960421E+03  0.00000000000E+00 0.  1.
         23    2    1    2    0    0 -0.13495377229E+02 -0.20811310259E+02 -0.19432681088E+03  0.21810870441E+03  0.95881498065E+02 0.  0.
         24    2    1    2    0    0 -0.58597481462E+01  0.26598633870E+02 -0.46456779237E+02  0.96872651396E+02  0.80524867459E+02 0.  0.
        -11    1    4    4    0    0  0.25950578649E+02 -0.13048027618E+02 -0.33652345414E+02  0.44454065155E+02  0.00000000000E+00 0.  1.
         12    1    4    4    0    0 -0.31810326795E+02  0.39646661488E+02 -0.12804433823E+02  0.52418586241E+02  0.00000000000E+00 0. -1.
        -13    1    3    3    0    0  0.23584727523E+02 -0.60583468324E+01 -0.53069283147E+01  0.24922006878E+02  0.00000000000E+00 0. -1.
         13    1    3    3    0    0 -0.37080104752E+02 -0.14752963426E+02 -0.18901988256E+03  0.19318669753E+03  0.00000000000E+00 0.  1.
         -2    1    1    2    0  502  0.19355125375E+02 -0.57873236112E+01  0.39066290843E+02  0.43980553351E+02  0.00000000000E+00 0.  1.
<scales pt_clust_5="13000.00000" pt_clust_6="13000.00000" pt_clust_7="13000.00000" pt_clust_8="13000.00000" pt_clust_9="20.20183"></scales>
<clustering>
<clus scale="   20.202">  1  9  2 -1</clus>
<clus scale="   80.525">  5  6 -1 -1</clus>
<clus scale="   83.971">  1  5  2 -1</clus>
<clus scale="   95.881">  7  8 -1 -1</clus>
<clus scale="   20.202">  1  5  2 -1</clus>
</clustering>
</event>
<event>
 9    2  0.3745229E-005  0.1103690E+03  0.7546771E-02  0.1263447E+00
         -1   -1    0    0    0  501 -0.00000000000E+00  0.00000000000E+00  0.65772466809E+03  0.65772466809E+03  0.00000000000E+00 0.  1.
         21   -1    0    0  501  502  0.00000000000E+00 -0.00000000000E+00 -0.35145120521E+02  0.35145120521E+02  0.00000000000E+00 0.  1.
         23    2    1    2    0    0 -0.41589628234E+02 -0.59606519528E+02  0.27722895982E+03  0.29532362758E+03  0.71256680385E+02 0.  0.
         24    2    1    2    0    0  0.80893857445E+02  0.26149376528E+02  0.31798410947E+03  0.33912418755E+03  0.81631578699E+02 0.  0.
        -11    1    4    4    0    0  0.85836451358E+02  0.44530325127E+02  0.28599532313E+03  0.30190092927E+03  0.00000000000E+00 0.  1.
         12    1    4    4    0    0 -0.49425939134E+01 -0.18380948599E+02  0.31988786342E+02  0.37223258288E+02  0.00000000000E+00 0. -1.
        -13    1    3    3    0    0 -0.41975726570E+02 -0.12747798712E+02  0.68083523980E+02  0.80992803574E+02  0.00000000000E+00 0. -1.
         13    1    3    3    0    0  0.38609833638E+00 -0.46858720816E+02  0.20914543584E+03  0.21433082401E+03  0.00000000000E+00 0.  1.
         -2    1    1    2    0  502 -0.39304229210E+02  0.33457143000E+02  0.27366478276E+02  0.58421973476E+02  0.00000000000E+00 0.  1.
<scales pt_clust_5="13000.00000" pt_clust_6="13000.00000" pt_clust_7="13000.00000" pt_clust_8="13000.00000" pt_clust_9="51.61592"></scales>
<clustering>
<clus scale="   51.616">  2  9  1 -1</clus>
<clus scale="   71.257">  7  8 -1 -1</clus>
<clus scale="   81.632">  5  6 -1 -1</clus>
<clus scale="  102.933">  1  7  2 -1</clus>
<clus scale="   51.616">  2  5  1 -1</clus>
</clustering>
</event>
<event>
 9    2  0.3745229E-005  0.9730401E+02  0.7546771E-02  0.1292629E+00
         -1   -1    0    0    0  501 -0.00000000000E+00  0.00000000000E+00  0.28753214171E+03  0.28753214171E+03  0.00000000000E+00 0.  1.
         21   -1    0    0  501  502  0.00000000000E+00 -0.00000000000E+00 -0.29769070440E+03  0.29769070440E+03  0.00000000000E+00 0. -1.
         24    2    1    2    0    0  0.66993525446E+01  0.36611422289E+02  0.26569003824E+03  0.27923934993E+03  0.77447663383E+02 0.  0.
         23    2    1    2    0    0 -0.32767044792E+02 -0.41854318623E+02 -0.23646154619E+03  0.25846136848E+03  0.89792833535E+02 0.  0.
        -13    1    3    3    0    0  0.32662785047E+01  0.56622458872E+02  0.12723663829E+03  0.13930518134E+03  0.00000000000E+00 0.  1.
         14    1    3    3    0    0  0.34330740399E+01 -0.20011036583E+02  0.13845339995E+03  0.13993416859E+03  0.00000000000E+00 0. -1.
        -13    1    4    4    0    0  0.26391183831E+02 -0.30302401209E+02 -0.13060476175E+03  0.13664674857E+03  0.00000000000E+00 0. -1.
         13    1    4    4    0    0 -0.59158228624E+02 -0.11551917414E+02 -0.10585678444E+03  0.12181461990E+03  0.00000000000E+00 0.  1.
         -2    1    1    2    0  502  0.26067692248E+02  0.52428963344E+01 -0.39387054735E+02  0.47522127707E+02  0.00000000000E+00 0.  1.
<scales pt_clust_5="13000.00000" pt_clust_6="13000.00000" pt_clust_7="13000.00000" pt_clust_8="13000.00000" pt_clust_9="26.58971"></scales>
<clustering>
<clus scale="   26.590">  2  9  1 -1</clus>
<clus scale="   77.448">  5  6 -1 -1</clus>
<clus scale="   86.043">  1  5  2 -1</clus>
<clus scale="   89.793">  7  8 -1 -1</clus>
<clus scale="   26.590">  2  5  1 -1</clus>
</clustering>
</event>
<event>
 9    2  0.3745229E-005  0.1006247E+03  0.7546771E-02  0.1287980E+00
         -1   -1    0    0    0  501 -0.00000000000E+00  0.00000000000E+00  0.37421976570E+03  0.37421976570E+03  0.00000000000E+00 0.  1.
         21   -1    0    0  501  502  0.00000000000E+00 -0.00000000000E+00 -0.70359279617E+02  0.70359279617E+02  0.00000000000E+00 0.  1.
         23    2    1    2    0    0 -0.42314911475E+02  0.17846047471E+02  0.21653124975E+03  0.24058760787E+03  0.94273972013E+02 0.  0.
         24    2    1    2    0    0  0.26686002702E+02  0.30336576617E+01  0.13023372979E+03  0.15378167312E+03  0.77243982247E+02 0.  0.
        -13    1    4    4    0    0 -0.48586148939E+01  0.29292165238E+02  0.95513526802E+02  0.10002235193E+03  0.00000000000E+00 0.  1.
         14    1    4    4    0    0  0.31544617596E+02 -0.26258507576E+02  0.34720202985E+02  0.53759321189E+02  0.00000000000E+00 0. -1.
        -13    1    3    3    0    0 -0.32589447050E+02 -0.22993030519E+02  0.18173648663E+03  0.18606155456E+03  0.00000000000E+00 0.  1.
         13    1    3    3    0    0 -0.97254644245E+01  0.40839077990E+02  0.34794763119E+02  0.54526053312E+02  0.00000000000E+00 0. -1.
         -2    1    1    2    0  502  0.15628908773E+02 -0.20879705133E+02 -0.42904493452E+02  0.50209764332E+02  0.00000000000E+00 0.  1.
<scales pt_clust_5="13000.00000" pt_clust_6="13000.00000" pt_clust_7="13000.00000" pt_clust_8="13000.00000" pt_clust_9="26.08112"></scales>
<clustering>
<clus scale="   26.081">  2  9  1 -1</clus>
<clus scale="   77.244">  5  6 -1 -1</clus>
<clus scale="   84.879">  2  5  1 -1</clus>
<clus scale="   94.274">  7  8 -1 -1</clus>
<clus scale="   26.081">  2  5  1 -1</clus>
</clustering>
</event>
<event>
 9    2  0.3745229E-005  0.1236376E+03  0.7546771E-02  0.1241544E+00
         -1   -1    0    0    0  501 -0.00000000000E+00  0.00000000000E+00  0.66532568214E+02  0.66532568214E+02  0.00000000000E+00 0.  1.
         21   -1    0    0  501  502  0.00000000000E+00 -0.00000000000E+00 -0.70480063663E+03  0.70480063663E+03  0.00000000000E+00 0.  1.
         24    2    1    2    0    0 -0.83347178790E+02 -0.22914862403E+02 -0.12731723531E+02  0.11848178520E+03  0.80024955539E+02 0.  0.
         23    2    1    2    0    0  0.31849859791E+02  0.59762734846E+02 -0.30934874521E+03  0.33038539391E+03  0.94190574352E+02 0.  0.
        -11    1    3    3    0    0 -0.74519514046E+02 -0.40606827025E+02 -0.32167241734E+02  0.90756838946E+02  0.00000000000E+00 0.  1.
         12    1    3    3    0    0 -0.88276647442E+01  0.17691964622E+02  0.19435518203E+02  0.27724946255E+02  0.00000000000E+00 0. -1.
        -13    1    4    4    0    0 -0.99482190131E+01  0.71711929289E+02 -0.18542947918E+03  0.19906194918E+03  0.00000000000E+00 0.  1.
         13    1    4    4    0    0  0.41798078805E+02 -0.11949194443E+02 -0.12391926604E+03  0.13132344473E+03  0.00000000000E+00 0. -1.
         -2    1    1    2    0  502  0.51497318999E+02 -0.36847872443E+02 -0.31618759967E+03  0.32246602573E+03  0.00000000000E+00 0.  1.
<scales pt_clust_5="13000.00000" pt_clust_6="13000.00000" pt_clust_7="13000.00000" pt_clust_8="13000.00000" pt_clust_9="63.32250"></scales>
<clustering>
<clus scale="   63.323">  2  9  1 -1</clus>
<clus scale="   80.025">  5  6 -1 -1</clus>
<clus scale="   94.191">  7  8 -1 -1</clus>
<clus scale="  113.218">  1  5  2 -1</clus>
<clus scale="   63.323">  2  5  1 -1</clus>
</clustering>
</event>
<event>
 9    2  0.3745229E-005  0.1286708E+03  0.7546771E-02  0.1236229E+00
         21   -1    0    0  501  502  0.00000000000E+00  0.00000000000E+00  0.16980507799E+02  0.16980507799E+02  0.00000000000E+00 0.  1.
          2   -1    0    0  502    0 -0.00000000000E+00 -0.00000000000E+00 -0.20432891714E+04  0.20432891714E+04  0.00000000000E+00 0. -1.
         24    2    1    2    0    0 -0.69469191477E+02  0.92940051808E+01 -0.48429796250E+03  0.49706116610E+03  0.87252159106E+02 0.  0.
         23    2    1    2    0    0 -0.38504930559E+02 -0.70894640388E+02 -0.52929414565E+03  0.54289097871E+03  0.89831188540E+02 0.  0.
        -11    1    3    3    0    0 -0.47164418570E+02  0.34841670600E+02 -0.15010707325E+03  0.16115383281E+03  0.00000000000E+00 0.  1.
         12    1    3    3    0    0 -0.22304772907E+02 -0.25547665419E+02 -0.33419088925E+03  0.33590733329E+03  0.00000000000E+00 0. -1.
        -13    1    4    4    0    0 -0.66893041154E+02 -0.42178132412E+02 -0.38592580001E+03  0.39394466226E+03  0.00000000000E+00 0.  1.
         13    1    4    4    0    0  0.28388110596E+02 -0.28716507977E+02 -0.14336834564E+03  0.14894631645E+03  0.00000000000E+00 0. -1.
          1    1    1    2  501    0  0.10797412204E+03  0.61600635208E+02 -0.10127165554E+04  0.10203175344E+04  0.00000000000E+00 0. -1.
<scales pt_clust_5="13000.00000" pt_clust_6="13000.00000" pt_clust_7="13000.00000" pt_clust_8="13000.00000" pt_clust_9="92.12243"></scales>
<clustering>
<clus scale="   87.252">  5  6 -1 -1</clus>
<clus scale="   89.831">  7  8 -1 -1</clus>
<clus scale="  111.916">  2  5  1 -1</clus>
<clus scale="   92.122">  1  9  2 -1</clus>
<clus scale="   92.122">  1  5  2 -1</clus>
</clustering>
</event>
<event>
 9    2  0.3745229E-005  0.2798225E+03  0.7546771E-02  0.1095997E+00
         21   -1    0    0  501  502  0.00000000000E+00  0.00000000000E+00  0.16189046394E+03  0.16189046394E+03  0.00000000000E+00 0. -1.
         -3   -1    0    0    0  501 -0.00000000000E+00 -0.00000000000E+00 -0.59844044514E+03  0.59844044514E+03  0.00000000000E+00 0.  1.
         23    2    1    2    0    0 -0.31370993346E+02 -0.25940062502E+03 -0.32379227136E+03  0.42611968486E+03  0.91998518154E+02 0.  0.
         24    2    1    2    0    0  0.12062500280E+02  0.26524161956E+03 -0.12675457963E+03  0.30965827154E+03  0.96555170845E+02 0.  0.
        -11    1    4    4    0    0 -0.38062987263E+02  0.58662906801E+02 -0.29623022470E+02  0.75945053124E+02  0.00000000000E+00 0.  1.
         12    1    4    4    0    0  0.50125487543E+02  0.20657871275E+03 -0.97131557155E+02  0.23371321841E+03  0.00000000000E+00 0. -1.
        -11    1    3    3    0    0 -0.62212337358E+01 -0.13693186102E+03 -0.23746443972E+03  0.27418679480E+03  0.00000000000E+00 0.  1.
         11    1    3    3    0    0 -0.25149759610E+02 -0.12246876401E+03 -0.86327831648E+02  0.15193289006E+03  0.00000000000E+00 0. -1.
         -4    1    1    2    0  502  0.19308493066E+02 -0.58409945313E+01  0.13996869796E+02  0.24552952688E+02  0.00000000000E+00 0.  1.
<scales pt_clust_5="13000.00000" pt_clust_6="13000.00000" pt_clust_7="13000.00000" pt_clust_8="13000.00000" pt_clust_9="20.17263"></scales>
<clustering>
<clus scale="   20.173">  1  9  2 -1</clus>
<clus scale="   91.999">  7  8 -1 -1</clus>
<clus scale="   96.555">  5  6 -1 -1</clus>
<clus scale="  278.283">  2  7  1 -1</clus>
<clus scale="   20.173">  1  5  2 -1</clus>
</clustering>
</event>
<event>
 9    2  0.3745229E-005  0.9118529E+02  0.7546771E-02  0.1304773E+00
         21   -1    0    0  501  502  0.00000000000E+00  0.00000000000E+00  0.50031557174E+03  0.50031557174E+03  0.00000000000E+00 0.  1.
         -3   -1    0    0    0  501 -0.00000000000E+00 -0.00000000000E+00 -0.54764068818E+02  0.54764068818E+02  0.00000000000E+00 0.  1.
         23    2    1    2    0    0  0.17035226547E+02  0.12959408645E+02  0.19436309616E+02  0.94560163696E+02  0.90031712250E+02 0.  0.
         24    2    1    2    0    0  0.48043914258E+02 -0.18917329620E+02  0.16612310572E+03  0.19243986742E+03  0.82280819527E+02 0.  0.
        -11    1    4    4    0    0  0.65589823374E+02 -0.47238254864E+01  0.15251194338E+03  0.16608501537E+03  0.00000000000E+00 0.  1.
         12    1    4    4    0    0 -0.17545909116E+02 -0.14193504134E+02  0.13611162338E+02  0.26354852048E+02  0.00000000000E+00 0. -1.
        -11    1    3    3    0    0  0.48548561299E+02  0.14822456484E+02  0.32631873773E+02  0.60344902074E+02  0.00000000000E+00 0.  1.
         11    1    3    3    0    0 -0.31513334751E+02 -0.18630478387E+01 -0.13195564157E+02  0.34215261621E+02  0.00000000000E+00 0. -1.
         -4    1    1    2    0  502 -0.65079140806E+02  0.59579209748E+01  0.25999208759E+03  0.26807960944E+03  0.00000000000E+00 0.  1.
<scales pt_clust_5="13000.00000" pt_clust_6="13000.00000" pt_clust_7="13000.00000" pt_clust_8="13000.00000" pt_clust_9="65.35129"></scales>
<clustering>
<clus scale="   65.351">  1  9  2 -1</clus>
<clus scale="   82.281">  5  6 -1 -1</clus>
<clus scale="   83.541">  1  5  2 -1</clus>
<clus scale="   90.032">  7  8 -1 -1</clus>
<clus scale="   65.351">  1  5  2 -1</clus>
</clustering>
</event>
<event>
 9    2  0.3745229E-005  0.9854355E+02  0.7546771E-02  0.1289474E+00
         21   -1    0    0  501  502  0.00000000000E+00  0.00000000000E+00  0.26228518808E+03  0.26228518808E+03  0.00000000000E+00 0. -1.
          4   -1    0    0  502    0 -0.00000000000E+00 -0.00000000000E+00 -0.18793896842E+03  0.18793896842E+03  0.00000000000E+00 0. -1.
         23    2    1    2    0    0 -0.32214722460E+02 -0.16321009122E+02 -0.15718911229E+03  0.18564072336E+03  0.91923323827E+02 0.  0.
         24    2    1    2    0    0  0.36314061368E+02 -0.14863777432E+02  0.20413060836E+03  0.22286635790E+03  0.80377019621E+02 0.  0.
        -11    1    4    4    0    0  0.72520622910E+01 -0.44609168636E+02  0.13302578876E+03  0.14049352586E+03  0.00000000000E+00 0.  1.
         12    1    4    4    0    0  0.29061999077E+02  0.29745391203E+02  0.71104819598E+02  0.82372832040E+02  0.00000000000E+00 0. -1.
        -11    1    3    3    0    0  0.23851927767E+02 -0.17318417962E+02 -0.15595615831E+02  0.33347642976E+02  0.00000000000E+00 0.  1.
         11    1    3    3    0    0 -0.56066650227E+02  0.99740883974E+00 -0.14159349646E+03  0.15229308038E+03  0.00000000000E+00 0. -1.
          3    1    1    2  501    0 -0.40993389084E+01  0.31184786554E+02  0.27404723586E+02  0.41717075242E+02  0.00000000000E+00 0. -1.
<scales pt_clust_5="13000.00000" pt_clust_6="13000.00000" pt_clust_7="13000.00000" pt_clust_8="13000.00000" pt_clust_9="31.45307"></scales>
<clustering>
<clus scale="   31.453">  1  9  2 -1</clus>
<clus scale="   80.377">  5  6 -1 -1</clus>
<clus scale="   87.871">  1  5  2 -1</clus>
<clus scale="   91.923">  7  8 -1 -1</clus>
<clus scale="   31.453">  1  5  2 -1</clus>
</clustering>
</event>
<event>
 9    2  0.3745229E-005  0.9781088E+02  0.7546771E-02  0.1292979E+00
         21   -1    0    0  501  502  0.00000000000E+00  0.00000000000E+00  0.37659774515E+03  0.37659774515E+03  0.00000000000E+00 0. -1.
         -3   -1    0    0    0  501 -0.00000000000E+00 -0.00000000000E+00 -0.79068027941E+02  0.79068027941E+02  0.00000000000E+00 0.  1.
         23    2    1    2    0    0 -0.14921288640E+02  0.32208212097E+02 -0.36193198694E+02  0.10505957215E+03  0.92019303882E+02 0.  0.
         24    2    1    2    0    0  0.22528964738E+02 -0.71017555191E+01  0.23883120776E+03  0.25215495833E+03  0.77354948307E+02 0.  0.
        -11    1    4    4    0    0 -0.22675619341E+02 -0.15928112664E+02  0.14505858556E+03  0.14768169057E+03  0.00000000000E+00 0.  1.
         12    1    4    4    0    0  0.45204584079E+02  0.88263571450E+01  0.93772622206E+02  0.10447326777E+03  0.00000000000E+00 0. -1.
        -11    1    3    3    0    0 -0.31412372139E+02  0.51545498328E+02 -0.47918849798E+02  0.77070692791E+02  0.00000000000E+00 0.  1.
         11    1    3    3    0    0  0.16491083499E+02 -0.19337286231E+02  0.11725651105E+02  0.27988879356E+02  0.00000000000E+00 0. -1.
         -4    1    1    2    0  502 -0.76076760987E+01 -0.25106456578E+02  0.94891708137E+02  0.98451242606E+02  0.00000000000E+00 0.  1.
<scales pt_clust_5="13000.00000" pt_clust_6="13000.00000" pt_clust_7="13000.00000" pt_clust_8="13000.00000" pt_clust_9="26.23377"></scales>
<clustering>
<clus scale="   26.234">  1  9  2 -1</clus>
<clus scale="   77.355">  5  6 -1 -1</clus>
<clus scale="   84.162">  1  5  2 -1</clus>
<clus scale="   92.019">  7  8 -1 -1</clus>
<clus scale="   26.234">  1  5  2 -1</clus>
</clustering>
</event>
<event>
 9    2  0.3745229E-005  0.9310530E+02  0.7546771E-02  0.1303224E+00
         21   -1    0    0  501  502  0.00000000000E+00  0.00000000000E+00  0.30273825142E+03  0.30273825142E+03  0.00000000000E+00 0.  1.
         -3   -1    0    0    0  501 -0.00000000000E+00 -0.00000000000E+00 -0.42782672486E+02  0.42782672486E+02  0.00000000000E+00 0.  1.
         24    2    1    2    0    0  0.99065151835E+01  0.12653963848E+02  0.33439632341E+02  0.86428093543E+02  0.78059877647E+02 0.  0.
         23    2    1    2    0    0 -0.15902024682E+02 -0.34345887266E+02  0.20748100538E+03  0.22961716815E+03  0.90791860626E+02 0.  0.
        -11    1    3    3    0    0  0.72660668697E+01  0.30052552961E+02  0.52222838300E+02  0.60689179492E+02  0.00000000000E+00 0.  1.
         12    1    3    3    0    0  0.26404483137E+01 -0.17398589114E+02 -0.18783205959E+02  0.25738914051E+02  0.00000000000E+00 0. -1.
        -11    1    4    4    0    0 -0.32971491522E+02 -0.49808143193E+02  0.19387243122E+03  0.20286569441E+03  0.00000000000E+00 0.  1.
         11    1    4    4    0    0  0.17069466840E+02  0.15462255927E+02  0.13608574153E+02  0.26751473735E+02  0.00000000000E+00 0. -1.
         -4    1    1    2    0  502  0.59955094986E+01  0.21691923418E+02  0.19034941212E+02  0.29475662209E+02  0.00000000000E+00 0.  1.
<scales pt_clust_5="13000.00000" pt_clust_6="13000.00000" pt_clust_7="13000.00000" pt_clust_8="13000.00000" pt_clust_9="22.50525"></scales>
<clustering>
<clus scale="   22.505">  1  9  2 -1</clus>
<clus scale="   78.060">  5  6 -1 -1</clus>
<clus scale="   80.739">  2  5  1 -1</clus>
<clus scale="   90.792">  7  8 -1 -1</clus>
<clus scale="   22.505">  1  5  2 -1</clus>
</clustering>
</event>
<event>
 9    2  0.3745229E-005  0.9809988E+02  0.7546771E-02  0.1290710E+00
         21   -1    0    0  501  502  0.00000000000E+00  0.00000000000E+00  0.26993265856E+02  0.26993265856E+02  0.00000000000E+00 0.  1.
          2   -1    0    0  502    0 -0.00000000000E+00 -0.00000000000E+00 -0.50013436350E+03  0.50013436350E+03  0.00000000000E+00 0. -1.
         23    2    1    2    0    0 -0.43086076376E+01 -0.36356374449E+02 -0.27962823163E+03  0.29650862020E+03  0.91569994349E+02 0.  0.
         24    2    1    2    0    0 -0.29827142239E+02  0.30486382746E+02 -0.13022112667E+03  0.15846950818E+03  0.79598776650E+02 0.  0.
        -11    1    4    4    0    0 -0.20717374980E+02  0.32416185240E+01  0.38804176314E+01  0.21325462661E+02  0.00000000000E+00 0.  1.
         12    1    4    4    0    0 -0.91097672595E+01  0.27244764222E+02 -0.13410154430E+03  0.13714404552E+03  0.00000000000E+00 0. -1.
        -11    1    3    3    0    0 -0.80598799206E+01  0.22590160571E+02 -0.23213315637E+02  0.33378661475E+02  0.00000000000E+00 0.  1.
         11    1    3    3    0    0  0.37512722830E+01 -0.58946535020E+02 -0.25641491599E+03  0.26312995872E+03  0.00000000000E+00 0. -1.
          1    1    1    2  501    0  0.34135749877E+02  0.58699917025E+01 -0.63291739346E+02  0.72149500980E+02  0.00000000000E+00 0. -1.
<scales pt_clust_5="13000.00000" pt_clust_6="13000.00000" pt_clust_7="13000.00000" pt_clust_8="13000.00000" pt_clust_9="34.63678"></scales>
<clustering>
<clus scale="   34.637">  1  9  2 -1</clus>
<clus scale="   79.599">  5  6 -1 -1</clus>
<clus scale="   87.032">  1  5  2 -1</clus>
<clus scale="   91.570">  7  8 -1 -1</clus>
<clus scale="   34.637">  1  5  2 -1</clus>
</clustering>
</event>
<event>
 9    2  0.3745229E-005  0.9412371E+02  0.7546771E-02  0.1298471E+00
          2   -1    0    0  502    0 -0.00000000000E+00  0.00000000000E+00  0.10495067502E+03  0.10495067502E+03  0.00000000000E+00 0. -1.
         21   -1    0    0  501  502  0.00000000000E+00 -0.00000000000E+00 -0.17485948416E+03  0.17485948416E+03  0.00000000000E+00 0. -1.
         24    2    1    2    0    0 -0.84998050463E+01 -0.88940097819E+00 -0.45699229237E+02  0.93768008209E+02  0.81430842381E+02 0.  0.
         23    2    1    2    0    0  0.30328466485E+02  0.41614685893E+02 -0.66297199965E+02  0.12354089456E+03  0.90639042048E+02 0.  0.
        -11    1    3    3    0    0  0.56373623406E+01 -0.39511634700E+02 -0.29203515204E+02  0.49454973775E+02  0.00000000000E+00 0.  1.
         12    1    3    3    0    0 -0.14137167387E+02  0.38622233721E+02 -0.16495714033E+02  0.44313034435E+02  0.00000000000E+00 0. -1.
        -11    1    4    4    0    0  0.45707463445E+02 -0.12468191863E+02 -0.37164629596E+02  0.60214929344E+02  0.00000000000E+00 0. -1.
         11    1    4    4    0    0 -0.15378996960E+02  0.54082877756E+02 -0.29132570370E+02  0.63325965213E+02  0.00000000000E+00 0.  1.
          1    1    1    2  501    0 -0.21828661439E+02 -0.40725284915E+02  0.42087620057E+02  0.62501256417E+02  0.00000000000E+00 0. -1.
<scales pt_clust_5="13000.00000" pt_clust_6="13000.00000" pt_clust_7="13000.00000" pt_clust_8="13000.00000" pt_clust_9="46.20651"></scales>
<clustering>
<clus scale="   46.207">  2  9  1 -1</clus>
<clus scale="   81.431">  5  6 -1 -1</clus>
<clus scale="   85.293">  1  5  2 -1</clus>
<clus scale="   90.639">  7  8 -1 -1</clus>
<clus scale="   46.207">  2  5  1 -1</clus>
</clustering>
</event>
<event>
 9    2  0.3745229E-005  0.1046105E+03  0.7546771E-02  0.1274486E+00
          2   -1    0    0  502    0 -0.00000000000E+00  0.00000000000E+00  0.16097774627E+03  0.16097774627E+03  0.00000000000E+00 0. -1.
         21   -1    0    0  501  502  0.00000000000E+00 -0.00000000000E+00 -0.96241136466E+02  0.96241136466E+02  0.00000000000E+00 0.  1.
         24    2    1    2    0    0 -0.88395842911E+01 -0.58116844062E+02  0.88620477718E+02  0.13393131858E+03  0.81414391915E+02 0.  0.
         23    2    1    2    0    0 -0.48761518313E+01  0.42213823560E+02 -0.14550947217E+02  0.10030646568E+03  0.89687642600E+02 0.  0.
        -13    1    3    3    0    0 -0.37118482064E+02 -0.25961564414E+01  0.42007859996E+02  0.56117573366E+02  0.00000000000E+00 0.  1.
         14    1    3    3    0    0  0.28278897773E+02 -0.55520687620E+02  0.46612617722E+02  0.77813745212E+02  0.00000000000E+00 0. -1.
        -11    1    4    4    0    0  0.14601543512E+02  0.19020024699E+02  0.34884417792E+02  0.42330710095E+02  0.00000000000E+00 0. -1.
         11    1    4    4    0    0 -0.19477695343E+02  0.23193798861E+02 -0.49435365009E+02  0.57975755580E+02  0.00000000000E+00 0.  1.
          1    1    1    2  501    0  0.13715736122E+02  0.15903020502E+02 -0.93329207006E+01  0.22981098478E+02  0.00000000000E+00 0. -1.
<scales pt_clust_5="13000.00000" pt_clust_6="13000.00000" pt_clust_7="13000.00000" pt_clust_8="13000.00000" pt_clust_9="21.00065"></scales>
<clustering>
<clus scale="   21.001">  2  9  1 -1</clus>
<clus scale="   81.414">  5  6 -1 -1</clus>
<clus scale="   89.688">  7  8 -1 -1</clus>
<clus scale="   97.610">  1  5  2 -1</clus>
<clus scale="   21.001">  2  5  1 -1</clus>
</clustering>
</event>
<event>
 9    2  0.3745229E-005  0.1033710E+03  0.7546771E-02  0.1278363E+00
         21   -1    0    0  501  502  0.00000000000E+00  0.00000000000E+00  0.42025593178E+03  0.42025593178E+03  0.00000000000E+00 0.  1.
          4   -1    0    0  502    0 -0.00000000000E+00 -0.00000000000E+00 -0.55120578401E+02  0.55120578401E+02  0.00000000000E+00 0. -1.
         24    2    1    2    0    0 -0.38026211255E+02 -0.24244491468E+02  0.13066494147E+03  0.16392484386E+03  0.88114921531E+02 0.  0.
         23    2    1    2    0    0 -0.35278681343E+02  0.42042676648E+02  0.19793604939E+03  0.22763554425E+03  0.98117732029E+02 0.  0.
        -11    1    3    3    0    0 -0.43550633990E+02  0.10772978119E+02  0.11806539885E+03  0.12630183365E+03  0.00000000000E+00 0.  1.
         12    1    3    3    0    0  0.55244227348E+01 -0.35017469587E+02  0.12599542620E+02  0.37623010207E+02  0.00000000000E+00 0. -1.
        -13    1    4    4    0    0 -0.29320159052E+02  0.66399524650E+02  0.84196845255E+02  0.11116509052E+03  0.00000000000E+00 0. -1.
         13    1    4    4    0    0 -0.59585222910E+01 -0.24356848001E+02  0.11373920414E+03  0.11647045372E+03  0.00000000000E+00 0.  1.
          3    1    1    2  501    0  0.73304892598E+02 -0.17798185181E+02  0.36534362512E+02  0.83816122069E+02  0.00000000000E+00 0. -1.
<scales pt_clust_5="13000.00000" pt_clust_6="13000.00000" pt_clust_7="13000.00000" pt_clust_8="13000.00000" pt_clust_9="75.43466"></scales>
<clustering>
<clus scale="   75.435">  1  9  2 -1</clus>
<clus scale="   88.115">  5  6 -1 -1</clus>
<clus scale="   93.929">  2  5  1 -1</clus>
<clus scale="   98.118">  7  8 -1 -1</clus>
<clus scale="   75.435">  1  5  2 -1</clus>
</clustering>
</event>
<event>
 9    2  0.3745229E-005  0.9215955E+02  0.7546771E-02  0.1303149E+00
         -1   -1    0    0    0  501 -0.00000000000E+00  0.00000000000E+00  0.76013259370E+02  0.76013259370E+02  0.00000000000E+00 0.  1.
         21   -1    0    0  501  502  0.00000000000E+00 -0.00000000000E+00 -0.17288967902E+03  0.17288967902E+03  0.00000000000E+00 0.  1.
         24    2    1    2    0    0  0.11747921246E+02 -0.72789062190E+01 -0.28062204274E+02  0.87856743090E+02  0.82099475445E+02 0.  0.
         23    2    1    2    0    0  0.23994935927E+02  0.26049896832E+02 -0.70795267997E+02  0.12062557560E+03  0.91017610615E+02 0.  0.
        -11    1    3    3    0    0 -0.10343177790E+02 -0.27741499394E+02 -0.44576936223E+02  0.53513319449E+02  0.00000000000E+00 0.  1.
         12    1    3    3    0    0  0.22091099036E+02  0.20462593175E+02  0.16514731949E+02  0.34343423641E+02  0.00000000000E+00 0. -1.
        -11    1    4    4    0    0  0.54199175860E+02 -0.43507909728E+00 -0.55679684864E+02  0.77704358077E+02  0.00000000000E+00 0.  1.
         11    1    4    4    0    0 -0.30204239932E+02  0.26484975929E+02 -0.15115583133E+02  0.42921217519E+02  0.00000000000E+00 0. -1.
         -2    1    1    2    0  502 -0.35742857174E+02 -0.18770990613E+02  0.19810526248E+01  0.40420619701E+02  0.00000000000E+00 0.  1.
<scales pt_clust_5="13000.00000" pt_clust_6="13000.00000" pt_clust_7="13000.00000" pt_clust_8="13000.00000" pt_clust_9="40.37206"></scales>
<clustering>
<clus scale="   40.372">  2  9  1 -1</clus>
<clus scale="   82.099">  5  6 -1 -1</clus>
<clus scale="   83.364">  1  5  2 -1</clus>
<clus scale="   91.018">  7  8 -1 -1</clus>
<clus scale="   40.372">  2  5  1 -1</clus>
</clustering>
</event>
<event>
 9    2  0.3745229E-005  0.1125735E+03  0.7546771E-02  0.1261617E+00
         21   -1    0    0  501  502  0.00000000000E+00  0.00000000000E+00  0.28241684162E+03  0.28241684162E+03  0.00000000000E+00 0.  1.
          2   -1    0    0  502    0 -0.00000000000E+00 -0.00000000000E+00 -0.79206416291E+02  0.79206416291E+02  0.00000000000E+00 0. -1.
         23    2    1    2    0    0  0.39941391164E+02  0.60290681925E+02 -0.47814923695E+01  0.11658233049E+03  0.91314270836E+02 0.  0.
         24    2    1    2    0    0 -0.13374989317E+02 -0.51210253917E+02  0.11359599535E+03  0.14655835010E+03  0.75986310467E+02 0.  0.
        -11    1    4    4    0    0  0.20268465206E+02  0.61564384106E+01  0.99319593232E+01  0.23395645572E+02  0.00000000000E+00 0.  1.
         12    1    4    4    0    0 -0.33643454523E+02 -0.57366692328E+02  0.10366403602E+03  0.12316270452E+03  0.00000000000E+00 0. -1.
        -13    1    3    3    0    0  0.21752683250E+02  0.82717942312E+02  0.60449275627E+01  0.85743678240E+02  0.00000000000E+00 0.  1.
         13    1    3    3    0    0  0.18188707914E+02 -0.22427260387E+02 -0.10826419932E+02  0.30838652250E+02  0.00000000000E+00 0. -1.
          1    1    1    2  501    0 -0.26566401847E+02 -0.90804280073E+01  0.94395922357E+02  0.98482577330E+02  0.00000000000E+00 0. -1.
<scales pt_clust_5="13000.00000" pt_clust_6="13000.00000" pt_clust_7="13000.00000" pt_clust_8="13000.00000" pt_clust_9="28.07540"></scales>
<clustering>
<clus scale="   28.075">  1  9  2 -1</clus>
<clus scale="   75.986">  5  6 -1 -1</clus>
<clus scale="   91.314">  7  8 -1 -1</clus>
<clus scale="  100.541">  1  5  2 -1</clus>
<clus scale="   28.075">  1  5  2 -1</clus>
</clustering>
</event>
<event>
 9    2  0.3745229E-005  0.9788419E+02  0.7546771E-02  0.1294689E+00
         21   -1    0    0  501  502  0.00000000000E+00  0.00000000000E+00  0.18257658970E+02  0.18257658970E+02  0.00000000000E+00 0.  1.
          2   -1    0    0  502    0 -0.00000000000E+00 -0.00000000000E+00 -0.78066257328E+03  0.78066257328E+03  0.00000000000E+00 0. -1.
         24    2    1    2    0    0 -0.24861095387E+02 -0.60738569177E+01 -0.31861381008E+03  0.32959174530E+03  0.80380301029E+02 0.  0.
         23    2    1    2    0    0 -0.12216706698E+02 -0.22162092296E+02 -0.23721117029E+03  0.25755667263E+03  0.97087043664E+02 0.  0.
        -11    1    3    3    0    0 -0.19072235482E+02 -0.41187167761E+02 -0.22294482083E+03  0.22751818848E+03  0.00000000000E+00 0.  1.
         12    1    3    3    0    0 -0.57888599048E+01  0.35113310843E+02 -0.95668989249E+02  0.10207355682E+03  0.00000000000E+00 0. -1.
        -11    1    4    4    0    0 -0.47679108186E+02 -0.21148976207E+02 -0.74004448202E+02  0.90538582415E+02  0.00000000000E+00 0.  1.
         11    1    4    4    0    0  0.35462401488E+02 -0.10131160891E+01 -0.16320672209E+03  0.16701809022E+03  0.00000000000E+00 0. -1.
          1    1    1    2  501    0  0.37077802085E+02  0.28235949214E+02 -0.20657993394E+03  0.21177181432E+03  0.00000000000E+00 0. -1.
<scales pt_clust_5="13000.00000" pt_clust_6="13000.00000" pt_clust_7="13000.00000" pt_clust_8="13000.00000" pt_clust_9="46.60509"></scales>
<clustering>
<clus scale="   46.605">  1  9  2 -1</clus>
<clus scale="   80.380">  5  6 -1 -1</clus>
<clus scale="   81.341">  2  5  1 -1</clus>
<clus scale="   97.087">  7  8 -1 -1</clus>
<clus scale="   46.605">  1  5  2 -1</clus>
</clustering>
</event>
<event>
 9    2  0.3745229E-005  0.1128367E+03  0.7546771E-02  0.1255933E+00
         21   -1    0    0  501  502  0.00000000000E+00  0.00000000000E+00  0.23779923119E+03  0.23779923119E+03  0.00000000000E+00 0.  1.
         -1   -1    0    0    0  501 -0.00000000000E+00 -0.00000000000E+00 -0.31428597658E+03  0.31428597658E+03  0.00000000000E+00 0.  1.
         24    2    1    2    0    0  0.61443722222E+02  0.21113158325E+02 -0.25496911140E+03  0.27859289522E+03  0.91562312350E+02 0.  0.
         23    2    1    2    0    0 -0.59385751955E+02 -0.47005416602E+02  0.28283736732E+02  0.12106438690E+03  0.90113480049E+02 0.  0.
        -11    1    3    3    0    0  0.59589692977E+02  0.10450203515E+02 -0.25979246253E+03  0.26674381315E+03  0.00000000000E+00 0.  1.
         12    1    3    3    0    0  0.18540292451E+01  0.10662954810E+02  0.48233511358E+01  0.11849082070E+02  0.00000000000E+00 0. -1.
        -13    1    4    4    0    0 -0.34901308303E+02 -0.61246549776E+02 -0.12315843142E+02  0.71560611882E+02  0.00000000000E+00 0.  1.
         13    1    4    4    0    0 -0.24484443652E+02  0.14241133174E+02  0.40599579873E+02  0.49503775017E+02  0.00000000000E+00 0. -1.
         -2    1    1    2    0  502 -0.20579702672E+01  0.25892258277E+02  0.15019862928E+03  0.15242792565E+03  0.00000000000E+00 0.  1.
<scales pt_clust_5="13000.00000" pt_clust_6="13000.00000" pt_clust_7="13000.00000" pt_clust_8="13000.00000" pt_clust_9="25.97392"></scales>
<clustering>
<clus scale="   25.974">  1  9  2 -1</clus>
<clus scale="   90.113">  7  8 -1 -1</clus>
<clus scale="   91.562">  5  6 -1 -1</clus>
<clus scale="  111.664">  1  7  2 -1</clus>
<clus scale="   25.974">  1  5  2 -1</clus>
</clustering>
</event>
<event>
 9    2  0.3745229E-005  0.1145080E+03  0.7546771E-02  0.1256932E+00
         21   -1    0    0  501  502  0.00000000000E+00  0.00000000000E+00  0.20820651707E+03  0.20820651707E+03  0.00000000000E+00 0.  1.
          2   -1    0    0  502    0 -0.00000000000E+00 -0.00000000000E+00 -0.22223781990E+03  0.22223781990E+03  0.00000000000E+00 0. -1.
         24    2    1    2    0    0  0.24613526019E+02 -0.58987548843E+02 -0.13545926211E+03  0.17002689181E+03  0.80464747974E+02 0.  0.
         23    2    1    2    0    0 -0.60084134051E+02  0.82942170197E+02  0.15378190256E+03  0.20676331610E+03  0.92804571928E+02 0.  0.
        -13    1    3    3    0    0 -0.21340172986E+02 -0.17847226408E+02 -0.88504424628E+01  0.29193437710E+02  0.00000000000E+00 0.  1.
         14    1    3    3    0    0  0.45953699004E+02 -0.41140322436E+02 -0.12660881964E+03  0.14083345410E+03  0.00000000000E+00 0. -1.
        -13    1    4    4    0    0 -0.47721853780E+02 -0.15340026644E+01  0.83470442411E+02  0.96161547662E+02  0.00000000000E+00 0. -1.
         13    1    4    4    0    0 -0.12362280271E+02  0.84476172861E+02  0.70311460146E+02  0.11060176844E+03  0.00000000000E+00 0.  1.
          1    1    1    2  501    0  0.35470608033E+02 -0.23954621353E+02 -0.32353943287E+02  0.53654129055E+02  0.00000000000E+00 0. -1.
<scales pt_clust_5="13000.00000" pt_clust_6="13000.00000" pt_clust_7="13000.00000" pt_clust_8="13000.00000" pt_clust_9="42.80175"></scales>
<clustering>
<clus scale="   42.802">  1  9  2 -1</clus>
<clus scale="   80.465">  5  6 -1 -1</clus>
<clus scale="   92.805">  7  8 -1 -1</clus>
<clus scale="  104.757">  2  5  1 -1</clus>
<clus scale="   42.802">  1  5  2 -1</clus>
</clustering>
</event>
<event>
 9    2  0.3745229E-005  0.1020080E+03  0.7546771E-02  0.1286073E+00
         21   -1    0    0  501  502  0.00000000000E+00  0.00000000000E+00  0.42703565505E+02  0.42703565505E+02  0.00000000000E+00 0. -1.
          2   -1    0    0  502    0 -0.00000000000E+00 -0.00000000000E+00 -0.12251035340E+04  0.12251035340E+04  0.00000000000E+00 0. -1.
         24    2    1    2    0    0 -0.27436466466E+02 -0.10156446188E+02 -0.10460767846E+04  0.10495805991E+04  0.80541180220E+02 0.  0.
         23    2    1    2    0    0 -0.19213837776E+02 -0.33751342118E+02 -0.89929755932E+02  0.13912849206E+03  0.98798034621E+02 0.  0.
        -11    1    3    3    0    0 -0.11757586025E+02  0.24720830675E+02 -0.13744504812E+03  0.14014457375E+03  0.00000000000E+00 0.  1.
         12    1    3    3    0    0 -0.15678880441E+02 -0.34877276863E+02 -0.90863173649E+03  0.90943602540E+03  0.00000000000E+00 0. -1.
        -13    1    4    4    0    0 -0.33864284640E+02  0.21709674276E+02 -0.65312299654E+02  0.76705907318E+02  0.00000000000E+00 0.  1.
         13    1    4    4    0    0  0.14650446864E+02 -0.55461016394E+02 -0.24617456278E+02  0.62422584746E+02  0.00000000000E+00 0. -1.
          1    1    1    2  501    0  0.46650304242E+02  0.43907788306E+02 -0.46393427964E+02  0.79098008306E+02  0.00000000000E+00 0. -1.
<scales pt_clust_5="13000.00000" pt_clust_6="13000.00000" pt_clust_7="13000.00000" pt_clust_8="13000.00000" pt_clust_9="64.06360"></scales>
<clustering>
<clus scale="   64.064">  1  9  2 -1</clus>
<clus scale="   80.541">  5  6 -1 -1</clus>
<clus scale="   84.448">  2  5  1 -1</clus>
<clus scale="   98.798">  7  8 -1 -1</clus>
<clus scale="   64.064">  1  5  2 -1</clus>
</clustering>
</event>
<event>
 9    2  0.3745229E-005  0.1039585E+03  0.7546771E-02  0.1276333E+00
          2   -1    0    0  502    0 -0.00000000000E+00  0.00000000000E+00  0.20116569099E+03  0.20116569099E+03  0.00000000000E+00 0. -1.
         21   -1    0    0  501  502  0.00000000000E+00 -0.00000000000E+00 -0.18629000948E+03  0.18629000948E+03  0.00000000000E+00 0.  1.
         23    2    1    2    0    0  0.59763760663E+01 -0.51905856571E+02  0.11251588454E+03  0.15304867187E+03  0.89633345744E+02 0.  0.
         24    2    1    2    0    0  0.54828672816E+02  0.57941527096E+02 -0.12398685841E+03  0.16786509041E+03  0.80265457052E+02 0.  0.
        -13    1    4    4    0    0  0.55342261813E+02  0.73988344191E+02 -0.11976607233E+03  0.15126451368E+03  0.00000000000E+00 0.  1.
         14    1    4    4    0    0 -0.51358899713E+00 -0.16046817096E+02 -0.42207860793E+01  0.16600576728E+02  0.00000000000E+00 0. -1.
        -13    1    3    3    0    0 -0.21053168796E+02 -0.28660930352E+02  0.11187679451E+03  0.11739293844E+03  0.00000000000E+00 0. -1.
         13    1    3    3    0    0  0.27029544862E+02 -0.23244926219E+02  0.63909003069E+00  0.35655733430E+02  0.00000000000E+00 0.  1.
          1    1    1    2  501    0 -0.60805048882E+02 -0.60356705244E+01  0.26346655378E+02  0.66541938188E+02  0.00000000000E+00 0. -1.
<scales pt_clust_5="13000.00000" pt_clust_6="13000.00000" pt_clust_7="13000.00000" pt_clust_8="13000.00000" pt_clust_9="61.10390"></scales>
<clustering>
<clus scale="   61.104">  2  9  1 -1</clus>
<clus scale="   80.265">  5  6 -1 -1</clus>
<clus scale="   89.633">  7  8 -1 -1</clus>
<clus scale="   95.999">  2  5  1 -1</clus>
<clus scale="   61.104">  2  5  1 -1</clus>
</clustering>
</event>
<event>
 9    2  0.3745229E-005  0.1340179E+03  0.7546771E-02  0.1222509E+00
         21   -1    0    0  501  502  0.00000000000E+00  0.00000000000E+00  0.25660771376E+03  0.25660771376E+03  0.00000000000E+00 0.  1.
         -1   -1    0    0    0  501 -0.00000000000E+00 -0.00000000000E+00 -0.15813023891E+03  0.15813023891E+03  0.00000000000E+00 0.  1.
         24    2    1    2    0    0 -0.48049613307E+01 -0.10876636694E+03 -0.74349241130E+02  0.15446988931E+03  0.80497992623E+02 0.  0.
         23    2    1    2    0    0  0.16072265469E+02  0.91990798348E+02  0.49538924239E+02  0.13533507557E+03  0.84503567780E+02 0.  0.
        -13    1    3    3    0    0  0.29385448042E+02 -0.71544038383E+02 -0.68994603168E+02  0.10364511205E+03  0.00000000000E+00 0.  1.
         14    1    3    3    0    0 -0.34190409372E+02 -0.37222328554E+02 -0.53546379612E+01  0.50824777262E+02  0.00000000000E+00 0. -1.
        -11    1    4    4    0    0 -0.91956121467E+01  0.97889432165E+02  0.47815137885E+02  0.10933063442E+03  0.00000000000E+00 0. -1.
         11    1    4    4    0    0  0.25267877616E+02 -0.58986338175E+01  0.17237863536E+01  0.26004441150E+02  0.00000000000E+00 0.  1.
         -2    1    1    2    0  502 -0.11267304138E+02  0.16775568589E+02  0.12328779174E+03  0.12493298779E+03  0.00000000000E+00 0.  1.
<scales pt_clust_5="13000.00000" pt_clust_6="13000.00000" pt_clust_7="13000.00000" pt_clust_8="13000.00000" pt_clust_9="20.20821"></scales>
<clustering>
<clus scale="   20.208">  1  9  2 -1</clus>
<clus scale="   80.498">  5  6 -1 -1</clus>
<clus scale="   84.504">  7  8 -1 -1</clus>
<clus scale="  131.529">  2  5  1 -1</clus>
<clus scale="   20.208">  1  5  2 -1</clus>
</clustering>
</event>
<event>
 9    2  0.3745229E-005  0.9345445E+02  0.7546771E-02  0.1299273E+00
         -3   -1    0    0    0  501 -0.00000000000E+00  0.00000000000E+00  0.12803279043E+03  0.12803279043E+03  0.00000000000E+00 0.  1.
         21   -1    0    0  501  502  0.00000000000E+00 -0.00000000000E+00 -0.19823678471E+03  0.19823678471E+03  0.00000000000E+00 0.  1.
         24    2    1    2    0    0  0.19740702921E+02  0.40406038397E+01  0.84370124284E+02  0.12049152769E+03  0.83629352150E+02 0.  0.
         23    2    1    2    0    0 -0.27947518587E+01 -0.37094022520E+02 -0.11262305692E+03  0.14974604483E+03  0.91411967754E+02 0.  0.
        -13    1    3    3    0    0  0.22270538460E+02  0.17754935455E+02  0.97355525111E+02  0.10143625035E+03  0.00000000000E+00 0.  1.
         14    1    3    3    0    0 -0.25298355390E+01 -0.13714331615E+02 -0.12985400827E+02  0.19055277331E+02  0.00000000000E+00 0. -1.
        -11    1    4    4    0    0 -0.41996793964E+02 -0.26003509757E+02 -0.30447074453E+02  0.58025318316E+02  0.00000000000E+00 0. -1.
         11    1    4    4    0    0  0.39202042106E+02 -0.11090512763E+02 -0.82175982464E+02  0.91720726515E+02  0.00000000000E+00 0.  1.
         -4    1    1    2    0  502 -0.16945951062E+02  0.33053418681E+02 -0.41951061650E+02  0.56032002618E+02  0.00000000000E+00 0.  1.
<scales pt_clust_5="13000.00000" pt_clust_6="13000.00000" pt_clust_7="13000.00000" pt_clust_8="13000.00000" pt_clust_9="37.14423"></scales>
<clustering>
<clus scale="   37.144">  2  9  1 -1</clus>
<clus scale="   83.629">  5  6 -1 -1</clus>
<clus scale="   85.857">  1  5  2 -1</clus>
<clus scale="   91.412">  7  8 -1 -1</clus>
<clus scale="   37.144">  2  5  1 -1</clus>
</clustering>
</event>
<event>
 9    2  0.3745229E-005  0.9508563E+02  0.7546771E-02  0.1298432E+00
         21   -1    0    0  501  502  0.00000000000E+00  0.00000000000E+00  0.50877396346E+02  0.50877396346E+02  0.00000000000E+00 0.  1.
          2   -1    0    0  502    0 -0.00000000000E+00 -0.00000000000E+00 -0.30626718390E+03  0.30626718390E+03  0.00000000000E+00 0. -1.
         24    2    1    2    0    0 -0.10674458618E+02  0.31728848969E+02 -0.15152166695E+03  0.17517182462E+03  0.81275387782E+02 0.  0.
         23    2    1    2    0    0  0.93919630723E-01  0.15889110566E+02 -0.90759100747E+02  0.13146271429E+03  0.93769708453E+02 0.  0.
        -13    1    3    3    0    0  0.51704677213E+01  0.57275669432E+02 -0.10652615042E+03  0.12105807189E+03  0.00000000000E+00 0.  1.
         14    1    3    3    0    0 -0.15844926339E+02 -0.25546820463E+02 -0.44995516533E+02  0.54113752730E+02  0.00000000000E+00 0. -1.
        -11    1    4    4    0    0 -0.19253701024E+02 -0.19867071455E+02 -0.86226038296E+02  0.90555702259E+02  0.00000000000E+00 0. -1.
         11    1    4    4    0    0  0.19347620655E+02  0.35756182021E+02 -0.45330624509E+01  0.40907012026E+02  0.00000000000E+00 0.  1.
          1    1    1    2  501    0  0.10580538987E+02 -0.47617959535E+02 -0.13109019859E+02  0.50510041350E+02  0.00000000000E+00 0. -1.
<scales pt_clust_5="13000.00000" pt_clust_6="13000.00000" pt_clust_7="13000.00000" pt_clust_8="13000.00000" pt_clust_9="48.77928"></scales>
<clustering>
<clus scale="   48.779">  1  9  2 -1</clus>
<clus scale="   81.275">  5  6 -1 -1</clus>
<clus scale="   82.790">  2  5  1 -1</clus>
<clus scale="   93.770">  7  8 -1 -1</clus>
<clus scale="   48.779">  1  5  2 -1</clus>
</clustering>
</event>
<event>
 9    2  0.3745229E-005  0.4021247E+03  0.7546771E-02  0.1062007E+00
          2   -1    0    0  502    0 -0.00000000000E+00  0.00000000000E+00  0.58975921539E+03  0.58975921539E+03  0.00000000000E+00 0. -1.
         21   -1    0    0  501  502  0.00000000000E+00 -0.00000000000E+00 -0.80910910293E+03  0.80910910293E+03  0.00000000000E+00 0. -1.
         24    2    1    2    0    0  0.10384697263E+03  0.19317654524E+03  0.75426926174E+02  0.24653787102E+03  0.83608189186E+02 0.  0.
         23    2    1    2    0    0  0.23946664882E+03  0.49334561575E+02  0.31611790545E+03  0.41079943816E+03  0.95118207410E+02 0.  0.
        -11    1    3    3    0    0  0.63705270594E+02  0.48872438303E+02  0.34715630197E+01  0.80367459067E+02  0.00000000000E+00 0.  1.
         12    1    3    3    0    0  0.40141702036E+02  0.14430410694E+03  0.71955363154E+02  0.16617041195E+03  0.00000000000E+00 0. -1.
        -13    1    4    4    0    0  0.22489322304E+03  0.71088154029E+02  0.29015468423E+03  0.37392543133E+03  0.00000000000E+00 0. -1.
         13    1    4    4    0    0  0.14573425787E+02 -0.21753592454E+02  0.25963221216E+02  0.36874006830E+02  0.00000000000E+00 0.  1.
          1    1    1    2  501    0 -0.34331362145E+03 -0.24251110682E+03 -0.61089471917E+03  0.74153100914E+03  0.00000000000E+00 0. -1.
<scales pt_clust_5="13000.00000" pt_clust_6="13000.00000" pt_clust_7="13000.00000" pt_clust_8="13000.00000" pt_clust_9="390.71324"></scales>
<clustering>
<clus scale="   83.608">  5  6 -1 -1</clus>
<clus scale="   95.118">  7  8 -1 -1</clus>
<clus scale="  234.716">  1  5  2 -1</clus>
<clus scale="  390.713">  2  9  1 -1</clus>
<clus scale="  390.713">  2  5  1 -1</clus>
</clustering>
</event>
<event>
 9    2  0.3745229E-005  0.1101766E+03  0.7546771E-02  0.1266804E+00
         21   -1    0    0  501  502  0.00000000000E+00  0.00000000000E+00  0.24861395020E+03  0.24861395020E+03  0.00000000000E+00 0. -1.
          2   -1    0    0  502    0 -0.00000000000E+00 -0.00000000000E+00 -0.10907972179E+03  0.10907972179E+03  0.00000000000E+00 0. -1.
         23    2    1    2    0    0  0.48257715308E+02  0.45625055071E+02  0.30302842976E+02  0.12128438083E+03  0.96856522774E+02 0.  0.
         24    2    1    2    0    0  0.21074837063E+02 -0.47679981763E+02  0.13179217724E+03  0.16346948811E+03  0.81458984416E+02 0.  0.
        -11    1    4    4    0    0  0.12058801038E+01 -0.37699108063E+02  0.91290863496E+01  0.38807436313E+02  0.00000000000E+00 0.  1.
         12    1    4    4    0    0  0.19868956959E+02 -0.99808736996E+01  0.12266309090E+03  0.12466205180E+03  0.00000000000E+00 0. -1.
        -11    1    3    3    0    0  0.52394320272E+02 -0.16031474820E+02  0.21526931543E+02  0.58869191971E+02  0.00000000000E+00 0.  1.
         11    1    3    3    0    0 -0.41366049643E+01  0.61656529891E+02  0.87759114333E+01  0.62415188859E+02  0.00000000000E+00 0. -1.
          1    1    1    2  501    0 -0.69332552371E+02  0.20549266920E+01 -0.22560791812E+02  0.72939803051E+02  0.00000000000E+00 0. -1.
<scales pt_clust_5="13000.00000" pt_clust_6="13000.00000" pt_clust_7="13000.00000" pt_clust_8="13000.00000" pt_clust_9="69.36303"></scales>
<clustering>
<clus scale="   69.363">  1  9  2 -1</clus>
<clus scale="   81.459">  5  6 -1 -1</clus>
<clus scale="   96.857">  7  8 -1 -1</clus>
<clus scale="   96.919">  1  5  2 -1</clus>
<clus scale="   69.363">  1  5  2 -1</clus>
</clustering>
</event>
<event>
 9    2  0.3745229E-005  0.1058125E+03  0.7546771E-02  0.1273591E+00
         21   -1    0    0  501  502  0.00000000000E+00  0.00000000000E+00  0.69073535543E+02  0.69073535543E+02  0.00000000000E+00 0. -1.
         -3   -1    0    0    0  501 -0.00000000000E+00 -0.00000000000E+00 -0.44133685058E+03  0.44133685058E+03  0.00000000000E+00 0.  1.
         23    2    1    2    0    0  0.39340090956E+02  0.40593713019E+02 -0.34830129781E+03  0.36471697231E+03  0.92245235860E+02 0.  0.
         24    2    1    2    0    0 -0.36665978266E+02 -0.15809012587E+02 -0.55258869658E+02  0.10568185016E+03  0.80751420639E+02 0.  0.
        -11    1    4    4    0    0 -0.51417498379E+02 -0.14982407110E+00 -0.64313511223E+02  0.82340811950E+02  0.00000000000E+00 0.  1.
         12    1    4    4    0    0  0.14751520113E+02 -0.15659188516E+02  0.90546415645E+01  0.23341038205E+02  0.00000000000E+00 0. -1.
        -11    1    3    3    0    0 -0.19579812377E+02  0.34535410298E+02 -0.72805192359E+02  0.82925627231E+02  0.00000000000E+00 0. -1.
         11    1    3    3    0    0  0.58919903333E+02  0.60583027206E+01 -0.27549610545E+03  0.28179134507E+03  0.00000000000E+00 0.  1.
         -4    1    1    2    0  502 -0.26741126899E+01 -0.24784700432E+02  0.31296852434E+02  0.40011563660E+02  0.00000000000E+00 0.  1.
<scales pt_clust_5="13000.00000" pt_clust_6="13000.00000" pt_clust_7="13000.00000" pt_clust_8="13000.00000" pt_clust_9="24.92854"></scales>
<clustering>
<clus scale="   24.929">  1  9  2 -1</clus>
<clus scale="   80.751">  5  6 -1 -1</clus>
<clus scale="   92.245">  7  8 -1 -1</clus>
<clus scale="   95.958">  1  5  2 -1</clus>
<clus scale="   24.929">  1  5  2 -1</clus>
</clustering>
</event>
<event>
 9    2  0.3745229E-005  0.4007749E+03  0.7546771E-02  0.1043512E+00
         -3   -1    0    0    0  501 -0.00000000000E+00  0.00000000000E+00  0.10909154329E+03  0.10909154329E+03  0.00000000000E+00 0.  1.
         21   -1    0    0  501  502  0.00000000000E+00 -0.00000000000E+00 -0.12827783008E+04  0.12827783008E+04  0.00000000000E+00 0.  1.
         24    2    1    2    0    0  0.16711056938E+03 -0.22371488940E+03 -0.29231152297E+03  0.41206241211E+03  0.79844291432E+02 0.  0.
         23    2    1    2    0    0 -0.12460794310E+02 -0.56298962272E+02 -0.16974582753E+03  0.19958905039E+03  0.87734249439E+02 0.  0.
        -11    1    3    3    0    0  0.39892814054E+02 -0.73988925640E+02 -0.42341238775E+02  0.94120020355E+02  0.00000000000E+00 0.  1.
         12    1    3    3    0    0  0.12721775533E+03 -0.14972596376E+03 -0.24997028419E+03  0.31794239175E+03  0.00000000000E+00 0. -1.
        -11    1    4    4    0    0 -0.40204474277E+02 -0.59855087892E+02 -0.14625350896E+03  0.16306170667E+03  0.00000000000E+00 0.  1.
         11    1    4    4    0    0  0.27743679967E+02  0.35561256199E+01 -0.23492318561E+02  0.36527343716E+02  0.00000000000E+00 0. -1.
         -4    1    1    2    0  502 -0.15464977507E+03  0.28001385167E+03 -0.71162940706E+03  0.78021838164E+03  0.00000000000E+00 0.  1.
<scales pt_clust_5="13000.00000" pt_clust_6="13000.00000" pt_clust_7="13000.00000" pt_clust_8="13000.00000" pt_clust_9="319.88171"></scales>
<clustering>
<clus scale="   79.844">  5  6 -1 -1</clus>
<clus scale="   87.734">  7  8 -1 -1</clus>
<clus scale="  102.770">  5  7 -1 -1</clus>
<clus scale="  319.882">  2  9  1 -1</clus>
<clus scale="  319.882">  2  5  1 -1</clus>
</clustering>
</event>
<event>
 9    2  0.3745229E-005  0.9611951E+02  0.7546771E-02  0.1292184E+00
         21   -1    0    0  501  502  0.00000000000E+00  0.00000000000E+00  0.49606578105E+02  0.49606578105E+02  0.00000000000E+00 0.  1.
         -1   -1    0    0    0  501 -0.00000000000E+00 -0.00000000000E+00 -0.45429455327E+03  0.45429455327E+03  0.00000000000E+00 0.  1.
         24    2    1    2    0    0  0.17146338914E+01  0.24009197563E+02 -0.33732653134E+03  0.34913293375E+03  0.86748113237E+02 0.  0.
         23    2    1    2    0    0  0.35052114246E+02 -0.21601663060E+02 -0.56248443274E+02  0.11628328146E+03  0.93073259403E+02 0.  0.
        -11    1    3    3    0    0  0.36968368276E+02 -0.11892049296E+02 -0.12327419601E+03  0.12924630939E+03  0.00000000000E+00 0.  1.
         12    1    3    3    0    0 -0.35253734385E+02  0.35901246859E+02 -0.21405233532E+03  0.21988662436E+03  0.00000000000E+00 0. -1.
        -11    1    4    4    0    0  0.26165101558E+02 -0.58100270336E+02 -0.40817261718E+02  0.75672338452E+02  0.00000000000E+00 0.  1.
         11    1    4    4    0    0  0.88870126875E+01  0.36498607277E+02 -0.15431181556E+02  0.40610943006E+02  0.00000000000E+00 0. -1.
         -2    1    1    2    0  502 -0.36766748137E+02 -0.24075345031E+01 -0.11113000558E+02  0.38484916167E+02  0.00000000000E+00 0.  1.
<scales pt_clust_5="13000.00000" pt_clust_6="13000.00000" pt_clust_7="13000.00000" pt_clust_8="13000.00000" pt_clust_9="36.84549"></scales>
<clustering>
<clus scale="   36.845">  1  9  2 -1</clus>
<clus scale="   86.748">  5  6 -1 -1</clus>
<clus scale="   90.009">  2  5  1 -1</clus>
<clus scale="   93.073">  7  8 -1 -1</clus>
<clus scale="   36.845">  1  5  2 -1</clus>
</clustering>
</event>
<event>
 9    2  0.3745229E-005  0.1675263E+03  0.7546771E-02  0.1195493E+00
         21   -1    0    0  501  502  0.00000000000E+00  0.00000000000E+00  0.70464919837E+03  0.70464919837E+03  0.00000000000E+00 0. -1.
          2   -1    0    0  502    0 -0.00000000000E+00 -0.00000000000E+00 -0.96749651628E+02  0.96749651628E+02  0.00000000000E+00 0. -1.
         24    2    1    2    0    0 -0.43791150406E+02  0.54061375676E+02  0.18045261547E+03  0.21671987958E+03  0.97796025393E+02 0.  0.
         23    2    1    2    0    0 -0.43230605402E+02 -0.16173699536E+03  0.72055703103E+02  0.20327400176E+03  0.90003080654E+02 0.  0.
        -11    1    3    3    0    0 -0.16488804997E+02  0.31477533968E+02  0.17765867463E+03  0.18117759383E+03  0.00000000000E+00 0.  1.
         12    1    3    3    0    0 -0.27302345409E+02  0.22583841708E+02  0.27939408394E+01  0.35542285753E+02  0.00000000000E+00 0. -1.
        -11    1    4    4    0    0  0.21787106294E+01 -0.25113732428E+02 -0.20179996394E+02  0.32290534077E+02  0.00000000000E+00 0.  1.
         11    1    4    4    0    0 -0.45409316032E+02 -0.13662326294E+03  0.92235699497E+02  0.17098346768E+03  0.00000000000E+00 0. -1.
          1    1    1    2  501    0  0.87021755808E+02  0.10767561969E+03  0.35539122817E+03  0.38140496866E+03  0.00000000000E+00 0. -1.
<scales pt_clust_5="13000.00000" pt_clust_6="13000.00000" pt_clust_7="13000.00000" pt_clust_8="13000.00000" pt_clust_9="141.29587"></scales>
<clustering>
<clus scale="   90.003">  7  8 -1 -1</clus>
<clus scale="   97.796">  5  6 -1 -1</clus>
<clus scale="  120.018">  2  5  1 -1</clus>
<clus scale="  141.296">  1  9  2 -1</clus>
<clus scale="  141.296">  1  5  2 -1</clus>
</clustering>
</event>
<event>
 9    2  0.3745229E-005  0.1221966E+03  0.7546771E-02  0.1244973E+00
         21   -1    0    0  501  502  0.00000000000E+00  0.00000000000E+00  0.11140313272E+03  0.11140313272E+03  0.00000000000E+00 0. -1.
         -1   -1    0    0    0  501 -0.00000000000E+00 -0.00000000000E+00 -0.34588884226E+03  0.34588884226E+03  0.00000000000E+00 0.  1.
         24    2    1    2    0    0  0.12863108136E+01  0.82117423810E+02 -0.27699746335E+03  0.29844961557E+03  0.74830825476E+02 0.  0.
         23    2    1    2    0    0 -0.32306482982E+02 -0.61947125335E+02  0.34895848621E+02  0.12106546125E+03  0.92509299413E+02 0.  0.
        -11    1    3    3    0    0 -0.33445349114E+02  0.20571400584E+02 -0.12049222117E+03  0.12672864421E+03  0.00000000000E+00 0.  1.
         12    1    3    3    0    0  0.34731659927E+02  0.61546023226E+02 -0.15650524218E+03  0.17172097136E+03  0.00000000000E+00 0. -1.
        -13    1    4    4    0    0  0.24688393372E+02 -0.41371975105E+02  0.36509233586E+02  0.60448996918E+02  0.00000000000E+00 0.  1.
         13    1    4    4    0    0 -0.56994876354E+02 -0.20575150230E+02 -0.16133849659E+01  0.60616464336E+02  0.00000000000E+00 0. -1.
         -2    1    1    2    0  502  0.31020172169E+02 -0.20170298475E+02  0.76159051962E+01  0.37776898151E+02  0.00000000000E+00 0.  1.
<scales pt_clust_5="13000.00000" pt_clust_6="13000.00000" pt_clust_7="13000.00000" pt_clust_8="13000.00000" pt_clust_9="37.00124"></scales>
<clustering>
<clus scale="   37.001">  1  9  2 -1</clus>
<clus scale="   74.831">  5  6 -1 -1</clus>
<clus scale="   92.509">  7  8 -1 -1</clus>
<clus scale="  109.424">  2  5  1 -1</clus>
<clus scale="   37.001">  1  5  2 -1</clus>
</clustering>
</event>
<event>
 9    2  0.3745229E-005  0.3595305E+03  0.7546771E-02  0.1107689E+00
          2   -1    0    0  502    0 -0.00000000000E+00  0.00000000000E+00  0.74112680478E+03  0.74112680478E+03  0.00000000000E+00 0. -1.
         21   -1    0    0  501  502  0.00000000000E+00 -0.00000000000E+00 -0.26906307919E+03  0.26906307919E+03  0.00000000000E+00 0. -1.
         23    2    1    2    0    0  0.18104991185E+02  0.31461999384E+02  0.35560584438E+02  0.10328132509E+03  0.89915676254E+02 0.  0.
         24    2    1    2    0    0 -0.29147128521E+03 -0.21088577599E+03  0.90108733938E+01  0.36869701932E+03  0.80174656849E+02 0.  0.
        -11    1    4    4    0    0 -0.48993177508E+02 -0.31798571778E+01  0.54800867390E+01  0.49401156714E+02  0.00000000000E+00 0.  1.
         12    1    4    4    0    0 -0.24247810770E+03 -0.20770591881E+03  0.35307866548E+01  0.31929586261E+03  0.00000000000E+00 0. -1.
        -11    1    3    3    0    0 -0.98118651576E+01 -0.27699780944E+02  0.21389431803E+02  0.36346366463E+02  0.00000000000E+00 0.  1.
         11    1    3    3    0    0  0.27916856343E+02  0.59161780328E+02  0.14171152635E+02  0.66934958629E+02  0.00000000000E+00 0. -1.
          1    1    1    2  501    0  0.27336629402E+03  0.17942377660E+03  0.42749226776E+03  0.53821153956E+03  0.00000000000E+00 0. -1.
<scales pt_clust_5="13000.00000" pt_clust_6="13000.00000" pt_clust_7="13000.00000" pt_clust_8="13000.00000" pt_clust_9="350.47734"></scales>
<clustering>
<clus scale="   80.175">  5  6 -1 -1</clus>
<clus scale="   89.916">  7  8 -1 -1</clus>
<clus scale="   96.966">  1  7  2 -1</clus>
<clus scale="  350.477">  2  9  1 -1</clus>
<clus scale="  350.477">  2  5  1 -1</clus>
</clustering>
</event>
<event>
 9    2  0.3745229E-005  0.8526592E+02  0.7546771E-02  0.1317027E+00
          2   -1    0    0  502    0 -0.00000000000E+00  0.00000000000E+00  0.11129844841E+04  0.11129844841E+04  0.00000000000E+00 0. -1.
         21   -1    0    0  501  502  0.00000000000E+00 -0.00000000000E+00 -0.20602057128E+02  0.20602057128E+02  0.00000000000E+00 0.  1.
         24    2    1    2    0    0 -0.87737684786E+01  0.88300089729E+01  0.86131885821E+03  0.86526033082E+03  0.81549472805E+02 0.  0.
         23    2    1    2    0    0 -0.13633154427E+02  0.10529829903E+02  0.22040577632E+03  0.23685460262E+03  0.84997978383E+02 0.  0.
        -13    1    3    3    0    0 -0.20995280547E+02  0.11489370691E+02  0.72618415151E+02  0.76460719740E+02  0.00000000000E+00 0.  1.
         14    1    3    3    0    0  0.12221512069E+02 -0.26593617176E+01  0.78870044306E+03  0.78879961108E+03  0.00000000000E+00 0. -1.
        -13    1    4    4    0    0  0.30784881029E+02  0.23700620407E+02  0.12304114804E+03  0.12902926962E+03  0.00000000000E+00 0.  1.
         13    1    4    4    0    0 -0.44418035456E+02 -0.13170790503E+02  0.97364628273E+02  0.10782533299E+03  0.00000000000E+00 0. -1.
          1    1    1    2  501    0  0.22406922905E+02 -0.19359838876E+02  0.10657792404E+02  0.31471607749E+02  0.00000000000E+00 0. -1.
<scales pt_clust_5="13000.00000" pt_clust_6="13000.00000" pt_clust_7="13000.00000" pt_clust_8="13000.00000" pt_clust_9="29.61205"></scales>
<clustering>
<clus scale="   29.612">  2  9  1 -1</clus>
<clus scale="   81.549">  5  6 -1 -1</clus>
<clus scale="   81.829">  1  5  2 -1</clus>
<clus scale="   84.998">  7  8 -1 -1</clus>
<clus scale="   29.612">  2  5  1 -1</clus>
</clustering>
</event>
<event>
 9    2  0.3745229E-005  0.1220766E+03  0.7546771E-02  0.1242475E+00
         -3   -1    0    0    0  501 -0.00000000000E+00  0.00000000000E+00  0.29596195536E+03  0.29596195536E+03  0.00000000000E+00 0.  1.
         21   -1    0    0  501  502  0.00000000000E+00 -0.00000000000E+00 -0.12510376413E+03  0.12510376413E+03  0.00000000000E+00 0. -1.
         23    2    1    2    0    0  0.81597876325E+02  0.15175271050E+02  0.23265491100E+03  0.26275559397E+03  0.89575065048E+02 0.  0.
         24    2    1    2    0    0 -0.76777656271E+02 -0.36615857713E+02 -0.68240070939E+02  0.13540925104E+03  0.80270968887E+02 0.  0.
        -13    1    4    4    0    0 -0.12710623820E+02  0.24022172322E+02 -0.25972804248E+02  0.37592702502E+02  0.00000000000E+00 0.  1.
         14    1    4    4    0    0 -0.64067032452E+02 -0.60638030035E+02 -0.42267266692E+02  0.97816548535E+02  0.00000000000E+00 0. -1.
        -11    1    3    3    0    0  0.96905824749E+02 -0.10717970635E+00  0.21079452910E+03  0.23200233588E+03  0.00000000000E+00 0.  1.
         11    1    3    3    0    0 -0.15307948424E+02  0.15282450756E+02  0.21860381902E+02  0.30753258087E+02  0.00000000000E+00 0. -1.
         -4    1    1    2    0  502 -0.48202200533E+01  0.21440586663E+02  0.64433511687E+01  0.22900874483E+02  0.00000000000E+00 0.  1.
<scales pt_clust_5="13000.00000" pt_clust_6="13000.00000" pt_clust_7="13000.00000" pt_clust_8="13000.00000" pt_clust_9="21.97574"></scales>
<clustering>
<clus scale="   21.976">  2  9  1 -1</clus>
<clus scale="   80.271">  5  6 -1 -1</clus>
<clus scale="   89.575">  7  8 -1 -1</clus>
<clus scale="  115.423">  2  5  1 -1</clus>
<clus scale="   21.976">  2  5  1 -1</clus>
</clustering>
</event>
<event>
 9    2  0.3745229E-005  0.1660768E+03  0.7546771E-02  0.1209011E+00
         21   -1    0    0  501  502  0.00000000000E+00  0.00000000000E+00  0.89594118708E+02  0.89594118708E+02  0.00000000000E+00 0. -1.
          2   -1    0    0  502    0 -0.00000000000E+00 -0.00000000000E+00 -0.11198461980E+04  0.11198461980E+04  0.00000000000E+00 0. -1.
         24    2    1    2    0    0 -0.31335907970E+02 -0.57496724777E+01 -0.82087819339E+03  0.82601187654E+03  0.86253196777E+02 0.  0.
         23    2    1    2    0    0 -0.30665851711E+02  0.13218918812E+03 -0.17251374255E+03  0.23786113789E+03  0.91665444037E+02 0.  0.
        -13    1    3    3    0    0 -0.25830613241E+02  0.34554605972E+02 -0.25074659302E+03  0.25443092439E+03  0.00000000000E+00 0.  1.
         14    1    3    3    0    0 -0.55052947291E+01 -0.40304278449E+02 -0.57013160037E+03  0.57158095216E+03  0.00000000000E+00 0. -1.
        -13    1    4    4    0    0 -0.50621909124E+02  0.29091658316E+02 -0.69326219202E+02  0.90636785776E+02  0.00000000000E+00 0.  1.
         13    1    4    4    0    0  0.19956057413E+02  0.10309752981E+03 -0.10318752335E+03  0.14722435211E+03  0.00000000000E+00 0. -1.
          1    1    1    2  501    0  0.62001759681E+02 -0.12643951564E+03 -0.36860143338E+02  0.14556730226E+03  0.00000000000E+00 0. -1.
<scales pt_clust_5="13000.00000" pt_clust_6="13000.00000" pt_clust_7="13000.00000" pt_clust_8="13000.00000" pt_clust_9="138.48805"></scales>
<clustering>
<clus scale="   86.253">  5  6 -1 -1</clus>
<clus scale="   91.665">  7  8 -1 -1</clus>
<clus scale="   91.949">  2  5  1 -1</clus>
<clus scale="  138.488">  1  9  2 -1</clus>
<clus scale="  138.488">  1  5  2 -1</clus>
</clustering>
</event>
<event>
 9    2  0.3745229E-005  0.1664695E+03  0.7546771E-02  0.1182695E+00
         21   -1    0    0  501  502  0.00000000000E+00  0.00000000000E+00  0.40161502453E+03  0.40161502453E+03  0.00000000000E+00 0.  1.
         -3   -1    0    0    0  501 -0.00000000000E+00 -0.00000000000E+00 -0.10570646597E+03  0.10570646597E+03  0.00000000000E+00 0.  1.
         23    2    1    2    0    0  0.10057420734E+03 -0.50612859190E+02  0.15900236721E+03  0.21359004371E+03  0.87533543836E+02 0.  0.
         24    2    1    2    0    0 -0.15596397146E+03  0.69848324055E+02  0.14037962004E+03  0.23499394782E+03  0.79449159977E+02 0.  0.
        -13    1    4    4    0    0 -0.16318231385E+03  0.66252259147E+02  0.12010340822E+03  0.21317283612E+03  0.00000000000E+00 0.  1.
         14    1    4    4    0    0  0.72183423887E+01  0.35960649086E+01  0.20276211824E+02  0.21821111695E+02  0.00000000000E+00 0. -1.
        -13    1    3    3    0    0  0.43531247192E+02 -0.63543954967E+02  0.12231272180E+03  0.14454482215E+03  0.00000000000E+00 0.  1.
         13    1    3    3    0    0  0.57042960151E+02  0.12931095777E+02  0.36689645406E+02  0.69045221564E+02  0.00000000000E+00 0. -1.
         -4    1    1    2    0  502  0.55389764120E+02 -0.19235464865E+02 -0.34734286928E+01  0.58737498966E+02  0.00000000000E+00 0.  1.
<scales pt_clust_5="13000.00000" pt_clust_6="13000.00000" pt_clust_7="13000.00000" pt_clust_8="13000.00000" pt_clust_9="58.63474"></scales>
<clustering>
<clus scale="   58.635">  1  9  2 -1</clus>
<clus scale="   79.449">  5  6 -1 -1</clus>
<clus scale="   87.534">  7  8 -1 -1</clus>
<clus scale="  162.364">  1  5  2 -1</clus>
<clus scale="   58.635">  1  5  2 -1</clus>
</clustering>
</event>
<event>
 9    2  0.3745229E-005  0.1014278E+03  0.7546771E-02  0.1280372E+00
         21   -1    0    0  501  502  0.00000000000E+00  0.00000000000E+00  0.94955383716E+02  0.94955383716E+02  0.00000000000E+00 0.  1.
          2   -1    0    0  502    0 -0.00000000000E+00 -0.00000000000E+00 -0.17350966301E+03  0.17350966301E+03  0.00000000000E+00 0. -1.
         24    2    1    2    0    0  0.47746615252E+02 -0.48650025328E+02 -0.54308293650E+02  0.11948309794E+03  0.81732831237E+02 0.  0.
         23    2    1    2    0    0 -0.33631952759E+02 -0.11239627078E+01 -0.87099825463E+01  0.94963054176E+02  0.88372769131E+02 0.  0.
        -11    1    3    3    0    0  0.24621801207E+02  0.19162198443E+02 -0.31395565827E+02  0.44261772416E+02  0.00000000000E+00 0.  1.
         12    1    3    3    0    0  0.23124814045E+02 -0.67812223771E+02 -0.22912727823E+02  0.75221325525E+02  0.00000000000E+00 0. -1.
        -13    1    4    4    0    0 -0.25901798705E+01 -0.35044534330E+02  0.20313310448E+02  0.40588902418E+02  0.00000000000E+00 0.  1.
         13    1    4    4    0    0 -0.31041772888E+02  0.33920571622E+02 -0.29023292994E+02  0.54374151758E+02  0.00000000000E+00 0. -1.
          1    1    1    2  501    0 -0.14114662493E+02  0.49773988036E+02 -0.15536003095E+02  0.54018894606E+02  0.00000000000E+00 0. -1.
<scales pt_clust_5="13000.00000" pt_clust_6="13000.00000" pt_clust_7="13000.00000" pt_clust_8="13000.00000" pt_clust_9="51.73658"></scales>
<clustering>
<clus scale="   51.737">  1  9  2 -1</clus>
<clus scale="   81.733">  5  6 -1 -1</clus>
<clus scale="   88.373">  7  8 -1 -1</clus>
<clus scale="   95.698">  2  5  1 -1</clus>
<clus scale="   51.737">  1  5  2 -1</clus>
</clustering>
</event>
<event>
 9    2  0.3745229E-005  0.1286569E+03  0.7546771E-02  0.1233560E+00
         21   -1    0    0  501  502  0.00000000000E+00  0.00000000000E+00  0.68510453741E+02  0.68510453741E+02  0.00000000000E+00 0. -1.
          2   -1    0    0  502    0 -0.00000000000E+00 -0.00000000000E+00 -0.35744236080E+03  0.35744236080E+03  0.00000000000E+00 0. -1.
         24    2    1    2    0    0  0.22110648117E+02  0.91225757094E+02 -0.13799207318E+03  0.18488803402E+03  0.79566031366E+02 0.  0.
         23    2    1    2    0    0 -0.26324925905E+02 -0.71074230481E+02 -0.38856652944E+02  0.12710652671E+03  0.94348723848E+02 0.  0.
        -11    1    3    3    0    0  0.35010526950E+02  0.44376360430E+01 -0.38095336645E+02  0.51929608944E+02  0.00000000000E+00 0.  1.
         12    1    3    3    0    0 -0.12899878833E+02  0.86788121051E+02 -0.99896736532E+02  0.13295842508E+03  0.00000000000E+00 0. -1.
        -13    1    4    4    0    0  0.14819419925E+02 -0.14806785916E+02  0.24969735164E+02  0.32593615789E+02  0.00000000000E+00 0. -1.
         13    1    4    4    0    0 -0.41144345830E+02 -0.56267444565E+02 -0.63826388108E+02  0.94512910920E+02  0.00000000000E+00 0.  1.
          1    1    1    2  501    0  0.42142777879E+01 -0.20151526613E+02 -0.11208318094E+03  0.11395825381E+03  0.00000000000E+00 0. -1.
<scales pt_clust_5="13000.00000" pt_clust_6="13000.00000" pt_clust_7="13000.00000" pt_clust_8="13000.00000" pt_clust_9="20.58749"></scales>
<clustering>
<clus scale="   20.587">  1  9  2 -1</clus>
<clus scale="   79.566">  5  6 -1 -1</clus>
<clus scale="   94.349">  7  8 -1 -1</clus>
<clus scale="  118.244">  2  5  1 -1</clus>
<clus scale="   20.587">  1  5  2 -1</clus>
</clustering>
</event>
<event>
 9    2  0.3745229E-005  0.1422438E+03  0.7546771E-02  0.1212403E+00
         21   -1    0    0  501  502  0.00000000000E+00  0.00000000000E+00  0.58444445698E+02  0.58444445698E+02  0.00000000000E+00 0.  1.
          2   -1    0    0  502    0 -0.00000000000E+00 -0.00000000000E+00 -0.54257426787E+03  0.54257426787E+03  0.00000000000E+00 0. -1.
         23    2    1    2    0    0  0.11282084333E+03  0.16083141379E+02 -0.38652723690E+03  0.41300271943E+03  0.90447395003E+02 0.  0.
         24    2    1    2    0    0 -0.98453701544E+02  0.75587642115E+01 -0.58671503278E+02  0.14025635000E+03  0.80493677734E+02 0.  0.
        -13    1    4    4    0    0 -0.37064313437E+02 -0.13035820323E+02  0.15105881941E+02  0.42093747888E+02  0.00000000000E+00 0.  1.
         14    1    4    4    0    0 -0.61389388107E+02  0.20594584535E+02 -0.73777385219E+02  0.98162602115E+02  0.00000000000E+00 0. -1.
        -11    1    3    3    0    0  0.56012534883E+02  0.53078117904E+02 -0.18804710442E+03  0.20326437008E+03  0.00000000000E+00 0. -1.
         11    1    3    3    0    0  0.56808308444E+02 -0.36994976526E+02 -0.19848013248E+03  0.20973834935E+03  0.00000000000E+00 0.  1.
          1    1    1    2  501    0 -0.14367141783E+02 -0.23641905590E+02 -0.38931081988E+02  0.47759644133E+02  0.00000000000E+00 0. -1.
<scales pt_clust_5="13000.00000" pt_clust_6="13000.00000" pt_clust_7="13000.00000" pt_clust_8="13000.00000" pt_clust_9="27.66505"></scales>
<clustering>
<clus scale="   27.665">  1  9  2 -1</clus>
<clus scale="   80.494">  5  6 -1 -1</clus>
<clus scale="   90.447">  7  8 -1 -1</clus>
<clus scale="  136.132">  1  5  2 -1</clus>
<clus scale="   27.665">  1  5  2 -1</clus>
</clustering>
</event>
<event>
 9    2  0.3745229E-005  0.9493426E+02  0.7546771E-02  0.1297993E+00
          2   -1    0    0  502    0 -0.00000000000E+00  0.00000000000E+00  0.32791152526E+03  0.32791152526E+03  0.00000000000E+00 0. -1.
         21   -1    0    0  501  502  0.00000000000E+00 -0.00000000000E+00 -0.16663410316E+03  0.16663410316E+03  0.00000000000E+00 0.  1.
         23    2    1    2    0    0 -0.20450837407E+02  0.63867768007E+01  0.28648951610E+03  0.30190553738E+03  0.92799154072E+02 0.  0.
         24    2    1    2    0    0  0.50972491254E+01  0.35733178359E+02 -0.11701852765E+03  0.14706643830E+03  0.81439299331E+02 0.  0.
        -13    1    4    4    0    0  0.41103547392E+01  0.51765565232E+02 -0.11997771746E+03  0.13073339836E+03  0.00000000000E+00 0.  1.
         14    1    4    4    0    0  0.98689438624E+00 -0.16032386873E+02  0.29591898055E+01  0.16333039940E+02  0.00000000000E+00 0. -1.
        -11    1    3    3    0    0  0.35175447482E+02 -0.88016840570E+01  0.87115664609E+02  0.94360589062E+02  0.00000000000E+00 0.  1.
         11    1    3    3    0    0 -0.55626284890E+02  0.15188460858E+02  0.19937385149E+03  0.20754494832E+03  0.00000000000E+00 0. -1.
          1    1    1    2  501    0  0.15353588282E+02 -0.42119955160E+02 -0.81935663489E+01  0.45573652754E+02  0.00000000000E+00 0. -1.
<scales pt_clust_5="13000.00000" pt_clust_6="13000.00000" pt_clust_7="13000.00000" pt_clust_8="13000.00000" pt_clust_9="44.83105"></scales>
<clustering>
<clus scale="   44.831">  2  9  1 -1</clus>
<clus scale="   81.439">  5  6 -1 -1</clus>
<clus scale="   83.864">  2  5  1 -1</clus>
<clus scale="   92.799">  7  8 -1 -1</clus>
<clus scale="   44.831">  2  5  1 -1</clus>
</clustering>
</event>
<event>
 9    2  0.3745229E-005  0.1676116E+03  0.7546771E-02  0.1180877E+00
         -1   -1    0    0    0  501 -0.00000000000E+00  0.00000000000E+00  0.20223032924E+03  0.20223032924E+03  0.00000000000E+00 0.  1.
         21   -1    0    0  501  502  0.00000000000E+00 -0.00000000000E+00 -0.23065639779E+03  0.23065639779E+03  0.00000000000E+00 0.  1.
         23    2    1    2    0    0 -0.12797061272E+03 -0.63659226303E+02  0.10332998611E+03  0.19869564566E+03  0.91509009190E+02 0.  0.
         24    2    1    2    0    0  0.10932483323E+03  0.50552081984E+02 -0.14217142925E+03  0.20913230340E+03  0.94953530100E+02 0.  0.
        -13    1    4    4    0    0  0.43269016487E+02  0.71684990186E+02 -0.71351937084E+02  0.11000929293E+03  0.00000000000E+00 0.  1.
         14    1    4    4    0    0  0.66055816739E+02 -0.21132908201E+02 -0.70819492167E+02  0.99123010471E+02  0.00000000000E+00 0. -1.
        -13    1    3    3    0    0 -0.70135734506E+02 -0.83031214107E+02  0.64315410559E+02  0.12629202590E+03  0.00000000000E+00 0.  1.
         13    1    3    3    0    0 -0.57834878210E+02  0.19371987804E+02  0.39014575555E+02  0.72403619763E+02  0.00000000000E+00 0. -1.
         -2    1    1    2    0  502  0.18645779489E+02  0.13107144319E+02  0.10415374586E+02  0.25058777958E+02  0.00000000000E+00 0.  1.
<scales pt_clust_5="13000.00000" pt_clust_6="13000.00000" pt_clust_7="13000.00000" pt_clust_8="13000.00000" pt_clust_9="22.79173"></scales>
<clustering>
<clus scale="   22.792">  2  9  1 -1</clus>
<clus scale="   91.509">  7  8 -1 -1</clus>
<clus scale="   94.954">  5  6 -1 -1</clus>
<clus scale="  165.685">  1  7  2 -1</clus>
<clus scale="   22.792">  2  5  1 -1</clus>
</clustering>
</event>
<event>
 9    2  0.3745229E-005  0.1417170E+03  0.7546771E-02  0.1217127E+00
         -1   -1    0    0    0  501 -0.00000000000E+00  0.00000000000E+00  0.22559189544E+03  0.22559189544E+03  0.00000000000E+00 0.  1.
         21   -1    0    0  501  502  0.00000000000E+00 -0.00000000000E+00 -0.18555806794E+03  0.18555806794E+03  0.00000000000E+00 0. -1.
         23    2    1    2    0    0 -0.11736588621E+03  0.33427960414E+02  0.29000104799E+02  0.16387031931E+03  0.10545281262E+03 0.  0.
         24    2    1    2    0    0  0.19485103413E+02 -0.96158898658E+02 -0.15236846787E+02  0.12809088170E+03  0.80925332426E+02 0.  0.
        -13    1    4    4    0    0 -0.25028323786E+02 -0.67576912746E+02  0.30289161419E+01  0.72126489314E+02  0.00000000000E+00 0.  1.
         14    1    4    4    0    0  0.44513427199E+02 -0.28581985913E+02 -0.18265762928E+02  0.55964392385E+02  0.00000000000E+00 0. -1.
        -13    1    3    3    0    0 -0.47959933421E+02 -0.12453852534E+02 -0.33497907011E+02  0.59811064451E+02  0.00000000000E+00 0.  1.
         13    1    3    3    0    0 -0.69405952790E+02  0.45881812948E+02  0.62498011811E+02  0.10405925486E+03  0.00000000000E+00 0. -1.
         -2    1    1    2    0  502  0.97880782797E+02  0.62730938245E+02  0.26270569480E+02  0.11918876237E+03  0.00000000000E+00 0.  1.
<scales pt_clust_5="13000.00000" pt_clust_6="13000.00000" pt_clust_7="13000.00000" pt_clust_8="13000.00000" pt_clust_9="116.25761"></scales>
<clustering>
<clus scale="   80.925">  5  6 -1 -1</clus>
<clus scale="  105.453">  7  8 -1 -1</clus>
<clus scale="  116.258">  2  9  1 -1</clus>
<clus scale="  124.548">  2  5  1 -1</clus>
<clus scale="  116.258">  2  5  1 -1</clus>
</clustering>
</event>
<event>
 9    2  0.3745229E-005  0.2928169E+03  0.7546771E-02  0.1122913E+00
          2   -1    0    0  502    0 -0.00000000000E+00  0.00000000000E+00  0.12969814988E+04  0.12969814988E+04  0.00000000000E+00 0. -1.
         21   -1    0    0  501  502  0.00000000000E+00 -0.00000000000E+00 -0.10789214555E+03  0.10789214555E+03  0.00000000000E+00 0.  1.
         23    2    1    2    0    0  0.78805006034E+02 -0.17292900041E+02  0.30880800822E+03  0.33212592165E+03  0.91847528666E+02 0.  0.
         24    2    1    2    0    0 -0.27768237566E+03  0.13048537460E+03  0.25884085677E+03  0.41051436135E+03  0.85962299895E+02 0.  0.
        -11    1    4    4    0    0 -0.96959528175E+02  0.17845397208E+02  0.43818429699E+02  0.10788727027E+03  0.00000000000E+00 0.  1.
         12    1    4    4    0    0 -0.18072284749E+03  0.11263997739E+03  0.21502242707E+03  0.30262709108E+03  0.00000000000E+00 0. -1.
        -11    1    3    3    0    0  0.91744310446E+01  0.22314495006E+02  0.16980506102E+02  0.29503295746E+02  0.00000000000E+00 0.  1.
         11    1    3    3    0    0  0.69630574989E+02 -0.39607395047E+02  0.29182750212E+03  0.30262262590E+03  0.00000000000E+00 0. -1.
          1    1    1    2  501    0  0.19887736963E+03 -0.11319247456E+03  0.62144048824E+03  0.66223336134E+03  0.00000000000E+00 0. -1.
<scales pt_clust_5="13000.00000" pt_clust_6="13000.00000" pt_clust_7="13000.00000" pt_clust_8="13000.00000" pt_clust_9="279.91478"></scales>
<clustering>
<clus scale="   85.962">  5  6 -1 -1</clus>
<clus scale="   91.848">  7  8 -1 -1</clus>
<clus scale="  122.251">  1  7  2 -1</clus>
<clus scale="  279.915">  2  9  1 -1</clus>
<clus scale="  279.915">  2  5  1 -1</clus>
</clustering>
</event>
<event>
 9    2  0.3745229E-005  0.9305690E+02  0.7546771E-02  0.1296880E+00
         21   -1    0    0  501  502  0.00000000000E+00  0.00000000000E+00  0.11746275565E+03  0.11746275565E+03  0.00000000000E+00 0.  1.
         -3   -1    0    0    0  501 -0.00000000000E+00 -0.00000000000E+00 -0.26134539423E+03  0.26134539423E+03  0.00000000000E+00 0.  1.
         23    2    1    2    0    0  0.32443657400E+02  0.69579844126E+00 -0.14767564846E+03  0.17275361857E+03  0.83562195626E+02 0.  0.
         24    2    1    2    0    0 -0.57987993796E+02  0.20890689825E+01 -0.73946639326E+02  0.12417827305E+03  0.81149038174E+02 0.  0.
        -13    1    4    4    0    0 -0.16793059585E+02 -0.22825958054E+02  0.77260127018E+01  0.29372137879E+02  0.00000000000E+00 0.  1.
         14    1    4    4    0    0 -0.41194934211E+02  0.24915027037E+02 -0.81672652028E+02  0.94806135171E+02  0.00000000000E+00 0. -1.
        -13    1    3    3    0    0  0.65565176158E+01  0.27511811268E+02 -0.98051418116E+01  0.29933734956E+02  0.00000000000E+00 0. -1.
         13    1    3    3    0    0  0.25887139784E+02 -0.26816012827E+02 -0.13787050665E+03  0.14281988361E+03  0.00000000000E+00 0.  1.
         -4    1    1    2    0  502  0.25544336397E+02 -0.27848674237E+01  0.77739649209E+02  0.81876258266E+02  0.00000000000E+00 0.  1.
<scales pt_clust_5="13000.00000" pt_clust_6="13000.00000" pt_clust_7="13000.00000" pt_clust_8="13000.00000" pt_clust_9="25.69569"></scales>
<clustering>
<clus scale="   25.696">  1  9  2 -1</clus>
<clus scale="   81.149">  5  6 -1 -1</clus>
<clus scale="   83.562">  7  8 -1 -1</clus>
<clus scale="   90.896">  1  5  2 -1</clus>
<clus scale="   25.696">  1  5  2 -1</clus>
</clustering>
</event>
<event>
 9    2  0.3745229E-005  0.1244431E+03  0.7546771E-02  0.1242552E+00
         21   -1    0    0  501  502  0.00000000000E+00  0.00000000000E+00  0.10028631399E+03  0.10028631399E+03  0.00000000000E+00 0.  1.
          2   -1    0    0  502    0 -0.00000000000E+00 -0.00000000000E+00 -0.35823038931E+03  0.35823038931E+03  0.00000000000E+00 0. -1.
         24    2    1    2    0    0  0.67560120526E+02  0.21229038692E+02  0.15512256465E+01  0.10880269445E+03  0.82586791011E+02 0.  0.
         23    2    1    2    0    0  0.44934134373E+02 -0.53642553296E+02 -0.99963233888E+02  0.15183507177E+03  0.90358402671E+02 0.  0.
        -13    1    3    3    0    0  0.70517727204E+02  0.36806709288E+02  0.22372134483E+02  0.82631689441E+02  0.00000000000E+00 0.  1.
         14    1    3    3    0    0 -0.29576066777E+01 -0.15577670595E+02 -0.20820908836E+02  0.26171005010E+02  0.00000000000E+00 0. -1.
        -11    1    4    4    0    0 -0.99907891278E+01 -0.52263361402E+02 -0.24730501957E+02  0.58675996280E+02  0.00000000000E+00 0. -1.
         11    1    4    4    0    0  0.54924923501E+02 -0.13791918947E+01 -0.75232731931E+02  0.93159075488E+02  0.00000000000E+00 0.  1.
          1    1    1    2  501    0 -0.11249425490E+03  0.32413514604E+02 -0.15953206708E+03  0.19787893708E+03  0.00000000000E+00 0. -1.
<scales pt_clust_5="13000.00000" pt_clust_6="13000.00000" pt_clust_7="13000.00000" pt_clust_8="13000.00000" pt_clust_9="85.56552"></scales>
<clustering>
<clus scale="   82.587">  5  6 -1 -1</clus>
<clus scale="   90.358">  7  8 -1 -1</clus>
<clus scale="  108.792">  2  5  1 -1</clus>
<clus scale="   85.566">  1  9  2 -1</clus>
<clus scale="   85.566">  1  5  2 -1</clus>
</clustering>
</event>
<event>
 9    2  0.3745229E-005  0.1692936E+03  0.7546771E-02  0.1180110E+00
         21   -1    0    0  501  502  0.00000000000E+00  0.00000000000E+00  0.69858775774E+02  0.69858775774E+02  0.00000000000E+00 0. -1.
          2   -1    0    0  502    0 -0.00000000000E+00 -0.00000000000E+00 -0.77635677061E+03  0.77635677061E+03  0.00000000000E+00 0. -1.
         24    2    1    2    0    0  0.13948572862E+03 -0.96610552200E+01 -0.53288369959E+03  0.55679418229E+03  0.80654322050E+02 0.  0.
         23    2    1    2    0    0 -0.14672599916E+03  0.38470015022E+02 -0.18628388392E+03  0.25712746127E+03  0.91675433167E+02 0.  0.
        -11    1    3    3    0    0  0.45466908572E+02 -0.23367653366E+02 -0.87064895282E+02  0.10096327545E+03  0.00000000000E+00 0.  1.
         12    1    3    3    0    0  0.94018820052E+02  0.13706598146E+02 -0.44581880431E+03  0.45583090684E+03  0.00000000000E+00 0. -1.
        -13    1    4    4    0    0 -0.14084501912E+02 -0.20410213238E+02 -0.59359109681E+02  0.64330816104E+02  0.00000000000E+00 0.  1.
         13    1    4    4    0    0 -0.13264149725E+03  0.58880228260E+02 -0.12692477424E+03  0.19279664517E+03  0.00000000000E+00 0. -1.
          1    1    1    2  501    0  0.72402705363E+01 -0.28808959802E+02  0.12669588673E+02  0.32293902822E+02  0.00000000000E+00 0. -1.
<scales pt_clust_5="13000.00000" pt_clust_6="13000.00000" pt_clust_7="13000.00000" pt_clust_8="13000.00000" pt_clust_9="29.70484"></scales>
<clustering>
<clus scale="   29.705">  1  9  2 -1</clus>
<clus scale="   80.654">  5  6 -1 -1</clus>
<clus scale="   91.675">  7  8 -1 -1</clus>
<clus scale="  163.588">  2  5  1 -1</clus>
<clus scale="   29.705">  1  5  2 -1</clus>
</clustering>
</event>
<event>
 9    2  0.3745229E-005  0.1006720E+03  0.7546771E-02  0.1287978E+00
         21   -1    0    0  501  502  0.00000000000E+00  0.00000000000E+00  0.81852890359E+02  0.81852890359E+02  0.00000000000E+00 0. -1.
         -1   -1    0    0    0  501 -0.00000000000E+00 -0.00000000000E+00 -0.21338880742E+03  0.21338880742E+03  0.00000000000E+00 0.  1.
         24    2    1    2    0    0  0.17920738979E+02  0.11667780569E+00 -0.88776612322E+02  0.12107838339E+03  0.80358705378E+02 0.  0.
         23    2    1    2    0    0 -0.41524935836E+02  0.81653041647E+01 -0.77632076236E+02  0.13124642347E+03  0.96994288105E+02 0.  0.
        -13    1    3    3    0    0  0.83497826709E+00  0.24302995329E+02  0.31309187214E+01  0.24518063192E+02  0.00000000000E+00 0.  1.
         14    1    3    3    0    0  0.17085760712E+02 -0.24186317523E+02 -0.91907531044E+02  0.96560320199E+02  0.00000000000E+00 0. -1.
        -11    1    4    4    0    0  0.20050362179E+02 -0.26895735879E+02 -0.15287160390E+02  0.36865904366E+02  0.00000000000E+00 0. -1.
         11    1    4    4    0    0 -0.61575298015E+02  0.35061040044E+02 -0.62344915846E+02  0.94380519104E+02  0.00000000000E+00 0.  1.
         -2    1    1    2    0  502  0.23604196857E+02 -0.82819819704E+01  0.34872771494E+02  0.42916890920E+02  0.00000000000E+00 0.  1.
<scales pt_clust_5="13000.00000" pt_clust_6="13000.00000" pt_clust_7="13000.00000" pt_clust_8="13000.00000" pt_clust_9="25.01498"></scales>
<clustering>
<clus scale="   25.015">  1  9  2 -1</clus>
<clus scale="   80.359">  5  6 -1 -1</clus>
<clus scale="   84.761">  2  5  1 -1</clus>
<clus scale="   96.994">  7  8 -1 -1</clus>
<clus scale="   25.015">  1  5  2 -1</clus>
</clustering>
</event>
<event>
 9    2  0.3745229E-005  0.1645129E+03  0.7546771E-02  0.1212422E+00
         21   -1    0    0  501  502  0.00000000000E+00  0.00000000000E+00  0.24418658857E+03  0.24418658857E+03  0.00000000000E+00 0.  1.
         -1   -1    0    0    0  501 -0.00000000000E+00 -0.00000000000E+00 -0.23225397218E+03  0.23225397218E+03  0.00000000000E+00 0.  1.
         24    2    1    2    0    0  0.29703124105E+02  0.16071793945E+02 -0.11706186712E+03  0.14642508839E+03  0.81217286548E+02 0.  0.
         23    2    1    2    0    0  0.63043673341E+02  0.10205876840E+03  0.41657979382E+02  0.15627870841E+03  0.91088695796E+02 0.  0.
        -11    1    3    3    0    0  0.38803301426E+02  0.12824596715E+02 -0.12648822186E+03  0.13292643361E+03  0.00000000000E+00 0.  1.
         12    1    3    3    0    0 -0.91001773205E+01  0.32471972297E+01  0.94263547432E+01  0.13498654780E+02  0.00000000000E+00 0. -1.
        -13    1    4    4    0    0 -0.15475649250E+02  0.27437218629E+02  0.35961259876E+02  0.47806996326E+02  0.00000000000E+00 0. -1.
         13    1    4    4    0    0  0.78519322591E+02  0.74621549769E+02  0.56967195059E+01  0.10847171209E+03  0.00000000000E+00 0.  1.
         -2    1    1    2    0  502 -0.92746797446E+02 -0.11813056234E+03  0.87336504129E+02  0.17373676395E+03  0.00000000000E+00 0.  1.
<scales pt_clust_5="13000.00000" pt_clust_6="13000.00000" pt_clust_7="13000.00000" pt_clust_8="13000.00000" pt_clust_9="136.99394"></scales>
<clustering>
<clus scale="   81.217">  5  6 -1 -1</clus>
<clus scale="   87.959">  2  5  1 -1</clus>
<clus scale="   91.089">  7  8 -1 -1</clus>
<clus scale="  136.994">  1  9  2 -1</clus>
<clus scale="  136.994">  1  5  2 -1</clus>
</clustering>
</event>
<event>
 9    2  0.3745229E-005  0.9182623E+02  0.7546771E-02  0.1304045E+00
         21   -1    0    0  501  502  0.00000000000E+00  0.00000000000E+00  0.34010198255E+02  0.34010198255E+02  0.00000000000E+00 0.  1.
          2   -1    0    0  502    0 -0.00000000000E+00 -0.00000000000E+00 -0.32373727810E+03  0.32373727810E+03  0.00000000000E+00 0. -1.
         24    2    1    2    0    0  0.14565170279E+02  0.18349763571E+02 -0.14744712115E+03  0.16984994786E+03  0.80990698508E+02 0.  0.
         23    2    1    2    0    0  0.81062644828E+01 -0.12859696432E+02 -0.80204590602E+02  0.12158398451E+03  0.90104415098E+02 0.  0.
        -11    1    3    3    0    0  0.51592391975E+01  0.39208887457E+02 -0.28561425634E+02  0.48782267669E+02  0.00000000000E+00 0.  1.
         12    1    3    3    0    0  0.94059310812E+01 -0.20859123886E+02 -0.11888569552E+03  0.12106768020E+03  0.00000000000E+00 0. -1.
        -13    1    4    4    0    0  0.41334341254E+02 -0.43135697757E+01 -0.89675689504E+01  0.42515314229E+02  0.00000000000E+00 0.  1.
         13    1    4    4    0    0 -0.33228076771E+02 -0.85461266564E+01 -0.71237021652E+02  0.79068670284E+02  0.00000000000E+00 0. -1.
          1    1    1    2  501    0 -0.22671434761E+02 -0.54900671385E+01 -0.62075368094E+02  0.66313543981E+02  0.00000000000E+00 0. -1.
<scales pt_clust_5="13000.00000" pt_clust_6="13000.00000" pt_clust_7="13000.00000" pt_clust_8="13000.00000" pt_clust_9="23.32671"></scales>
<clustering>
<clus scale="   23.327">  1  9  2 -1</clus>
<clus scale="   80.991">  5  6 -1 -1</clus>
<clus scale="   82.902">  2  5  1 -1</clus>
<clus scale="   90.104">  7  8 -1 -1</clus>
<clus scale="   23.327">  1  5  2 -1</clus>
</clustering>
</event>
<event>
 9    2  0.3745229E-005  0.1561521E+03  0.7546771E-02  0.1194566E+00
         21   -1    0    0  501  502  0.00000000000E+00  0.00000000000E+00  0.78795750373E+03  0.78795750373E+03  0.00000000000E+00 0.  1.
         -1   -1    0    0    0  501 -0.00000000000E+00 -0.00000000000E+00 -0.97439484954E+02  0.97439484954E+02  0.00000000000E+00 0.  1.
         23    2    1    2    0    0 -0.49613156260E+02 -0.99404331725E+02  0.56445281240E+02  0.15392657878E+03  0.90358372270E+02 0.  0.
         24    2    1    2    0    0 -0.31419638095E+02  0.20662539331E+03  0.33028424624E+03  0.39928052859E+03  0.81584375816E+02 0.  0.
        -13    1    4    4    0    0 -0.52880918928E+02  0.18356353377E+03  0.26372245741E+03  0.32564013429E+03  0.00000000000E+00 0.  1.
         14    1    4    4    0    0  0.21461280832E+02  0.23061859538E+02  0.66561788833E+02  0.73640394302E+02  0.00000000000E+00 0. -1.
        -11    1    3    3    0    0 -0.19495685895E+02  0.57193782977E+01 -0.13246297832E+02  0.24254019520E+02  0.00000000000E+00 0.  1.
         11    1    3    3    0    0 -0.30117470365E+02 -0.10512371002E+03  0.69691579073E+02  0.12967255925E+03  0.00000000000E+00 0. -1.
         -2    1    1    2    0  502  0.81032794356E+02 -0.10722106158E+03  0.30378849129E+03  0.33218988132E+03  0.00000000000E+00 0.  1.
<scales pt_clust_5="13000.00000" pt_clust_6="13000.00000" pt_clust_7="13000.00000" pt_clust_8="13000.00000" pt_clust_9="134.39743"></scales>
<clustering>
<clus scale="   81.584">  5  6 -1 -1</clus>
<clus scale="   90.358">  7  8 -1 -1</clus>
<clus scale="  134.397">  1  9  2 -1</clus>
<clus scale="  151.244">  1  5  2 -1</clus>
<clus scale="  134.397">  1  5  2 -1</clus>
</clustering>
</event>
<event>
 9    2  0.3745229E-005  0.3628993E+03  0.7546771E-02  0.1057687E+00
          2   -1    0    0  502    0 -0.00000000000E+00  0.00000000000E+00  0.23419609287E+04  0.23419609287E+04  0.00000000000E+00 0. -1.
         21   -1    0    0  501  502  0.00000000000E+00 -0.00000000000E+00 -0.59840082398E+02  0.59840082398E+02  0.00000000000E+00 0.  1.
         24    2    1    2    0    0 -0.35802723971E+03 -0.23874672831E+02  0.11293553909E+04  0.11877234676E+04  0.80560115091E+02 0.  0.
         23    2    1    2    0    0  0.34182764995E+03  0.35823496011E+02  0.10293324882E+04  0.10890139658E+04  0.91085570979E+02 0.  0.
        -13    1    3    3    0    0 -0.33177991628E+02 -0.34550041135E+01  0.48068186357E+02  0.58508689282E+02  0.00000000000E+00 0.  1.
         14    1    3    3    0    0 -0.32484924808E+03 -0.20419668717E+02  0.10812872046E+04  0.11292147783E+04  0.00000000000E+00 0. -1.
        -13    1    4    4    0    0  0.28134085850E+03  0.34946840408E+02  0.71966489011E+03  0.77349306032E+03  0.00000000000E+00 0.  1.
         13    1    4    4    0    0  0.60486791453E+02  0.87665560360E+00  0.30966759809E+03  0.31552090545E+03  0.00000000000E+00 0. -1.
          1    1    1    2  501    0  0.16199589751E+02 -0.11948823180E+02  0.12343296722E+03  0.12506357775E+03  0.00000000000E+00 0. -1.
<scales pt_clust_5="13000.00000" pt_clust_6="13000.00000" pt_clust_7="13000.00000" pt_clust_8="13000.00000" pt_clust_9="20.12962"></scales>
<clustering>
<clus scale="   20.130">  2  9  1 -1</clus>
<clus scale="   80.560">  5  6 -1 -1</clus>
<clus scale="   91.086">  7  8 -1 -1</clus>
<clus scale="  360.401">  1  5  2 -1</clus>
<clus scale="   20.130">  2  5  1 -1</clus>
</clustering>
</event>
<event>
 9    2  0.3745229E-005  0.9457992E+02  0.7546771E-02  0.1300808E+00
         21   -1    0    0  501  502  0.00000000000E+00  0.00000000000E+00  0.43461907020E+03  0.43461907020E+03  0.00000000000E+00 0. -1.
          2   -1    0    0  502    0 -0.00000000000E+00 -0.00000000000E+00 -0.82692234933E+02  0.82692234933E+02  0.00000000000E+00 0. -1.
         24    2    1    2    0    0  0.81103253292E+01 -0.15896453584E+02 -0.35619796995E+02  0.87244148648E+02  0.77616344425E+02 0.  0.
         23    2    1    2    0    0 -0.30883628042E+02  0.62766966978E+02  0.34139092455E+03  0.36045524876E+03  0.92123462645E+02 0.  0.
        -13    1    3    3    0    0 -0.20899549449E+02 -0.23618490230E+02  0.96003284627E+01  0.32966506556E+02  0.00000000000E+00 0.  1.
         14    1    3    3    0    0  0.29009874778E+02  0.77220366466E+01 -0.45220125458E+02  0.54277642092E+02  0.00000000000E+00 0. -1.
        -13    1    4    4    0    0  0.26055611038E+02  0.39713621193E+02  0.21154231042E+03  0.21680916879E+03  0.00000000000E+00 0. -1.
         13    1    4    4    0    0 -0.56939239080E+02  0.23053345785E+02  0.12984861414E+03  0.14364607997E+03  0.00000000000E+00 0.  1.
          1    1    1    2  501    0  0.22773302713E+02 -0.46870513394E+02  0.46155707704E+02  0.69611907716E+02  0.00000000000E+00 0. -1.
<scales pt_clust_5="13000.00000" pt_clust_6="13000.00000" pt_clust_7="13000.00000" pt_clust_8="13000.00000" pt_clust_9="52.11018"></scales>
<clustering>
<clus scale="   52.110">  1  9  2 -1</clus>
<clus scale="   77.616">  5  6 -1 -1</clus>
<clus scale="   80.517">  2  5  1 -1</clus>
<clus scale="   92.123">  7  8 -1 -1</clus>
<clus scale="   52.110">  1  5  2 -1</clus>
</clustering>
</event>
<event>
 9    2  0.3745229E-005  0.1829901E+03  0.7546771E-02  0.1165846E+00
         -1   -1    0    0    0  501 -0.00000000000E+00  0.00000000000E+00  0.13636609833E+04  0.13636609833E+04  0.00000000000E+00 0.  1.
         21   -1    0    0  501  502  0.00000000000E+00 -0.00000000000E+00 -0.38412505268E+02  0.38412505268E+02  0.00000000000E+00 0.  1.
         24    2    1    2    0    0 -0.17547793616E+03  0.59742985778E+02  0.68640683667E+03  0.71562510764E+03  0.81260192073E+02 0.  0.
         23    2    1    2    0    0  0.14008405528E+03  0.16292015724E+02  0.44296886013E+03  0.47337516656E+03  0.89295380322E+02 0.  0.
        -11    1    3    3    0    0 -0.17926464501E+03  0.50289492276E+02  0.58995160200E+03  0.61863376782E+03  0.00000000000E+00 0.  1.
         12    1    3    3    0    0  0.37867088471E+01  0.94534935014E+01  0.96455234675E+02  0.96991339817E+02  0.00000000000E+00 0. -1.
        -13    1    4    4    0    0  0.41762220927E+02  0.16399602831E+02  0.45402089028E+02  0.63830868378E+02  0.00000000000E+00 0. -1.
         13    1    4    4    0    0  0.98321834353E+02 -0.10758710639E+00  0.39756677110E+03  0.40954429818E+03  0.00000000000E+00 0.  1.
         -2    1    1    2    0  502  0.35393880885E+02 -0.76035001502E+02  0.19587278118E+03  0.21307321433E+03  0.00000000000E+00 0.  1.
<scales pt_clust_5="13000.00000" pt_clust_6="13000.00000" pt_clust_7="13000.00000" pt_clust_8="13000.00000" pt_clust_9="83.86923"></scales>
<clustering>
<clus scale="   81.260">  5  6 -1 -1</clus>
<clus scale="   83.869">  2  9  1 -1</clus>
<clus scale="   89.295">  7  8 -1 -1</clus>
<clus scale="  179.206">  1  5  2 -1</clus>
<clus scale="   83.869">  2  5  1 -1</clus>
</clustering>
</event>
<event>
 9    2  0.3745229E-005  0.8962586E+02  0.7546771E-02  0.1323224E+00
         21   -1    0    0  501  502  0.00000000000E+00  0.00000000000E+00  0.16035197355E+03  0.16035197355E+03  0.00000000000E+00 0.  1.
         -1   -1    0    0    0  501 -0.00000000000E+00 -0.00000000000E+00 -0.92112204441E+02  0.92112204441E+02  0.00000000000E+00 0.  1.
         23    2    1    2    0    0  0.90746600927E+01 -0.10191860088E+02 -0.51856647274E+02  0.10406419933E+03  0.89185325294E+02 0.  0.
         24    2    1    2    0    0 -0.20738677897E-01 -0.10355767491E+02  0.75935106053E+02  0.98858078999E+02  0.62446273720E+02 0.  0.
        -11    1    4    4    0    0  0.24053692937E+02 -0.22983738700E+02  0.56036242535E+02  0.65168189065E+02  0.00000000000E+00 0.  1.
         12    1    4    4    0    0 -0.24074431615E+02  0.12627971210E+02  0.19898863519E+02  0.33689889934E+02  0.00000000000E+00 0. -1.
        -11    1    3    3    0    0  0.46664609739E+02 -0.59168844664E+01 -0.45980293696E+02  0.65778284656E+02  0.00000000000E+00 0.  1.
         11    1    3    3    0    0 -0.37589949647E+02 -0.42749756216E+01 -0.58763535779E+01  0.38285914673E+02  0.00000000000E+00 0. -1.
         -2    1    1    2    0  502 -0.90539214148E+01  0.20547627579E+02  0.44161310333E+02  0.49541899665E+02  0.00000000000E+00 0.  1.
<scales pt_clust_5="13000.00000" pt_clust_6="13000.00000" pt_clust_7="13000.00000" pt_clust_8="13000.00000" pt_clust_9="22.45392"></scales>
<clustering>
<clus scale="   22.454">  1  9  2 -1</clus>
<clus scale="   62.446">  5  6 -1 -1</clus>
<clus scale="   63.074">  1  5  2 -1</clus>
<clus scale="   89.185">  7  8 -1 -1</clus>
<clus scale="   22.454">  1  5  2 -1</clus>
</clustering>
</event>
<event>
 9    2  0.3745229E-005  0.4698129E+03  0.7546771E-02  0.1021973E+00
         21   -1    0    0  501  502  0.00000000000E+00  0.00000000000E+00  0.85616878635E+03  0.85616878635E+03  0.00000000000E+00 0.  1.
         -1   -1    0    0    0  501 -0.00000000000E+00 -0.00000000000E+00 -0.30255100322E+03  0.30255100322E+03  0.00000000000E+00 0.  1.
         24    2    1    2    0    0 -0.10214260339E+03 -0.26726821808E+03  0.63341989047E+01  0.29705861187E+03  0.79613346792E+02 0.  0.
         23    2    1    2    0    0 -0.12020207497E+03 -0.85363388327E+02 -0.11385867452E+01  0.17278304373E+03  0.90095709817E+02 0.  0.
        -11    1    3    3    0    0 -0.95227368802E+02 -0.14725514079E+03 -0.10479828168E+02  0.17567627915E+03  0.00000000000E+00 0.  1.
         12    1    3    3    0    0 -0.69152345891E+01 -0.12001307729E+03  0.16814027073E+02  0.12138233272E+03  0.00000000000E+00 0. -1.
        -13    1    4    4    0    0 -0.33874271871E+02 -0.52942140175E+02  0.37065820496E+02  0.72967195027E+02  0.00000000000E+00 0.  1.
         13    1    4    4    0    0 -0.86327803104E+02 -0.32421248153E+02 -0.38204407242E+02  0.99815848708E+02  0.00000000000E+00 0. -1.
         -2    1    1    2    0  502  0.22234467837E+03  0.35263160641E+03  0.54842217098E+03  0.68887813396E+03  0.00000000000E+00 0.  1.
<scales pt_clust_5="13000.00000" pt_clust_6="13000.00000" pt_clust_7="13000.00000" pt_clust_8="13000.00000" pt_clust_9="416.87673"></scales>
<clustering>
<clus scale="   79.613">  5  6 -1 -1</clus>
<clus scale="   90.096">  7  8 -1 -1</clus>
<clus scale="  124.928">  5  7 -1 -1</clus>
<clus scale="  416.877">  1  9  2 -1</clus>
<clus scale="  416.877">  1  5  2 -1</clus>
</clustering>
</event>
<event>
 9    2  0.3745229E-005  0.1698028E+03  0.7546771E-02  0.1198977E+00
          2   -1    0    0  502    0 -0.00000000000E+00  0.00000000000E+00  0.51329051729E+03  0.51329051729E+03  0.00000000000E+00 0. -1.
         21   -1    0    0  501  502  0.00000000000E+00 -0.00000000000E+00 -0.13593068004E+03  0.13593068004E+03  0.00000000000E+00 0. -1.
         23    2    1    2    0    0  0.15795758478E+02 -0.51451784020E+02  0.24803799666E+03  0.27006178697E+03  0.92269870123E+02 0.  0.
         24    2    1    2    0    0  0.69479060081E+02 -0.86960664997E+02  0.16262020692E+03  0.21321188273E+03  0.81390897476E+02 0.  0.
        -11    1    4    4    0    0  0.77054009938E+02 -0.53593339668E+02  0.14959157143E+03  0.17659899418E+03  0.00000000000E+00 0.  1.
         12    1    4    4    0    0 -0.75749498571E+01 -0.33367325328E+02  0.13028635493E+02  0.36612888546E+02  0.00000000000E+00 0. -1.
        -13    1    3    3    0    0 -0.30226257071E+02 -0.38169613437E+02  0.67179880121E+02  0.82967959476E+02  0.00000000000E+00 0.  1.
         13    1    3    3    0    0  0.46022015549E+02 -0.13282170583E+02  0.18085811654E+03  0.18709382750E+03  0.00000000000E+00 0. -1.
          1    1    1    2  501    0 -0.85274818559E+02  0.13841244902E+03 -0.33298366333E+02  0.16594752762E+03  0.00000000000E+00 0. -1.
<scales pt_clust_5="13000.00000" pt_clust_6="13000.00000" pt_clust_7="13000.00000" pt_clust_8="13000.00000" pt_clust_9="149.02519"></scales>
<clustering>
<clus scale="   81.391">  5  6 -1 -1</clus>
<clus scale="   92.270">  7  8 -1 -1</clus>
<clus scale="  106.820">  1  7  2 -1</clus>
<clus scale="  149.025">  2  9  1 -1</clus>
<clus scale="  149.025">  2  5  1 -1</clus>
</clustering>
</event>
<event>
 9    2  0.3745229E-005  0.1201976E+03  0.7546771E-02  0.1247055E+00
          4   -1    0    0  502    0 -0.00000000000E+00  0.00000000000E+00  0.14640490412E+03  0.14640490412E+03  0.00000000000E+00 0. -1.
         21   -1    0    0  501  502  0.00000000000E+00 -0.00000000000E+00 -0.25202747137E+03  0.25202747137E+03  0.00000000000E+00 0.  1.
         23    2    1    2    0    0 -0.79582424142E+02 -0.74801960257E+01  0.94474199490E+02  0.15488739499E+03  0.93141908902E+02 0.  0.
         24    2    1    2    0    0  0.48846851155E+02  0.25016154116E+02 -0.17535759558E+03  0.20036846068E+03  0.79908765943E+02 0.  0.
        -11    1    4    4    0    0  0.37699303662E+02  0.42602124402E+02 -0.16942175494E+03  0.17871740135E+03  0.00000000000E+00 0.  1.
         12    1    4    4    0    0  0.11147547493E+02 -0.17585970286E+02 -0.59358406426E+01  0.21651059331E+02  0.00000000000E+00 0. -1.
        -13    1    3    3    0    0  0.13220035906E+02 -0.22874328702E+02  0.93670296073E+01  0.28031152431E+02  0.00000000000E+00 0.  1.
         13    1    3    3    0    0 -0.92802460048E+02  0.15394132676E+02  0.85107169882E+02  0.12685624256E+03  0.00000000000E+00 0. -1.
          3    1    1    2  501    0  0.30735572987E+02 -0.17535958090E+02 -0.24739171164E+02  0.43176519809E+02  0.00000000000E+00 0. -1.
<scales pt_clust_5="13000.00000" pt_clust_6="13000.00000" pt_clust_7="13000.00000" pt_clust_8="13000.00000" pt_clust_9="35.38623"></scales>
<clustering>
<clus scale="   35.386">  2  9  1 -1</clus>
<clus scale="   79.909">  5  6 -1 -1</clus>
<clus scale="   93.142">  7  8 -1 -1</clus>
<clus scale="  110.261">  2  5  1 -1</clus>
<clus scale="   35.386">  2  5  1 -1</clus>
</clustering>
</event>
<event>
 9    2  0.3745229E-005  0.1650230E+03  0.7546771E-02  0.1184820E+00
          2   -1    0    0  502    0 -0.00000000000E+00  0.00000000000E+00  0.79634176488E+03  0.79634176488E+03  0.00000000000E+00 0. -1.
         21   -1    0    0  501  502  0.00000000000E+00 -0.00000000000E+00 -0.96846675295E+02  0.96846675295E+02  0.00000000000E+00 0.  1.
         23    2    1    2    0    0 -0.13599374934E+03 -0.11903636714E+02  0.64346338786E+03  0.66423071694E+03  0.92310981884E+02 0.  0.
         24    2    1    2    0    0  0.13938059273E+03 -0.14522650900E+02  0.90478712595E+02  0.18540986516E+03  0.80947907010E+02 0.  0.
        -11    1    4    4    0    0  0.13604363639E+03 -0.28556310257E+02  0.59441016745E+02  0.15118388912E+03  0.00000000000E+00 0.  1.
         12    1    4    4    0    0  0.33369563373E+01  0.14033659357E+02  0.31037695850E+02  0.34225976045E+02  0.00000000000E+00 0. -1.
        -13    1    3    3    0    0 -0.54845502950E+02  0.24758154817E+02  0.13193560185E+03  0.14501033915E+03  0.00000000000E+00 0.  1.
         13    1    3    3    0    0 -0.81148246389E+02 -0.36661791531E+02  0.51152778601E+03  0.51922037779E+03  0.00000000000E+00 0. -1.
          1    1    1    2  501    0 -0.33868433876E+01  0.26426287614E+02 -0.34447010870E+02  0.43547858077E+02  0.00000000000E+00 0. -1.
<scales pt_clust_5="13000.00000" pt_clust_6="13000.00000" pt_clust_7="13000.00000" pt_clust_8="13000.00000" pt_clust_9="26.64244"></scales>
<clustering>
<clus scale="   26.642">  2  9  1 -1</clus>
<clus scale="   80.948">  5  6 -1 -1</clus>
<clus scale="   92.311">  7  8 -1 -1</clus>
<clus scale="  158.946">  2  5  1 -1</clus>
<clus scale="   26.642">  2  5  1 -1</clus>
</clustering>
</event>
<event>
 9    2  0.3745229E-005  0.2346706E+03  0.7546771E-02  0.1124164E+00
         21   -1    0    0  501  502  0.00000000000E+00  0.00000000000E+00  0.17463512098E+03  0.17463512098E+03  0.00000000000E+00 0. -1.
          2   -1    0    0  502    0 -0.00000000000E+00 -0.00000000000E+00 -0.67975352333E+03  0.67975352333E+03  0.00000000000E+00 0. -1.
         24    2    1    2    0    0 -0.12751593160E+03  0.16891105141E+03 -0.35408448055E+03  0.42011869961E+03  0.79577925936E+02 0.  0.
         23    2    1    2    0    0  0.23727939777E+03 -0.91581819257E+02 -0.12345983155E+03  0.29720003879E+03  0.91634004761E+02 0.  0.
        -11    1    3    3    0    0 -0.28343331463E+02  0.51774802405E+02 -0.42338468517E+02  0.72639662161E+02  0.00000000000E+00 0.  1.
         12    1    3    3    0    0 -0.99172600140E+02  0.11713624901E+03 -0.31174601203E+03  0.34747903745E+03  0.00000000000E+00 0. -1.
        -13    1    4    4    0    0  0.36101510511E+02 -0.52783717221E+02 -0.16345622522E+02  0.66004691049E+02  0.00000000000E+00 0.  1.
         13    1    4    4    0    0  0.20117788726E+03 -0.38798102036E+02 -0.10711420903E+03  0.23119534774E+03  0.00000000000E+00 0. -1.
          1    1    1    2  501    0 -0.10976346617E+03 -0.77329232156E+02 -0.27574090245E+02  0.13706990590E+03  0.00000000000E+00 0. -1.
<scales pt_clust_5="13000.00000" pt_clust_6="13000.00000" pt_clust_7="13000.00000" pt_clust_8="13000.00000" pt_clust_9="134.26775"></scales>
<clustering>
<clus scale="   79.578">  5  6 -1 -1</clus>
<clus scale="   91.634">  7  8 -1 -1</clus>
<clus scale="  134.268">  1  9  2 -1</clus>
<clus scale="  230.231">  2  5  1 -1</clus>
<clus scale="  134.268">  1  5  2 -1</clus>
</clustering>
</event>
<event>
 9    2  0.3745229E-005  0.9325225E+02  0.7546771E-02  0.1300812E+00
         21   -1    0    0  501  502  0.00000000000E+00  0.00000000000E+00  0.76855199357E+02  0.76855199357E+02  0.00000000000E+00 0.  1.
          2   -1    0    0  502    0 -0.00000000000E+00 -0.00000000000E+00 -0.18571641964E+03  0.18571641964E+03  0.00000000000E+00 0. -1.
         24    2    1    2    0    0  0.13529467263E+02 -0.31847467287E+02 -0.11000518404E+03  0.14002203481E+03  0.79421168834E+02 0.  0.
         23    2    1    2    0    0 -0.85581289091E+01  0.62311434288E+01 -0.16187467673E+02  0.91224055172E+02  0.89150016340E+02 0.  0.
        -11    1    3    3    0    0 -0.26051428904E+02 -0.10233792382E+02 -0.82686557445E+02  0.87295327691E+02  0.00000000000E+00 0.  1.
         12    1    3    3    0    0  0.39580896167E+02 -0.21613674906E+02 -0.27318626591E+02  0.52726707115E+02  0.00000000000E+00 0. -1.
        -11    1    4    4    0    0  0.13305069815E+02  0.28207062748E+02  0.24791722299E+02  0.39840842941E+02  0.00000000000E+00 0. -1.
         11    1    4    4    0    0 -0.21863198724E+02 -0.21975919320E+02 -0.40979189972E+02  0.51383212231E+02  0.00000000000E+00 0.  1.
          1    1    1    2  501    0 -0.49713383539E+01  0.25616323858E+02  0.17331431428E+02  0.31325529020E+02  0.00000000000E+00 0. -1.
<scales pt_clust_5="13000.00000" pt_clust_6="13000.00000" pt_clust_7="13000.00000" pt_clust_8="13000.00000" pt_clust_9="26.09426"></scales>
<clustering>
<clus scale="   26.094">  1  9  2 -1</clus>
<clus scale="   79.421">  5  6 -1 -1</clus>
<clus scale="   84.000">  2  5  1 -1</clus>
<clus scale="   89.150">  7  8 -1 -1</clus>
<clus scale="   26.094">  1  5  2 -1</clus>
</clustering>
</event>
<event>
 9    2  0.3745229E-005  0.1241485E+03  0.7546771E-02  0.1240003E+00
         -1   -1    0    0    0  501 -0.00000000000E+00  0.00000000000E+00  0.28130972652E+03  0.28130972652E+03  0.00000000000E+00 0.  1.
         21   -1    0    0  501  502  0.00000000000E+00 -0.00000000000E+00 -0.92865049513E+02  0.92865049513E+02  0.00000000000E+00 0. -1.
         23    2    1    2    0    0 -0.71317198520E+02 -0.77552083763E+02  0.17227696069E+03  0.22144620376E+03  0.90876847840E+02 0.  0.
         24    2    1    2    0    0  0.45177574557E+02  0.27384493992E+02  0.17215018633E+02  0.96149743665E+02  0.78469692152E+02 0.  0.
        -11    1    4    4    0    0  0.37887018904E+02  0.53364007543E+02  0.21374904321E+02  0.68847876055E+02  0.00000000000E+00 0.  1.
         12    1    4    4    0    0  0.72905556522E+01 -0.25979513552E+02 -0.41598856876E+01  0.27301867611E+02  0.00000000000E+00 0. -1.
        -13    1    3    3    0    0 -0.13480861410E+02 -0.60137468162E+02  0.33618148584E+02  0.70202767862E+02  0.00000000000E+00 0. -1.
         13    1    3    3    0    0 -0.57836337110E+02 -0.17414615601E+02  0.13865881211E+03  0.15124343589E+03  0.00000000000E+00 0.  1.
         -2    1    1    2    0  502  0.26139623964E+02  0.50167589771E+02 -0.10473023188E+01  0.56578828607E+02  0.00000000000E+00 0.  1.
<scales pt_clust_5="13000.00000" pt_clust_6="13000.00000" pt_clust_7="13000.00000" pt_clust_8="13000.00000" pt_clust_9="56.56913"></scales>
<clustering>
<clus scale="   56.569">  2  9  1 -1</clus>
<clus scale="   78.470">  5  6 -1 -1</clus>
<clus scale="   90.877">  7  8 -1 -1</clus>
<clus scale="  115.377">  2  5  1 -1</clus>
<clus scale="   56.569">  2  5  1 -1</clus>
</clustering>
</event>
<event>
 9    2  0.3745229E-005  0.9994630E+02  0.7546771E-02  0.1286263E+00
          2   -1    0    0  502    0 -0.00000000000E+00  0.00000000000E+00  0.37410757620E+03  0.37410757620E+03  0.00000000000E+00 0. -1.
         21   -1    0    0  501  502  0.00000000000E+00 -0.00000000000E+00 -0.53424247814E+02  0.53424247814E+02  0.00000000000E+00 0.  1.
         23    2    1    2    0    0  0.15652016203E+02  0.28909624772E+02  0.89656304474E+02  0.13163957398E+03  0.90608898517E+02 0.  0.
         24    2    1    2    0    0  0.55679529165E+02 -0.47085988113E+02  0.10674426017E+03  0.15144580698E+03  0.78893568346E+02 0.  0.
        -13    1    4    4    0    0  0.44882917657E+02 -0.26112102814E+02  0.11315571168E+02  0.53144711511E+02  0.00000000000E+00 0.  1.
         14    1    4    4    0    0  0.10796611508E+02 -0.20973885300E+02  0.95428689005E+02  0.98301095466E+02  0.00000000000E+00 0. -1.
        -11    1    3    3    0    0  0.20020647030E+02  0.55488573377E+02  0.86244379355E+02  0.10448876042E+03  0.00000000000E+00 0. -1.
         11    1    3    3    0    0 -0.43686308271E+01 -0.26578948605E+02  0.34119251190E+01  0.27150813566E+02  0.00000000000E+00 0.  1.
          1    1    1    2  501    0 -0.71331545368E+02  0.18176363341E+02  0.12428276374E+03  0.14444644306E+03  0.00000000000E+00 0. -1.
<scales pt_clust_5="13000.00000" pt_clust_6="13000.00000" pt_clust_7="13000.00000" pt_clust_8="13000.00000" pt_clust_9="73.61097"></scales>
<clustering>
<clus scale="   73.611">  2  9  1 -1</clus>
<clus scale="   78.894">  5  6 -1 -1</clus>
<clus scale="   89.462">  2  5  1 -1</clus>
<clus scale="   90.609">  7  8 -1 -1</clus>
<clus scale="   73.611">  2  5  1 -1</clus>
</clustering>
</event>
<event>
 9    2  0.3745229E-005  0.9528990E+02  0.7546771E-02  0.1299386E+00
         21   -1    0    0  501  502  0.00000000000E+00  0.00000000000E+00  0.16398427810E+03  0.16398427810E+03  0.00000000000E+00 0. -1.
          4   -1    0    0  502    0 -0.00000000000E+00 -0.00000000000E+00 -0.24738022343E+03  0.24738022343E+03  0.00000000000E+00 0. -1.
         23    2    1    2    0    0 -0.19273992871E+02 -0.50701954094E+01 -0.13802673881E+03  0.16862414289E+03  0.94792021049E+02 0.  0.
         24    2    1    2    0    0 -0.59742990519E+02  0.11407742335E+02 -0.49238546593E+02  0.11207786222E+03  0.80234975093E+02 0.  0.
        -13    1    4    4    0    0 -0.54391624381E+02  0.35944483020E+02 -0.56137312666E+02  0.86034019642E+02  0.00000000000E+00 0.  1.
         14    1    4    4    0    0 -0.53513661374E+01 -0.24536740685E+02  0.68987660730E+01  0.26043842579E+02  0.00000000000E+00 0. -1.
        -11    1    3    3    0    0 -0.30596208779E+02 -0.38118858715E+02 -0.35783641804E+02  0.60577589934E+02  0.00000000000E+00 0.  1.
         11    1    3    3    0    0  0.11322215908E+02  0.33048663306E+02 -0.10224309701E+03  0.10804655295E+03  0.00000000000E+00 0. -1.
          3    1    1    2  501    0  0.79016983390E+02 -0.63375469254E+01  0.10386934008E+03  0.13066249643E+03  0.00000000000E+00 0. -1.
<scales pt_clust_5="13000.00000" pt_clust_6="13000.00000" pt_clust_7="13000.00000" pt_clust_8="13000.00000" pt_clust_9="79.27073"></scales>
<clustering>
<clus scale="   79.271">  1  9  2 -1</clus>
<clus scale="   80.235">  5  6 -1 -1</clus>
<clus scale="   80.823">  1  5  2 -1</clus>
<clus scale="   94.792">  7  8 -1 -1</clus>
<clus scale="   79.271">  1  5  2 -1</clus>
</clustering>
</event>
<event>
 9    2  0.3745229E-005  0.9528230E+02  0.7546771E-02  0.1290867E+00
         21   -1    0    0  501  502  0.00000000000E+00  0.00000000000E+00  0.47270462692E+03  0.47270462692E+03  0.00000000000E+00 0.  1.
          2   -1    0    0  502    0 -0.00000000000E+00 -0.00000000000E+00 -0.39727142051E+02  0.39727142051E+02  0.00000000000E+00 0. -1.
         23    2    1    2    0    0 -0.43430023218E+01  0.29035741948E+02  0.51370517877E+02  0.10784749111E+03  0.90167706260E+02 0.  0.
         24    2    1    2    0    0 -0.20209130799E+02 -0.35675146719E+02  0.22072565764E+03  0.24170492178E+03  0.89556285173E+02 0.  0.
        -13    1    4    4    0    0 -0.32484480005E+02 -0.61665111922E+02  0.15989238304E+03  0.17442305359E+03  0.00000000000E+00 0.  1.
         14    1    4    4    0    0  0.12275349205E+02  0.25989965203E+02  0.60833274596E+02  0.67281868192E+02  0.00000000000E+00 0. -1.
        -11    1    3    3    0    0  0.36024535160E+02 -0.11263596702E+02  0.22041394752E+02  0.43708795760E+02  0.00000000000E+00 0.  1.
         11    1    3    3    0    0 -0.40367537482E+02  0.40299338650E+02  0.29329123125E+02  0.64138695350E+02  0.00000000000E+00 0. -1.
          1    1    1    2  501    0  0.24552133121E+02  0.66394047710E+01  0.16088130935E+03  0.16287935607E+03  0.00000000000E+00 0. -1.
<scales pt_clust_5="13000.00000" pt_clust_6="13000.00000" pt_clust_7="13000.00000" pt_clust_8="13000.00000" pt_clust_9="25.43401"></scales>
<clustering>
<clus scale="   25.434">  1  9  2 -1</clus>
<clus scale="   89.556">  5  6 -1 -1</clus>
<clus scale="   90.168">  7  8 -1 -1</clus>
<clus scale="   94.704">  1  5  2 -1</clus>
<clus scale="   25.434">  1  5  2 -1</clus>
</clustering>
</event>
<event>
 9    2  0.3745229E-005  0.2232975E+03  0.7546771E-02  0.1132189E+00
         -3   -1    0    0    0  501 -0.00000000000E+00  0.00000000000E+00  0.16006732621E+03  0.16006732621E+03  0.00000000000E+00 0.  1.
         21   -1    0    0  501  502  0.00000000000E+00 -0.00000000000E+00 -0.75675083954E+03  0.75675083954E+03  0.00000000000E+00 0.  1.
         24    2    1    2    0    0  0.12631241851E+02  0.18043718729E+03 -0.35306997784E+02  0.20092517151E+03  0.80045072459E+02 0.  0.
         23    2    1    2    0    0 -0.23935349590E+02 -0.30222283254E+03 -0.45257810738E+03  0.55219626287E+03  0.90455668626E+02 0.  0.
        -13    1    3    3    0    0 -0.93169609030E+01  0.17389286644E+03 -0.25454531947E+02  0.17599280655E+03  0.00000000000E+00 0.  1.
         14    1    3    3    0    0  0.21948202754E+02  0.65443208506E+01 -0.98524658365E+01  0.24932364962E+02  0.00000000000E+00 0. -1.
        -11    1    4    4    0    0  0.91039629794E+01 -0.26541582624E+03 -0.39877028907E+03  0.47910978534E+03  0.00000000000E+00 0.  1.
         11    1    4    4    0    0 -0.33039312570E+02 -0.36807006302E+02 -0.53807818307E+02  0.73086477538E+02  0.00000000000E+00 0. -1.
         -4    1    1    2    0  502  0.11304107739E+02  0.12178564525E+03 -0.10879840817E+03  0.16369673137E+03  0.00000000000E+00 0.  1.
<scales pt_clust_5="13000.00000" pt_clust_6="13000.00000" pt_clust_7="13000.00000" pt_clust_8="13000.00000" pt_clust_9="122.30914"></scales>
<clustering>
<clus scale="   80.045">  5  6 -1 -1</clus>
<clus scale="   90.456">  7  8 -1 -1</clus>
<clus scale="  122.309">  2  9  1 -1</clus>
<clus scale="  219.287">  1  5  2 -1</clus>
<clus scale="  122.309">  2  5  1 -1</clus>
</clustering>
</event>
<event>
 9    2  0.3745229E-005  0.1553563E+03  0.7546771E-02  0.1208986E+00
         21   -1    0    0  501  502  0.00000000000E+00  0.00000000000E+00  0.17558069726E+03  0.17558069726E+03  0.00000000000E+00 0. -1.
          2   -1    0    0  502    0 -0.00000000000E+00 -0.00000000000E+00 -0.45361796319E+03  0.45361796319E+03  0.00000000000E+00 0. -1.
         23    2    1    2    0    0  0.68531301195E+02  0.22834212480E+01 -0.29453830902E+03  0.31525226126E+03  0.89047287980E+02 0.  0.
         24    2    1    2    0    0  0.55632817024E+02  0.81104003788E+02 -0.65762928994E+02  0.14324914669E+03  0.80763144060E+02 0.  0.
        -13    1    4    4    0    0  0.59387940187E+01  0.52828077333E+02 -0.67655230983E+02  0.86042462241E+02  0.00000000000E+00 0.  1.
         14    1    4    4    0    0  0.49694023005E+02  0.28275926455E+02  0.18923019895E+01  0.57206684453E+02  0.00000000000E+00 0. -1.
        -13    1    3    3    0    0  0.41574949475E+02 -0.39496091214E+02 -0.10896172284E+03  0.12313031588E+03  0.00000000000E+00 0.  1.
         13    1    3    3    0    0  0.26956351720E+02  0.41779512462E+02 -0.18557658618E+03  0.19212194538E+03  0.00000000000E+00 0. -1.
          1    1    1    2  501    0 -0.12416411822E+03 -0.83387425036E+02  0.82263972074E+02  0.17069725249E+03  0.00000000000E+00 0. -1.
<scales pt_clust_5="13000.00000" pt_clust_6="13000.00000" pt_clust_7="13000.00000" pt_clust_8="13000.00000" pt_clust_9="132.71354"></scales>
<clustering>
<clus scale="   80.763">  5  6 -1 -1</clus>
<clus scale="   89.047">  7  8 -1 -1</clus>
<clus scale="  112.388">  2  7  1 -1</clus>
<clus scale="  132.714">  1  9  2 -1</clus>
<clus scale="  132.714">  1  5  2 -1</clus>
</clustering>
</event>
<event>
 9    2  0.3745229E-005  0.2807179E+03  0.7546771E-02  0.1125848E+00
         21   -1    0    0  501  502  0.00000000000E+00  0.00000000000E+00  0.30494688984E+03  0.30494688984E+03  0.00000000000E+00 0. -1.
          2   -1    0    0  502    0 -0.00000000000E+00 -0.00000000000E+00 -0.62870216544E+03  0.62870216544E+03  0.00000000000E+00 0. -1.
         23    2    1    2    0    0  0.89450094872E+02  0.14351873419E+02 -0.92331572891E+02  0.15864072073E+03  0.91839333502E+02 0.  0.
         24    2    1    2    0    0 -0.32739745287E+03 -0.10462813762E+03 -0.34745204923E+03  0.49530969985E+03  0.80452675044E+02 0.  0.
        -13    1    4    4    0    0 -0.36337664938E+02 -0.11905852775E+02 -0.87936006238E+01  0.39236496217E+02  0.00000000000E+00 0.  1.
         14    1    4    4    0    0 -0.29105978793E+03 -0.92722284849E+02 -0.33865844861E+03  0.45607320363E+03  0.00000000000E+00 0. -1.
        -11    1    3    3    0    0  0.32942099020E+02  0.14828123873E+02 -0.95436994064E+02  0.10204545547E+03  0.00000000000E+00 0.  1.
         11    1    3    3    0    0  0.56507995851E+02 -0.47625045358E+00  0.31054211726E+01  0.56595265264E+02  0.00000000000E+00 0. -1.
          1    1    1    2  501    0  0.23794735800E+03  0.90276264205E+02  0.11602834652E+03  0.27969863470E+03  0.00000000000E+00 0. -1.
<scales pt_clust_5="13000.00000" pt_clust_6="13000.00000" pt_clust_7="13000.00000" pt_clust_8="13000.00000" pt_clust_9="268.94225"></scales>
<clustering>
<clus scale="   80.453">  5  6 -1 -1</clus>
<clus scale="   91.839">  7  8 -1 -1</clus>
<clus scale="  129.003">  2  7  1 -1</clus>
<clus scale="  268.942">  1  9  2 -1</clus>
<clus scale="  268.942">  1  5  2 -1</clus>
</clustering>
</event>
<event>
 9    2  0.3745229E-005  0.1175924E+03  0.7546771E-02  0.1250639E+00
         21   -1    0    0  501  502  0.00000000000E+00  0.00000000000E+00  0.67857578963E+02  0.67857578963E+02  0.00000000000E+00 0. -1.
          2   -1    0    0  502    0 -0.00000000000E+00 -0.00000000000E+00 -0.28776749504E+03  0.28776749504E+03  0.00000000000E+00 0. -1.
         24    2    1    2    0    0  0.65943406584E+02  0.57377237211E+02 -0.15895182730E+03  0.19866563930E+03  0.81004151831E+02 0.  0.
         23    2    1    2    0    0 -0.31380547744E+02 -0.42263809841E+02 -0.54028548786E+02  0.11860548546E+03  0.91527092701E+02 0.  0.
        -13    1    3    3    0    0 -0.59532838683E+01  0.38938090709E+02 -0.28653749620E+02  0.48709894931E+02  0.00000000000E+00 0.  1.
         14    1    3    3    0    0  0.71896690453E+02  0.18439146503E+02 -0.13029807768E+03  0.14995574437E+03  0.00000000000E+00 0. -1.
        -11    1    4    4    0    0  0.22542172141E+02  0.87190373682E+01 -0.34047329200E+02  0.41753943085E+02  0.00000000000E+00 0. -1.
         11    1    4    4    0    0 -0.53922719885E+02 -0.50982847209E+02 -0.19981219585E+02  0.76851542375E+02  0.00000000000E+00 0.  1.
          1    1    1    2  501    0 -0.34562858840E+02 -0.15113427371E+02 -0.69295399893E+01  0.38353949244E+02  0.00000000000E+00 0. -1.
<scales pt_clust_5="13000.00000" pt_clust_6="13000.00000" pt_clust_7="13000.00000" pt_clust_8="13000.00000" pt_clust_9="37.72276"></scales>
<clustering>
<clus scale="   37.723">  1  9  2 -1</clus>
<clus scale="   81.004">  5  6 -1 -1</clus>
<clus scale="   91.527">  7  8 -1 -1</clus>
<clus scale="  109.601">  2  5  1 -1</clus>
<clus scale="   37.723">  1  5  2 -1</clus>
</clustering>
</event>
<event>
 9    2  0.3745229E-005  0.9212124E+02  0.7546771E-02  0.1304983E+00
          4   -1    0    0  502    0 -0.00000000000E+00  0.00000000000E+00  0.31484323970E+02  0.31484323970E+02  0.00000000000E+00 0. -1.
         21   -1    0    0  501  502  0.00000000000E+00 -0.00000000000E+00 -0.55544265333E+03  0.55544265333E+03  0.00000000000E+00 0.  1.
         23    2    1    2    0    0  0.12828492245E+02  0.29808700687E+01 -0.66037797874E+02  0.11261920488E+03  0.90269810905E+02 0.  0.
         24    2    1    2    0    0 -0.36356519007E+02  0.19736989777E+02 -0.29254970202E+03  0.30573381109E+03  0.78590647352E+02 0.  0.
        -11    1    4    4    0    0 -0.58174573094E+02 -0.14384048127E+01 -0.18179152820E+03  0.19087825881E+03  0.00000000000E+00 0.  1.
         12    1    4    4    0    0  0.21818054087E+02  0.21175394590E+02 -0.11075817383E+03  0.11485555228E+03  0.00000000000E+00 0. -1.
        -13    1    3    3    0    0  0.82652927344E+01  0.46448341332E+02 -0.29408812681E+02  0.55593540450E+02  0.00000000000E+00 0. -1.
         13    1    3    3    0    0  0.45631995110E+01 -0.43467471263E+02 -0.36628985193E+02  0.57025664433E+02  0.00000000000E+00 0.  1.
          3    1    1    2  501    0  0.23528026762E+02 -0.22717859846E+02 -0.16537082946E+03  0.16857396132E+03  0.00000000000E+00 0. -1.
<scales pt_clust_5="13000.00000" pt_clust_6="13000.00000" pt_clust_7="13000.00000" pt_clust_8="13000.00000" pt_clust_9="32.70580"></scales>
<clustering>
<clus scale="   32.706">  2  9  1 -1</clus>
<clus scale="   78.591">  5  6 -1 -1</clus>
<clus scale="   80.710">  2  5  1 -1</clus>
<clus scale="   90.270">  7  8 -1 -1</clus>
<clus scale="   32.706">  2  5  1 -1</clus>
</clustering>
</event>
<event>
 9    2  0.3745229E-005  0.1498203E+03  0.7546771E-02  0.1221231E+00
         21   -1    0    0  501  502  0.00000000000E+00  0.00000000000E+00  0.70999859795E+03  0.70999859795E+03  0.00000000000E+00 0.  1.
         -1   -1    0    0    0  501 -0.00000000000E+00 -0.00000000000E+00 -0.91078472182E+02  0.91078472182E+02  0.00000000000E+00 0.  1.
         24    2    1    2    0    0  0.42208958205E+02 -0.30889859708E+02  0.19490569398E+03  0.21757416732E+03  0.81329632678E+02 0.  0.
         23    2    1    2    0    0  0.84408427756E+02  0.28092983605E+02 -0.16084744870E+02  0.12554322092E+03  0.87111324743E+02 0.  0.
        -11    1    3    3    0    0  0.66598025057E+02 -0.21691799372E+02  0.13082161639E+03  0.14839180036E+03  0.00000000000E+00 0.  1.
         12    1    3    3    0    0 -0.24389066852E+02 -0.91980603364E+01  0.64084077598E+02  0.69182366954E+02  0.00000000000E+00 0. -1.
        -11    1    4    4    0    0  0.37354068738E+02  0.29239117645E+02 -0.48928419188E+02  0.68148680517E+02  0.00000000000E+00 0.  1.
         11    1    4    4    0    0  0.47054359018E+02 -0.11461340397E+01  0.32843674319E+02  0.57394540408E+02  0.00000000000E+00 0. -1.
         -2    1    1    2    0  502 -0.12661738596E+03  0.27968761027E+01  0.44009917666E+03  0.45795968189E+03  0.00000000000E+00 0.  1.
<scales pt_clust_5="13000.00000" pt_clust_6="13000.00000" pt_clust_7="13000.00000" pt_clust_8="13000.00000" pt_clust_9="121.89237"></scales>
<clustering>
<clus scale="   81.330">  5  6 -1 -1</clus>
<clus scale="   87.111">  7  8 -1 -1</clus>
<clus scale="   96.697">  2  5  1 -1</clus>
<clus scale="  121.892">  1  9  2 -1</clus>
<clus scale="  121.892">  1  5  2 -1</clus>
</clustering>
</event>
<event>
 9    2  0.3745229E-005  0.2429888E+03  0.7546771E-02  0.1154914E+00
          2   -1    0    0  502    0 -0.00000000000E+00  0.00000000000E+00  0.34030497738E+03  0.34030497738E+03  0.00000000000E+00 0. -1.
         21   -1    0    0  501  502  0.00000000000E+00 -0.00000000000E+00 -0.86218869902E+03  0.86218869902E+03  0.00000000000E+00 0. -1.
         23    2    1    2    0    0 -0.45958473749E+02  0.38330790563E+01  0.19054188611E+03  0.21458863673E+03  0.87265106688E+02 0.  0.
         24    2    1    2    0    0  0.42937910772E+02  0.22597184380E+03 -0.45850896151E+01  0.24368892489E+03  0.80351295559E+02 0.  0.
        -11    1    4    4    0    0  0.25565607182E+02  0.11876462512E+02 -0.62915032792E+01  0.28883103121E+02  0.00000000000E+00 0.  1.
         12    1    4    4    0    0  0.17372303590E+02  0.21409538128E+03  0.17064136641E+01  0.21480582177E+03  0.00000000000E+00 0. -1.
        -13    1    3    3    0    0  0.43548583030E+01  0.27385775229E+02  0.17362286445E+02  0.32716883506E+02  0.00000000000E+00 0. -1.
         13    1    3    3    0    0 -0.50313332052E+02 -0.23552696173E+02  0.17317959967E+03  0.18187175322E+03  0.00000000000E+00 0.  1.
          1    1    1    2  501    0  0.30205629771E+01 -0.22980492285E+03 -0.70784051814E+03  0.74421611477E+03  0.00000000000E+00 0. -1.
<scales pt_clust_5="13000.00000" pt_clust_6="13000.00000" pt_clust_7="13000.00000" pt_clust_8="13000.00000" pt_clust_9="229.31904"></scales>
<clustering>
<clus scale="   80.351">  5  6 -1 -1</clus>
<clus scale="   87.265">  7  8 -1 -1</clus>
<clus scale="   98.702">  1  7  2 -1</clus>
<clus scale="  229.319">  2  9  1 -1</clus>
<clus scale="  229.319">  2  5  1 -1</clus>
</clustering>
</event>
<event>
 9    2  0.3745229E-005  0.1038870E+03  0.7546771E-02  0.1277818E+00
         -1   -1    0    0    0  501 -0.00000000000E+00  0.00000000000E+00  0.47204265053E+03  0.47204265053E+03  0.00000000000E+00 0.  1.
         21   -1    0    0  501  502  0.00000000000E+00 -0.00000000000E+00 -0.36000061909E+02  0.36000061909E+02  0.00000000000E+00 0. -1.
         23    2    1    2    0    0 -0.95433068039E+01 -0.65183135723E+02  0.27745534329E+03  0.29954032851E+03  0.91668015109E+02 0.  0.
         24    2    1    2    0    0  0.45295422595E+00  0.31518165403E+02  0.14972341676E+03  0.17252277591E+03  0.79708260317E+02 0.  0.
        -11    1    4    4    0    0  0.12706739184E+02  0.37312584422E+02  0.15347709064E+03  0.15845790459E+03  0.00000000000E+00 0.  1.
         12    1    4    4    0    0 -0.12253784958E+02 -0.57944190196E+01 -0.37536738774E+01  0.14064871316E+02  0.00000000000E+00 0. -1.
        -13    1    3    3    0    0  0.40211506103E+02 -0.40099441700E+02  0.12782232663E+03  0.13986950215E+03  0.00000000000E+00 0.  1.
         13    1    3    3    0    0 -0.49754812907E+02 -0.25083694022E+02  0.14963301666E+03  0.15967082636E+03  0.00000000000E+00 0. -1.
         -2    1    1    2    0  502  0.90903525779E+01  0.33664970320E+02  0.88638285704E+01  0.35979608024E+02  0.00000000000E+00 0.  1.
<scales pt_clust_5="13000.00000" pt_clust_6="13000.00000" pt_clust_7="13000.00000" pt_clust_8="13000.00000" pt_clust_9="34.87069"></scales>
<clustering>
<clus scale="   34.871">  2  9  1 -1</clus>
<clus scale="   79.708">  5  6 -1 -1</clus>
<clus scale="   91.668">  7  8 -1 -1</clus>
<clus scale="   93.503">  2  5  1 -1</clus>
<clus scale="   34.871">  2  5  1 -1</clus>
</clustering>
</event>
<event>
 9    2  0.3745229E-005  0.9597075E+02  0.7546771E-02  0.1295482E+00
         -1   -1    0    0    0  501 -0.00000000000E+00  0.00000000000E+00  0.29942701464E+03  0.29942701464E+03  0.00000000000E+00 0.  1.
         21   -1    0    0  501  502  0.00000000000E+00 -0.00000000000E+00 -0.72439395223E+02  0.72439395223E+02  0.00000000000E+00 0.  1.
         24    2    1    2    0    0 -0.21629469773E+02 -0.25075962983E+02  0.23105232600E+03  0.24657238204E+03  0.79474048294E+02 0.  0.
         23    2    1    2    0    0  0.18410802899E+02 -0.33314372512E+01 -0.15949650189E+02  0.94332889457E+02  0.91072754183E+02 0.  0.
        -11    1    3    3    0    0 -0.28603988006E+02  0.14040283865E+02  0.17493203071E+03  0.17781038515E+03  0.00000000000E+00 0.  1.
         12    1    3    3    0    0  0.69745182332E+01 -0.39116246848E+02  0.56120295295E+02  0.68761996888E+02  0.00000000000E+00 0. -1.
        -13    1    4    4    0    0  0.30357134927E+02 -0.25903068774E+02 -0.41942327496E+02  0.57893725469E+02  0.00000000000E+00 0.  1.
         13    1    4    4    0    0 -0.11946332028E+02  0.22571631523E+02  0.25992677307E+02  0.36439163988E+02  0.00000000000E+00 0. -1.
         -2    1    1    2    0  502  0.32186668737E+01  0.28407400234E+02  0.11884943605E+02  0.30961138367E+02  0.00000000000E+00 0.  1.
<scales pt_clust_5="13000.00000" pt_clust_6="13000.00000" pt_clust_7="13000.00000" pt_clust_8="13000.00000" pt_clust_9="28.58916"></scales>
<clustering>
<clus scale="   28.589">  2  9  1 -1</clus>
<clus scale="   79.474">  5  6 -1 -1</clus>
<clus scale="   85.043">  1  5  2 -1</clus>
<clus scale="   91.073">  7  8 -1 -1</clus>
<clus scale="   28.589">  2  5  1 -1</clus>
</clustering>
</event>
<event>
 9    2  0.3745229E-005  0.1457078E+03  0.7546771E-02  0.1208942E+00
         -1   -1    0    0    0  501 -0.00000000000E+00  0.00000000000E+00  0.12874471132E+03  0.12874471132E+03  0.00000000000E+00 0.  1.
         21   -1    0    0  501  502  0.00000000000E+00 -0.00000000000E+00 -0.29065840515E+03  0.29065840515E+03  0.00000000000E+00 0.  1.
         23    2    1    2    0    0 -0.87770259928E+02  0.62458816609E+02  0.57859691454E+01  0.14361865917E+03  0.94805693514E+02 0.  0.
         24    2    1    2    0    0  0.53235956392E+02 -0.11460955120E+03 -0.84310974620E+02  0.17154439501E+03  0.79685147532E+02 0.  0.
        -11    1    4    4    0    0  0.13453212538E+02 -0.76284356112E+02 -0.87639920889E+01  0.77955753299E+02  0.00000000000E+00 0.  1.
         12    1    4    4    0    0  0.39782743854E+02 -0.38325195090E+02 -0.75546982531E+02  0.93588641708E+02  0.00000000000E+00 0. -1.
        -13    1    3    3    0    0 -0.34074578399E+02  0.44778513593E+02 -0.41500516745E+02  0.69917702070E+02  0.00000000000E+00 0.  1.
         13    1    3    3    0    0 -0.53695681530E+02  0.17680303016E+02  0.47286485890E+02  0.73700957100E+02  0.00000000000E+00 0. -1.
         -2    1    1    2    0  502  0.34534303536E+02  0.52150734593E+02 -0.83388688358E+02  0.10424006229E+03  0.00000000000E+00 0.  1.
<scales pt_clust_5="13000.00000" pt_clust_6="13000.00000" pt_clust_7="13000.00000" pt_clust_8="13000.00000" pt_clust_9="62.54852"></scales>
<clustering>
<clus scale="   62.549">  2  9  1 -1</clus>
<clus scale="   79.685">  5  6 -1 -1</clus>
<clus scale="   94.806">  7  8 -1 -1</clus>
<clus scale="  136.354">  2  5  1 -1</clus>
<clus scale="   62.549">  2  5  1 -1</clus>
</clustering>
</event>
<event>
 9    2  0.3745229E-005  0.1275489E+03  0.7546771E-02  0.1235565E+00
         21   -1    0    0  501  502  0.00000000000E+00  0.00000000000E+00  0.12662252155E+04  0.12662252155E+04  0.00000000000E+00 0. -1.
         -3   -1    0    0    0  501 -0.00000000000E+00 -0.00000000000E+00 -0.44652124964E+02  0.44652124964E+02  0.00000000000E+00 0.  1.
         23    2    1    2    0    0 -0.55755706573E+02  0.68529962064E+02  0.17460920602E+03  0.20510260230E+03  0.61430026268E+02 0.  0.
         24    2    1    2    0    0  0.14278255888E+03 -0.78352935976E+02  0.97681481090E+03  0.99356486173E+03  0.80485514022E+02 0.  0.
        -13    1    4    4    0    0  0.16677857265E+02  0.11908210165E+02  0.52996593923E+02  0.56820730018E+02  0.00000000000E+00 0.  1.
         14    1    4    4    0    0  0.12610470161E+03 -0.90261146141E+02  0.92381821698E+03  0.93674413171E+03  0.00000000000E+00 0. -1.
        -13    1    3    3    0    0 -0.28131808933E+02  0.61019557637E+01  0.17213829466E+02  0.33540251384E+02  0.00000000000E+00 0. -1.
         13    1    3    3    0    0 -0.27623897640E+02  0.62428006300E+02  0.15739537655E+03  0.17156235091E+03  0.00000000000E+00 0.  1.
         -4    1    1    2    0  502 -0.87026852306E+02  0.98229739122E+01  0.70149073589E+02  0.11220987641E+03  0.00000000000E+00 0.  1.
<scales pt_clust_5="13000.00000" pt_clust_6="13000.00000" pt_clust_7="13000.00000" pt_clust_8="13000.00000" pt_clust_9="87.57952"></scales>
<clustering>
<clus scale="   61.430">  7  8 -1 -1</clus>
<clus scale="   80.486">  5  6 -1 -1</clus>
<clus scale="   87.580">  1  9  2 -1</clus>
<clus scale="  116.467">  2  7  1 -1</clus>
<clus scale="   87.580">  1  5  2 -1</clus>
</clustering>
</event>
<event>
 9    2  0.5063458E-005  0.9645872E+02  0.7546771E-02  0.1293006E+00
          2   -1    0    0  502    0 -0.00000000000E+00  0.00000000000E+00  0.25266122245E+03  0.25266122245E+03  0.00000000000E+00 0. -1.
         21   -1    0    0  501  502  0.00000000000E+00 -0.00000000000E+00 -0.23472590331E+03  0.23472590331E+03  0.00000000000E+00 0. -1.
         23    2    1    2    0    0  0.27584936354E+02  0.31931240785E+02  0.19611321532E+03  0.21958858718E+03  0.89320890845E+02 0.  0.
         24    2    1    2    0    0 -0.97282354924E+00 -0.21174788211E+02  0.46904810418E+01  0.82691139459E+02  0.79790387211E+02 0.  0.
        -13    1    4    4    0    0 -0.26041413107E+02 -0.30304107518E+02 -0.21441764192E+02  0.45345819881E+02  0.00000000000E+00 0.  1.
         14    1    4    4    0    0  0.25068589558E+02  0.91293193065E+01  0.26132245233E+02  0.37345319578E+02  0.00000000000E+00 0. -1.
        -13    1    3    3    0    0 -0.14244009947E+02  0.25009602900E+02  0.12911495946E+02  0.31544869379E+02  0.00000000000E+00 0.  1.
         13    1    3    3    0    0  0.41828946301E+02  0.69216378847E+01  0.18320171938E+03  0.18804371780E+03  0.00000000000E+00 0. -1.
          1    1    1    2  501    0 -0.26612112805E+02 -0.10756452573E+02 -0.18286837723E+03  0.18510739912E+03  0.00000000000E+00 0. -1.
<scales pt_clust_5="13000.00000" pt_clust_6="13000.00000" pt_clust_7="13000.00000" pt_clust_8="13000.00000" pt_clust_9="28.70376"></scales>
<clustering>
<clus scale="   28.704">  2  9  1 -1</clus>
<clus scale="   79.790">  5  6 -1 -1</clus>
<clus scale="   87.707">  2  5  1 -1</clus>
<clus scale="   89.321">  7  8 -1 -1</clus>
<clus scale="   28.704">  2  5  1 -1</clus>
</clustering>
</event>
<event>
 9    2  0.3745229E-005  0.1008333E+03  0.7546771E-02  0.1284972E+00
          2   -1    0    0  502    0 -0.00000000000E+00  0.00000000000E+00  0.33889673454E+03  0.33889673454E+03  0.00000000000E+00 0. -1.
         21   -1    0    0  501  502  0.00000000000E+00 -0.00000000000E+00 -0.68387877286E+02  0.68387877286E+02  0.00000000000E+00 0.  1.
         24    2    1    2    0    0 -0.26668925568E+02 -0.35612224774E+00  0.11484665286E+03  0.14135974143E+03  0.77983744521E+02 0.  0.
         23    2    1    2    0    0  0.75111879484E+02 -0.64515051927E+02  0.92081220556E+02  0.16298056250E+03  0.90993000882E+02 0.  0.
        -11    1    3    3    0    0 -0.27291286152E+02  0.23505793529E+02  0.15545751845E+02  0.39230180088E+02  0.00000000000E+00 0.  1.
         12    1    3    3    0    0  0.62236058376E+00 -0.23861915777E+02  0.99300901015E+02  0.10212956134E+03  0.00000000000E+00 0. -1.
        -13    1    4    4    0    0  0.42131869062E+02 -0.70633695566E+02  0.21768686353E+02  0.85076959546E+02  0.00000000000E+00 0.  1.
         13    1    4    4    0    0  0.32980010422E+02  0.61186436399E+01  0.70312534203E+02  0.77903602956E+02  0.00000000000E+00 0. -1.
          1    1    1    2  501    0 -0.48442953915E+02  0.64871174174E+02  0.63580983840E+02  0.10294430790E+03  0.00000000000E+00 0. -1.
<scales pt_clust_5="13000.00000" pt_clust_6="13000.00000" pt_clust_7="13000.00000" pt_clust_8="13000.00000" pt_clust_9="80.96289"></scales>
<clustering>
<clus scale="   77.984">  5  6 -1 -1</clus>
<clus scale="   80.963">  2  9  1 -1</clus>
<clus scale="   89.270">  1  5  2 -1</clus>
<clus scale="   90.993">  7  8 -1 -1</clus>
<clus scale="   80.963">  2  5  1 -1</clus>
</clustering>
</event>
<event>
 9    2  0.3745229E-005  0.1669027E+03  0.7546771E-02  0.1182682E+00
          2   -1    0    0  502    0 -0.00000000000E+00  0.00000000000E+00  0.11261957085E+04  0.11261957085E+04  0.00000000000E+00 0. -1.
         21   -1    0    0  501  502  0.00000000000E+00 -0.00000000000E+00 -0.44322029862E+02  0.44322029862E+02  0.00000000000E+00 0.  1.
         24    2    1    2    0    0 -0.16819094811E+03 -0.14131680362E+02  0.70257827981E+03  0.72681164417E+03  0.78428486073E+02 0.  0.
         23    2    1    2    0    0  0.10151222588E+03  0.73181157520E+02  0.23525355382E+03  0.27435159657E+03  0.65301991849E+02 0.  0.
        -13    1    3    3    0    0 -0.90824118594E+02  0.30440775307E+02  0.32519280947E+03  0.33900741091E+03  0.00000000000E+00 0.  1.
         14    1    3    3    0    0 -0.77366829512E+02 -0.44572455670E+02  0.37738547034E+03  0.38780423326E+03  0.00000000000E+00 0. -1.
        -13    1    4    4    0    0  0.67234318049E+02  0.41619378781E+02  0.80930330993E+02  0.11314744667E+03  0.00000000000E+00 0.  1.
         13    1    4    4    0    0  0.34277907829E+02  0.31561778739E+02  0.15432322283E+03  0.16120414990E+03  0.00000000000E+00 0. -1.
          1    1    1    2  501    0  0.66678722227E+02 -0.59049477158E+02  0.14404184503E+03  0.16935449764E+03  0.00000000000E+00 0. -1.
<scales pt_clust_5="13000.00000" pt_clust_6="13000.00000" pt_clust_7="13000.00000" pt_clust_8="13000.00000" pt_clust_9="89.06679"></scales>
<clustering>
<clus scale="   65.302">  7  8 -1 -1</clus>
<clus scale="   78.428">  5  6 -1 -1</clus>
<clus scale="   89.067">  2  9  1 -1</clus>
<clus scale="  161.152">  2  7  1 -1</clus>
<clus scale="   89.067">  2  5  1 -1</clus>
</clustering>
</event>
<event>
 9    2  0.3745229E-005  0.1015458E+03  0.7546771E-02  0.1281596E+00
         -1   -1    0    0    0  501 -0.00000000000E+00  0.00000000000E+00  0.16431068731E+03  0.16431068731E+03  0.00000000000E+00 0.  1.
         21   -1    0    0  501  502  0.00000000000E+00 -0.00000000000E+00 -0.13765321273E+03  0.13765321273E+03  0.00000000000E+00 0. -1.
         23    2    1    2    0    0 -0.37671933616E+02  0.31087482008E+02  0.10399060802E+03  0.14613244230E+03  0.90305249103E+02 0.  0.
         24    2    1    2    0    0  0.11087034500E+02 -0.45116459401E+02 -0.26674411899E+02  0.96925811687E+02  0.80775438583E+02 0.  0.
        -11    1    4    4    0    0  0.27891418353E+02 -0.23813531770E+02 -0.49405223446E+02  0.61529599518E+02  0.00000000000E+00 0.  1.
         12    1    4    4    0    0 -0.16804383853E+02 -0.21302927631E+02  0.22730811547E+02  0.35396212169E+02  0.00000000000E+00 0. -1.
        -11    1    3    3    0    0  0.24999149809E+02  0.25850434968E+02  0.57911520734E+02  0.68168517021E+02  0.00000000000E+00 0.  1.
         11    1    3    3    0    0 -0.62671083425E+02  0.52370470401E+01  0.46079087288E+02  0.77963925277E+02  0.00000000000E+00 0. -1.
         -2    1    1    2    0  502  0.26584899116E+02  0.14028977393E+02 -0.50658721547E+02  0.58905646049E+02  0.00000000000E+00 0.  1.
<scales pt_clust_5="13000.00000" pt_clust_6="13000.00000" pt_clust_7="13000.00000" pt_clust_8="13000.00000" pt_clust_9="30.05943"></scales>
<clustering>
<clus scale="   30.059">  2  9  1 -1</clus>
<clus scale="   80.775">  5  6 -1 -1</clus>
<clus scale="   90.305">  7  8 -1 -1</clus>
<clus scale="   93.173">  2  5  1 -1</clus>
<clus scale="   30.059">  2  5  1 -1</clus>
</clustering>
</event>
<event>
 9    2  0.3745229E-005  0.9658320E+02  0.7546771E-02  0.1292527E+00
         21   -1    0    0  501  502  0.00000000000E+00  0.00000000000E+00  0.39322463332E+02  0.39322463332E+02  0.00000000000E+00 0. -1.
         -3   -1    0    0    0  501 -0.00000000000E+00 -0.00000000000E+00 -0.36761020685E+03  0.36761020685E+03  0.00000000000E+00 0.  1.
         23    2    1    2    0    0  0.28759182964E+02  0.52245049810E+02 -0.17091708885E+03  0.20205589984E+03  0.89762461893E+02 0.  0.
         24    2    1    2    0    0 -0.13405822460E+02 -0.55907947242E+01 -0.93625824509E+02  0.12440473440E+03  0.80621150232E+02 0.  0.
        -13    1    4    4    0    0  0.25915687759E+02 -0.32064524519E+01 -0.77600161077E+02  0.81876060045E+02  0.00000000000E+00 0.  1.
         14    1    4    4    0    0 -0.39321510219E+02 -0.23843422723E+01 -0.16025663432E+02  0.42528674355E+02  0.00000000000E+00 0. -1.
        -13    1    3    3    0    0 -0.17240395216E+02 -0.16566904200E+02 -0.51241749924E+02  0.56545649499E+02  0.00000000000E+00 0.  1.
         13    1    3    3    0    0  0.45999578181E+02  0.68811954010E+02 -0.11967533893E+03  0.14551025034E+03  0.00000000000E+00 0. -1.
         -4    1    1    2    0  502 -0.15353360504E+02 -0.46654255086E+02 -0.63744830156E+02  0.80472035938E+02  0.00000000000E+00 0.  1.
<scales pt_clust_5="13000.00000" pt_clust_6="13000.00000" pt_clust_7="13000.00000" pt_clust_8="13000.00000" pt_clust_9="49.11563"></scales>
<clustering>
<clus scale="   49.116">  1  9  2 -1</clus>
<clus scale="   80.621">  5  6 -1 -1</clus>
<clus scale="   88.152">  1  5  2 -1</clus>
<clus scale="   89.762">  7  8 -1 -1</clus>
<clus scale="   49.116">  1  5  2 -1</clus>
</clustering>
</event>
<event>
 9    2  0.3745229E-005  0.9773321E+02  0.7546771E-02  0.1293397E+00
         21   -1    0    0  501  502  0.00000000000E+00  0.00000000000E+00  0.36690457924E+03  0.36690457924E+03  0.00000000000E+00 0.  1.
         -3   -1    0    0    0  501 -0.00000000000E+00 -0.00000000000E+00 -0.23358604767E+03  0.23358604767E+03  0.00000000000E+00 0.  1.
         23    2    1    2    0    0 -0.32214010771E+02  0.11748015072E+02 -0.20260806200E+03  0.22507302570E+03  0.91826367457E+02 0.  0.
         24    2    1    2    0    0  0.36615647875E+02  0.39140437168E+02  0.11306586148E+03  0.14677833317E+03  0.76728811830E+02 0.  0.
        -13    1    4    4    0    0  0.28531314126E+02  0.62386168323E+02  0.77143256061E+02  0.10323348216E+03  0.00000000000E+00 0.  1.
         14    1    4    4    0    0  0.80843337490E+01 -0.23245731155E+02  0.35922605420E+02  0.43544851007E+02  0.00000000000E+00 0. -1.
        -13    1    3    3    0    0 -0.27812863917E+02 -0.21392188102E+02 -0.22039479406E+02  0.41435730518E+02  0.00000000000E+00 0.  1.
         13    1    3    3    0    0 -0.44011468539E+01  0.33140203174E+02 -0.18056858260E+03  0.18363729518E+03  0.00000000000E+00 0. -1.
         -4    1    1    2    0  502 -0.44016371035E+01 -0.50888452239E+02  0.22286073209E+03  0.22863926804E+03  0.00000000000E+00 0.  1.
<scales pt_clust_5="13000.00000" pt_clust_6="13000.00000" pt_clust_7="13000.00000" pt_clust_8="13000.00000" pt_clust_9="51.07846"></scales>
<clustering>
<clus scale="   51.078">  1  9  2 -1</clus>
<clus scale="   76.729">  5  6 -1 -1</clus>
<clus scale="   83.708">  1  5  2 -1</clus>
<clus scale="   91.826">  7  8 -1 -1</clus>
<clus scale="   51.078">  1  5  2 -1</clus>
</clustering>
</event>
<event>
 9    2  0.3745229E-005  0.1199577E+03  0.7546771E-02  0.1251021E+00
         21   -1    0    0  501  502  0.00000000000E+00  0.00000000000E+00  0.71822783096E+02  0.71822783096E+02  0.00000000000E+00 0. -1.
         -3   -1    0    0    0  501 -0.00000000000E+00 -0.00000000000E+00 -0.24850518884E+03  0.24850518884E+03  0.00000000000E+00 0.  1.
         24    2    1    2    0    0 -0.53200903902E+02  0.44406571834E+02 -0.74832625633E+02  0.12943450265E+03  0.79693718823E+02 0.  0.
         23    2    1    2    0    0  0.25359348489E+02 -0.55314777106E+02 -0.44464040332E+02  0.12618439511E+03  0.10120587713E+03 0.  0.
        -13    1    3    3    0    0 -0.33900788649E+02  0.95190156187E+01 -0.81711202401E+02  0.88975253454E+02  0.00000000000E+00 0.  1.
         14    1    3    3    0    0 -0.19300115253E+02  0.34887556215E+02  0.68785767676E+01  0.40459249200E+02  0.00000000000E+00 0. -1.
        -11    1    4    4    0    0  0.62828837189E+02 -0.48822677163E+02 -0.35420518046E+02  0.87096094554E+02  0.00000000000E+00 0.  1.
         11    1    4    4    0    0 -0.37469488700E+02 -0.64920999428E+01 -0.90435222862E+01  0.39088300557E+02  0.00000000000E+00 0. -1.
         -4    1    1    2    0  502  0.27841555413E+02  0.10908205272E+02 -0.57385739774E+02  0.64709074167E+02  0.00000000000E+00 0.  1.
<scales pt_clust_5="13000.00000" pt_clust_6="13000.00000" pt_clust_7="13000.00000" pt_clust_8="13000.00000" pt_clust_9="29.90221"></scales>
<clustering>
<clus scale="   29.902">  1  9  2 -1</clus>
<clus scale="   79.694">  5  6 -1 -1</clus>
<clus scale="  101.206">  7  8 -1 -1</clus>
<clus scale="  102.461">  2  5  1 -1</clus>
<clus scale="   29.902">  1  5  2 -1</clus>
</clustering>
</event>
<event>
 9    2  0.3745229E-005  0.1071571E+03  0.7546771E-02  0.1269245E+00
          2   -1    0    0  502    0 -0.00000000000E+00  0.00000000000E+00  0.83474817089E+03  0.83474817089E+03  0.00000000000E+00 0. -1.
         21   -1    0    0  501  502  0.00000000000E+00 -0.00000000000E+00 -0.49380567749E+02  0.49380567749E+02  0.00000000000E+00 0.  1.
         24    2    1    2    0    0 -0.77366302266E+02  0.31588832842E+01  0.18743307797E+03  0.21862537292E+03  0.81672343509E+02 0.  0.
         23    2    1    2    0    0  0.19945096374E+01 -0.77055546754E+02  0.95363703349E+02  0.15196752964E+03  0.89768361881E+02 0.  0.
        -11    1    3    3    0    0 -0.31839134411E+02  0.19903964006E+02  0.16628225894E+02  0.41065754097E+02  0.00000000000E+00 0.  1.
         12    1    3    3    0    0 -0.45527167855E+02 -0.16745080722E+02  0.17080485208E+03  0.17755961882E+03  0.00000000000E+00 0. -1.
        -13    1    4    4    0    0 -0.34159542094E+02 -0.18454035969E+02  0.67125970510E+02  0.77545610299E+02  0.00000000000E+00 0. -1.
         13    1    4    4    0    0  0.36154051732E+02 -0.58601510785E+02  0.28237732839E+02  0.74421919343E+02  0.00000000000E+00 0.  1.
          1    1    1    2  501    0  0.75371792628E+02  0.73896663469E+02  0.50257082181E+03  0.51353583608E+03  0.00000000000E+00 0. -1.
<scales pt_clust_5="13000.00000" pt_clust_6="13000.00000" pt_clust_7="13000.00000" pt_clust_8="13000.00000" pt_clust_9="105.55394"></scales>
<clustering>
<clus scale="   81.672">  5  6 -1 -1</clus>
<clus scale="   89.768">  7  8 -1 -1</clus>
<clus scale="  105.554">  2  9  1 -1</clus>
<clus scale="  100.472">  1  5  2 -1</clus>
<clus scale="  105.554">  2  5  1 -1</clus>
</clustering>
</event>
<event>
 9    2  0.3745229E-005  0.9087487E+02  0.7546771E-02  0.1308394E+00
         21   -1    0    0  501  502  0.00000000000E+00  0.00000000000E+00  0.62931926599E+02  0.62931926599E+02  0.00000000000E+00 0. -1.
          2   -1    0    0  502    0 -0.00000000000E+00 -0.00000000000E+00 -0.23567235711E+03  0.23567235711E+03  0.00000000000E+00 0. -1.
         24    2    1    2    0    0 -0.78956193382E+01  0.20025504556E+01 -0.75390861361E+02  0.10925702335E+03  0.78657257531E+02 0.  0.
         23    2    1    2    0    0 -0.26828350142E+02  0.27948670921E+02 -0.21680737963E+02  0.10086787444E+03  0.90572540643E+02 0.  0.
        -13    1    3    3    0    0  0.27174577268E+02  0.45013419247E+00 -0.12286652365E+01  0.27206063455E+02  0.00000000000E+00 0.  1.
         14    1    3    3    0    0 -0.35070196606E+02  0.15524162631E+01 -0.74162196125E+02  0.82050959899E+02  0.00000000000E+00 0. -1.
        -13    1    4    4    0    0 -0.38080357479E+02  0.55332136678E+02 -0.23614357556E+02  0.71199697035E+02  0.00000000000E+00 0.  1.
         13    1    4    4    0    0  0.11252007338E+02 -0.27383465757E+02  0.19336195928E+01  0.29668177408E+02  0.00000000000E+00 0. -1.
          1    1    1    2  501    0  0.34723969480E+02 -0.29951221376E+02 -0.75668831188E+02  0.88479385914E+02  0.00000000000E+00 0. -1.
<scales pt_clust_5="13000.00000" pt_clust_6="13000.00000" pt_clust_7="13000.00000" pt_clust_8="13000.00000" pt_clust_9="45.85664"></scales>
<clustering>
<clus scale="   45.857">  1  9  2 -1</clus>
<clus scale="   78.657">  5  6 -1 -1</clus>
<clus scale="   79.005">  2  5  1 -1</clus>
<clus scale="   90.573">  7  8 -1 -1</clus>
<clus scale="   45.857">  1  5  2 -1</clus>
</clustering>
</event>
<event>
 9    2  0.3745229E-005  0.9596076E+02  0.7546771E-02  0.1294264E+00
         21   -1    0    0  501  502  0.00000000000E+00  0.00000000000E+00  0.16054771253E+03  0.16054771253E+03  0.00000000000E+00 0.  1.
         -1   -1    0    0    0  501 -0.00000000000E+00 -0.00000000000E+00 -0.78934204645E+02  0.78934204645E+02  0.00000000000E+00 0.  1.
         23    2    1    2    0    0 -0.89411413097E+01  0.15250591494E+02  0.23720365833E+02  0.95551466646E+02  0.90856493847E+02 0.  0.
         24    2    1    2    0    0  0.23377921600E+02 -0.43905442334E+02  0.58442787735E+02  0.11183959182E+03  0.81353056342E+02 0.  0.
        -11    1    4    4    0    0 -0.59259867426E+01  0.22236092463E+02  0.14201516380E+02  0.27041527220E+02  0.00000000000E+00 0.  1.
         12    1    4    4    0    0  0.29303908342E+02 -0.66141534797E+02  0.44241271355E+02  0.84798064604E+02  0.00000000000E+00 0. -1.
        -11    1    3    3    0    0  0.34452528036E+02  0.13329939248E+02 -0.12496124451E+02  0.38997654990E+02  0.00000000000E+00 0. -1.
         11    1    3    3    0    0 -0.43393669346E+02  0.19206522457E+01  0.36216490284E+02  0.56553811656E+02  0.00000000000E+00 0.  1.
         -2    1    1    2    0  502 -0.14436780290E+02  0.28654850840E+02 -0.54964568690E+00  0.32090858701E+02  0.00000000000E+00 0.  1.
<scales pt_clust_5="13000.00000" pt_clust_6="13000.00000" pt_clust_7="13000.00000" pt_clust_8="13000.00000" pt_clust_9="32.08617"></scales>
<clustering>
<clus scale="   32.086">  1  9  2 -1</clus>
<clus scale="   81.353">  5  6 -1 -1</clus>
<clus scale="   87.017">  1  5  2 -1</clus>
<clus scale="   90.856">  7  8 -1 -1</clus>
<clus scale="   32.086">  1  5  2 -1</clus>
</clustering>
</event>
<event>
 9    2  0.3745229E-005  0.9112342E+02  0.7546771E-02  0.1306550E+00
          2   -1    0    0  502    0 -0.00000000000E+00  0.00000000000E+00  0.62180714356E+03  0.62180714356E+03  0.00000000000E+00 0. -1.
         21   -1    0    0  501  502  0.00000000000E+00 -0.00000000000E+00 -0.16939844938E+02  0.16939844938E+02  0.00000000000E+00 0. -1.
         24    2    1    2    0    0  0.11405670471E+02 -0.24263315825E+01  0.30524859849E+03  0.31558832711E+03  0.79267325697E+02 0.  0.
         23    2    1    2    0    0 -0.23588618158E+02 -0.20743436004E+02  0.23501321234E+03  0.25345119122E+03  0.89552126239E+02 0.  0.
        -11    1    3    3    0    0 -0.12963460271E+02  0.20752968916E+02  0.32027733498E+02  0.40305244498E+02  0.00000000000E+00 0.  1.
         12    1    3    3    0    0  0.24369130742E+02 -0.23179300498E+02  0.27322086499E+03  0.27528308261E+03  0.00000000000E+00 0. -1.
        -11    1    4    4    0    0 -0.30426359343E+02  0.26535000509E+02  0.15582576734E+03  0.16097061645E+03  0.00000000000E+00 0.  1.
         11    1    4    4    0    0  0.68377411851E+01 -0.47278436513E+02  0.79187444997E+02  0.92480574765E+02  0.00000000000E+00 0. -1.
          1    1    1    2  501    0  0.12182947687E+02  0.23169767587E+02  0.64605487801E+02  0.69707470176E+02  0.00000000000E+00 0. -1.
<scales pt_clust_5="13000.00000" pt_clust_6="13000.00000" pt_clust_7="13000.00000" pt_clust_8="13000.00000" pt_clust_9="26.17752"></scales>
<clustering>
<clus scale="   26.178">  2  9  1 -1</clus>
<clus scale="   79.267">  5  6 -1 -1</clus>
<clus scale="   81.038">  1  5  2 -1</clus>
<clus scale="   89.552">  7  8 -1 -1</clus>
<clus scale="   26.178">  2  5  1 -1</clus>
</clustering>
</event>
<event>
 9    2  0.3745229E-005  0.1528574E+03  0.7546771E-02  0.1222241E+00
          2   -1    0    0  502    0 -0.00000000000E+00  0.00000000000E+00  0.51240778665E+03  0.51240778665E+03  0.00000000000E+00 0. -1.
         21   -1    0    0  501  502  0.00000000000E+00 -0.00000000000E+00 -0.69531570094E+02  0.69531570094E+02  0.00000000000E+00 0. -1.
         24    2    1    2    0    0 -0.27969698747E+02 -0.23305615085E+02  0.60824129698E+02  0.10791600114E+03  0.81368500081E+02 0.  0.
         23    2    1    2    0    0  0.10151059366E+03  0.90321722207E+02  0.15975569306E+03  0.23047642269E+03  0.95577642912E+02 0.  0.
        -11    1    3    3    0    0  0.21830243446E+02 -0.14516927449E+02  0.49620383194E+02  0.56120256056E+02  0.00000000000E+00 0.  1.
         12    1    3    3    0    0 -0.49799942192E+02 -0.87886876357E+01  0.11203746503E+02  0.51795745080E+02  0.00000000000E+00 0. -1.
        -11    1    4    4    0    0  0.11981852431E+03  0.70387779968E+02  0.13076014157E+03  0.19081177364E+03  0.00000000000E+00 0. -1.
         11    1    4    4    0    0 -0.18307930655E+02  0.19933942239E+02  0.28995551493E+02  0.39664649052E+02  0.00000000000E+00 0.  1.
          1    1    1    2  501    0 -0.73540894909E+02 -0.67016107122E+02  0.22229639380E+03  0.24354693291E+03  0.00000000000E+00 0. -1.
<scales pt_clust_5="13000.00000" pt_clust_6="13000.00000" pt_clust_7="13000.00000" pt_clust_8="13000.00000" pt_clust_9="119.29086"></scales>
<clustering>
<clus scale="   81.369">  5  6 -1 -1</clus>
<clus scale="   89.142">  1  5  2 -1</clus>
<clus scale="   95.578">  7  8 -1 -1</clus>
<clus scale="  119.291">  2  9  1 -1</clus>
<clus scale="  119.291">  2  5  1 -1</clus>
</clustering>
</event>
<event>
 9    2  0.3745229E-005  0.9563176E+02  0.7546771E-02  0.1290792E+00
         21   -1    0    0  501  502  0.00000000000E+00  0.00000000000E+00  0.32921082606E+02  0.32921082606E+02  0.00000000000E+00 0. -1.
          2   -1    0    0  502    0 -0.00000000000E+00 -0.00000000000E+00 -0.38764043868E+03  0.38764043868E+03  0.00000000000E+00 0. -1.
         23    2    1    2    0    0 -0.23045195116E+02 -0.15229080845E+02 -0.22529550093E+03  0.24478330246E+03  0.91639492054E+02 0.  0.
         24    2    1    2    0    0 -0.13392057830E+01  0.10731422705E+02 -0.10140968771E+03  0.13836670304E+03  0.93511832640E+02 0.  0.
        -11    1    4    4    0    0  0.31713542005E+02  0.83466201612E+01 -0.99953987626E+02  0.10519607624E+03  0.00000000000E+00 0.  1.
         12    1    4    4    0    0 -0.33052747788E+02  0.23848025438E+01 -0.14557000847E+01  0.33170626799E+02  0.00000000000E+00 0. -1.
        -13    1    3    3    0    0  0.10763294663E+02 -0.30779913975E+02 -0.25075390098E+02  0.41134253426E+02  0.00000000000E+00 0.  1.
         13    1    3    3    0    0 -0.33808489779E+02  0.15550833131E+02 -0.20022011083E+03  0.20364904904E+03  0.00000000000E+00 0. -1.
          1    1    1    2  501    0  0.24384400899E+02  0.44976581398E+01 -0.28014167428E+02  0.37411515775E+02  0.00000000000E+00 0. -1.
<scales pt_clust_5="13000.00000" pt_clust_6="13000.00000" pt_clust_7="13000.00000" pt_clust_8="13000.00000" pt_clust_9="24.79572"></scales>
<clustering>
<clus scale="   24.796">  1  9  2 -1</clus>
<clus scale="   91.639">  7  8 -1 -1</clus>
<clus scale="   93.512">  5  6 -1 -1</clus>
<clus scale="   93.802">  2  7  1 -1</clus>
<clus scale="   24.796">  1  5  2 -1</clus>
</clustering>
</event>
<event>
 9    2  0.3745229E-005  0.1376618E+03  0.7546771E-02  0.1220420E+00
         21   -1    0    0  501  502  0.00000000000E+00  0.00000000000E+00  0.45081013713E+03  0.45081013713E+03  0.00000000000E+00 0.  1.
          2   -1    0    0  502    0 -0.00000000000E+00 -0.00000000000E+00 -0.86564876156E+02  0.86564876156E+02  0.00000000000E+00 0. -1.
         24    2    1    2    0    0 -0.10074907690E+03 -0.40357022542E+02  0.72246721323E+02  0.15358629945E+03  0.81179411617E+02 0.  0.
         23    2    1    2    0    0  0.12887392995E+03 -0.17163670082E+02  0.28532100985E+03  0.31941304418E+03  0.60938762213E+02 0.  0.
        -13    1    3    3    0    0 -0.70446561488E+02 -0.48145788255E+02  0.84403974512E+02  0.12001985613E+03  0.00000000000E+00 0.  1.
         14    1    3    3    0    0 -0.30302515414E+02  0.77887657137E+01 -0.12157253188E+02  0.33566443316E+02  0.00000000000E+00 0. -1.
        -11    1    4    4    0    0  0.10139936969E+03  0.25589729101E+01  0.15863959704E+03  0.18829472182E+03  0.00000000000E+00 0.  1.
         11    1    4    4    0    0  0.27474560267E+02 -0.19722642992E+02  0.12668141281E+03  0.13111832237E+03  0.00000000000E+00 0. -1.
          1    1    1    2  501    0 -0.28124853050E+02  0.57520692624E+02  0.66775297942E+01  0.64375669652E+02  0.00000000000E+00 0. -1.
<scales pt_clust_5="13000.00000" pt_clust_6="13000.00000" pt_clust_7="13000.00000" pt_clust_8="13000.00000" pt_clust_9="64.02844"></scales>
<clustering>
<clus scale="   60.939">  7  8 -1 -1</clus>
<clus scale="   64.028">  1  9  2 -1</clus>
<clus scale="   81.179">  5  6 -1 -1</clus>
<clus scale="  126.784">  1  7  2 -1</clus>
<clus scale="   64.028">  1  5  2 -1</clus>
</clustering>
</event>
<event>
 9    2  0.3745229E-005  0.2130244E+03  0.7546771E-02  0.1140102E+00
         21   -1    0    0  501  502  0.00000000000E+00  0.00000000000E+00  0.22409800720E+03  0.22409800720E+03  0.00000000000E+00 0. -1.
          2   -1    0    0  502    0 -0.00000000000E+00 -0.00000000000E+00 -0.51731795783E+03  0.51731795783E+03  0.00000000000E+00 0. -1.
         24    2    1    2    0    0 -0.15689298137E+03  0.10951132932E+03 -0.39140962942E+03  0.44267208101E+03  0.78415141684E+02 0.  0.
         23    2    1    2    0    0  0.15044527670E+03 -0.14389227513E+03  0.12093235855E+03  0.25702036771E+03  0.89978141504E+02 0.  0.
        -13    1    3    3    0    0 -0.25306699305E+02  0.37817328527E+02 -0.39766151681E+02  0.60431168995E+02  0.00000000000E+00 0.  1.
         14    1    3    3    0    0 -0.13158628207E+03  0.71694000796E+02 -0.35164347774E+03  0.38224091201E+03  0.00000000000E+00 0. -1.
        -11    1    4    4    0    0  0.15619706200E+03 -0.10788239008E+03  0.95019530348E+02  0.21228481673E+03  0.00000000000E+00 0. -1.
         11    1    4    4    0    0 -0.57517853018E+01 -0.36009885054E+02  0.25912828204E+02  0.44735550978E+02  0.00000000000E+00 0.  1.
          1    1    1    2  501    0  0.64477046704E+01  0.34380945810E+02 -0.22742679767E+02  0.41723516310E+02  0.00000000000E+00 0. -1.
<scales pt_clust_5="13000.00000" pt_clust_6="13000.00000" pt_clust_7="13000.00000" pt_clust_8="13000.00000" pt_clust_9="34.98033"></scales>
<clustering>
<clus scale="   34.980">  1  9  2 -1</clus>
<clus scale="   78.415">  5  6 -1 -1</clus>
<clus scale="   89.978">  7  8 -1 -1</clus>
<clus scale="  208.404">  2  5  1 -1</clus>
<clus scale="   34.980">  1  5  2 -1</clus>
</clustering>
</event>
<event>
 9    2  0.3745229E-005  0.1091245E+03  0.7546771E-02  0.1270720E+00
         21   -1    0    0  501  502  0.00000000000E+00  0.00000000000E+00  0.63261491554E+02  0.63261491554E+02  0.00000000000E+00 0. -1.
         -1   -1    0    0    0  501 -0.00000000000E+00 -0.00000000000E+00 -0.28053209335E+03  0.28053209335E+03  0.00000000000E+00 0.  1.
         24    2    1    2    0    0  0.55999966234E+02 -0.12312959056E+02 -0.18546119870E+03  0.20847174408E+03  0.76006622579E+02 0.  0.
         23    2    1    2    0    0 -0.32364959076E+02  0.23733857575E+02 -0.33687331445E+02  0.10900498119E+03  0.95584847403E+02 0.  0.
        -13    1    3    3    0    0  0.30832675664E+02  0.31538369563E+02 -0.75396386751E+02  0.87349515044E+02  0.00000000000E+00 0.  1.
         14    1    3    3    0    0  0.25167290570E+02 -0.43851328619E+02 -0.11006481195E+03  0.12112222903E+03  0.00000000000E+00 0. -1.
        -13    1    4    4    0    0 -0.33692817412E+02 -0.70919185267E+01 -0.59521866642E+02  0.68763026853E+02  0.00000000000E+00 0.  1.
         13    1    4    4    0    0  0.13278583360E+01  0.30825776102E+02  0.25834535197E+02  0.40241954337E+02  0.00000000000E+00 0. -1.
         -2    1    1    2    0  502 -0.23635007158E+02 -0.11420898519E+02  0.18779283477E+01  0.26316859639E+02  0.00000000000E+00 0.  1.
<scales pt_clust_5="13000.00000" pt_clust_6="13000.00000" pt_clust_7="13000.00000" pt_clust_8="13000.00000" pt_clust_9="26.24977"></scales>
<clustering>
<clus scale="   26.250">  1  9  2 -1</clus>
<clus scale="   76.007">  5  6 -1 -1</clus>
<clus scale="   92.459">  2  5  1 -1</clus>
<clus scale="   95.585">  7  8 -1 -1</clus>
<clus scale="   26.250">  1  5  2 -1</clus>
</clustering>
</event>
<event>
 9    2  0.3745229E-005  0.2274461E+03  0.7546771E-02  0.1128870E+00
         21   -1    0    0  501  502  0.00000000000E+00  0.00000000000E+00  0.23070255031E+03  0.23070255031E+03  0.00000000000E+00 0.  1.
         -1   -1    0    0    0  501 -0.00000000000E+00 -0.00000000000E+00 -0.36688342890E+03  0.36688342890E+03  0.00000000000E+00 0.  1.
         23    2    1    2    0    0  0.16399262163E+03  0.12158048936E+03 -0.18879728318E+03  0.29236785070E+03  0.90328016943E+02 0.  0.
         24    2    1    2    0    0 -0.17961361748E+03 -0.13453959374E+03  0.95294293939E+02  0.25795973098E+03  0.84263078970E+02 0.  0.
        -11    1    4    4    0    0 -0.10024343603E+03 -0.32790529974E+02  0.69647695399E+02  0.12639132406E+03  0.00000000000E+00 0.  1.
         12    1    4    4    0    0 -0.79370181454E+02 -0.10174906377E+03  0.25646598540E+02  0.13156840692E+03  0.00000000000E+00 0. -1.
        -13    1    3    3    0    0  0.57492115080E+02  0.27861257249E+02 -0.10866911045E+02  0.64804958973E+02  0.00000000000E+00 0.  1.
         13    1    3    3    0    0  0.10650050655E+03  0.93719232112E+02 -0.17793037213E+03  0.22756289172E+03  0.00000000000E+00 0. -1.
         -2    1    1    2    0  502  0.15620995857E+02  0.12959104381E+02 -0.42677889356E+02  0.47258397537E+02  0.00000000000E+00 0.  1.
<scales pt_clust_5="13000.00000" pt_clust_6="13000.00000" pt_clust_7="13000.00000" pt_clust_8="13000.00000" pt_clust_9="20.29666"></scales>
<clustering>
<clus scale="   20.297">  1  9  2 -1</clus>
<clus scale="   84.263">  5  6 -1 -1</clus>
<clus scale="   90.328">  7  8 -1 -1</clus>
<clus scale="  225.106">  1  5  2 -1</clus>
<clus scale="   20.297">  1  5  2 -1</clus>
</clustering>
</event>
<event>
 9    2  0.3745229E-005  0.1784515E+03  0.7546771E-02  0.1170808E+00
         -1   -1    0    0    0  501 -0.00000000000E+00  0.00000000000E+00  0.88289771392E+02  0.88289771392E+02  0.00000000000E+00 0.  1.
         21   -1    0    0  501  502  0.00000000000E+00 -0.00000000000E+00 -0.52556189275E+03  0.52556189275E+03  0.00000000000E+00 0.  1.
         23    2    1    2    0    0 -0.18631469650E+03 -0.55786890850E+01 -0.17746484938E+03  0.27334509160E+03  0.92084083498E+02 0.  0.
         24    2    1    2    0    0  0.11772751534E+03  0.26018298287E+02 -0.20248517569E+03  0.24881250639E+03  0.79816647696E+02 0.  0.
        -11    1    4    4    0    0  0.56709563067E+02  0.58332440222E+01 -0.16463332149E+03  0.17422437207E+03  0.00000000000E+00 0.  1.
         12    1    4    4    0    0  0.61017952274E+02  0.20185054265E+02 -0.37851854203E+02  0.74588134325E+02  0.00000000000E+00 0. -1.
        -13    1    3    3    0    0 -0.78531003501E+02  0.43125314717E+02 -0.74065286948E+02  0.11624361493E+03  0.00000000000E+00 0. -1.
         13    1    3    3    0    0 -0.10778369300E+03 -0.48704003802E+02 -0.10339956243E+03  0.15710147667E+03  0.00000000000E+00 0.  1.
         -2    1    1    2    0  502  0.68587181160E+02 -0.20439609202E+02 -0.57322096297E+02  0.91694066153E+02  0.00000000000E+00 0.  1.
<scales pt_clust_5="13000.00000" pt_clust_6="13000.00000" pt_clust_7="13000.00000" pt_clust_8="13000.00000" pt_clust_9="71.56804"></scales>
<clustering>
<clus scale="   71.568">  2  9  1 -1</clus>
<clus scale="   79.817">  5  6 -1 -1</clus>
<clus scale="   92.084">  7  8 -1 -1</clus>
<clus scale="  172.442">  2  5  1 -1</clus>
<clus scale="   71.568">  2  5  1 -1</clus>
</clustering>
</event>
<event>
 9    2  0.3745229E-005  0.3298939E+03  0.7546771E-02  0.1112514E+00
         21   -1    0    0  501  502  0.00000000000E+00  0.00000000000E+00  0.89096813659E+03  0.89096813659E+03  0.00000000000E+00 0.  1.
          2   -1    0    0  502    0 -0.00000000000E+00 -0.00000000000E+00 -0.22329754326E+03  0.22329754326E+03  0.00000000000E+00 0. -1.
         23    2    1    2    0    0 -0.58985531580E+02 -0.20094744501E+02  0.52729038471E+02  0.12289051759E+03  0.91862049418E+02 0.  0.
         24    2    1    2    0    0 -0.28606738846E+03  0.11568169879E+03  0.53741585207E+03  0.62503021818E+03  0.81425852230E+02 0.  0.
        -13    1    4    4    0    0 -0.19058135799E+03  0.87581363909E+02  0.28630270418E+03  0.35490983043E+03  0.00000000000E+00 0.  1.
         14    1    4    4    0    0 -0.95486030473E+02  0.28100334877E+02  0.25111314789E+03  0.27012038775E+03  0.00000000000E+00 0. -1.
        -13    1    3    3    0    0  0.81972531076E+01 -0.26066886441E+02  0.48055387626E+02  0.55281080010E+02  0.00000000000E+00 0.  1.
         13    1    3    3    0    0 -0.67182784687E+02  0.59721419399E+01  0.46736508451E+01  0.67609437580E+02  0.00000000000E+00 0. -1.
          1    1    1    2  501    0  0.34505292004E+03 -0.95586954284E+02  0.77525702788E+02  0.36634494407E+03  0.00000000000E+00 0. -1.
<scales pt_clust_5="13000.00000" pt_clust_6="13000.00000" pt_clust_7="13000.00000" pt_clust_8="13000.00000" pt_clust_9="319.68718"></scales>
<clustering>
<clus scale="   81.426">  5  6 -1 -1</clus>
<clus scale="   91.862">  7  8 -1 -1</clus>
<clus scale="  111.003">  2  7  1 -1</clus>
<clus scale="  319.687">  1  9  2 -1</clus>
<clus scale="  319.687">  1  5  2 -1</clus>
</clustering>
</event>
<event>
 9    2  0.3745229E-005  0.1302684E+03  0.7546771E-02  0.1241118E+00
         21   -1    0    0  501  502  0.00000000000E+00  0.00000000000E+00  0.79102620055E+02  0.79102620055E+02  0.00000000000E+00 0. -1.
         -1   -1    0    0    0  501 -0.00000000000E+00 -0.00000000000E+00 -0.39418571639E+03  0.39418571639E+03  0.00000000000E+00 0.  1.
         23    2    1    2    0    0  0.28484004860E+02 -0.20920903416E+02 -0.38636281575E+02  0.10500073960E+03  0.91013022855E+02 0.  0.
         24    2    1    2    0    0  0.37645572409E+02 -0.82683260742E+02 -0.11846514381E+03  0.16812478268E+03  0.77319089005E+02 0.  0.
        -13    1    4    4    0    0  0.30325472312E+02  0.52213965921E+01 -0.25421493005E+02  0.39914277645E+02  0.00000000000E+00 0.  1.
         14    1    4    4    0    0  0.73201000971E+01 -0.87904657334E+02 -0.93043650809E+02  0.12821050504E+03  0.00000000000E+00 0. -1.
        -11    1    3    3    0    0  0.27951275955E+02  0.28246052597E+01 -0.64217181610E+02  0.70093499245E+02  0.00000000000E+00 0.  1.
         11    1    3    3    0    0  0.53272890433E+00 -0.23745508675E+02  0.25580900035E+02  0.34907240351E+02  0.00000000000E+00 0. -1.
         -2    1    1    2    0  502 -0.66129577268E+02  0.10360416416E+03 -0.15798167095E+03  0.20016281417E+03  0.00000000000E+00 0.  1.
<scales pt_clust_5="13000.00000" pt_clust_6="13000.00000" pt_clust_7="13000.00000" pt_clust_8="13000.00000" pt_clust_9="104.84099"></scales>
<clustering>
<clus scale="   77.319">  5  6 -1 -1</clus>
<clus scale="   91.013">  7  8 -1 -1</clus>
<clus scale="   97.634">  2  7  1 -1</clus>
<clus scale="  104.841">  1  9  2 -1</clus>
<clus scale="  104.841">  1  5  2 -1</clus>
</clustering>
</event>
<event>
 9    2  0.3745229E-005  0.1197784E+03  0.7546771E-02  0.1246082E+00
         21   -1    0    0  501  502  0.00000000000E+00  0.00000000000E+00  0.21069921432E+03  0.21069921432E+03  0.00000000000E+00 0. -1.
          2   -1    0    0  502    0 -0.00000000000E+00 -0.00000000000E+00 -0.15813399823E+03  0.15813399823E+03  0.00000000000E+00 0. -1.
         23    2    1    2    0    0 -0.72334234418E+02 -0.40303026686E+02 -0.10941484167E+03  0.16368690910E+03  0.89248087957E+02 0.  0.
         24    2    1    2    0    0  0.59426154421E+02  0.22230198276E+02  0.14205782327E+03  0.17531107121E+03  0.80795402043E+02 0.  0.
        -13    1    4    4    0    0  0.54434845823E+02  0.13360025779E+02  0.31519023243E+02  0.64304677550E+02  0.00000000000E+00 0.  1.
         14    1    4    4    0    0  0.49913085977E+01  0.88701724966E+01  0.11053880003E+03  0.11100639366E+03  0.00000000000E+00 0. -1.
        -13    1    3    3    0    0 -0.19929790447E+01 -0.50599839375E+02 -0.44259237470E+02  0.67254708472E+02  0.00000000000E+00 0.  1.
         13    1    3    3    0    0 -0.70341255374E+02  0.10296812689E+02 -0.65155604202E+02  0.96432200629E+02  0.00000000000E+00 0. -1.
          1    1    1    2  501    0  0.12908079998E+02  0.18072828410E+02  0.19922234495E+02  0.29835232247E+02  0.00000000000E+00 0. -1.
<scales pt_clust_5="13000.00000" pt_clust_6="13000.00000" pt_clust_7="13000.00000" pt_clust_8="13000.00000" pt_clust_9="22.20913"></scales>
<clustering>
<clus scale="   22.209">  1  9  2 -1</clus>
<clus scale="   80.795">  5  6 -1 -1</clus>
<clus scale="   89.248">  7  8 -1 -1</clus>
<clus scale="  113.620">  1  5  2 -1</clus>
<clus scale="   22.209">  1  5  2 -1</clus>
</clustering>
</event>
<event>
 9    2  0.3745229E-005  0.1225670E+03  0.7546771E-02  0.1242126E+00
         -1   -1    0    0    0  501 -0.00000000000E+00  0.00000000000E+00  0.15921311454E+03  0.15921311454E+03  0.00000000000E+00 0.  1.
         21   -1    0    0  501  502  0.00000000000E+00 -0.00000000000E+00 -0.22182924949E+03  0.22182924949E+03  0.00000000000E+00 0. -1.
         24    2    1    2    0    0  0.87772802029E+02 -0.30092915195E+02  0.73500949978E+02  0.14364827596E+03  0.81380521113E+02 0.  0.
         23    2    1    2    0    0 -0.24537036959E+02  0.66694165439E+02 -0.56118179660E+02  0.12905093718E+03  0.91949531875E+02 0.  0.
        -13    1    3    3    0    0  0.87675940063E+02  0.51062989249E+01  0.57569860059E+02  0.10501158765E+03  0.00000000000E+00 0.  1.
         14    1    3    3    0    0  0.96861966062E-01 -0.35199214120E+02  0.15931089919E+02  0.38636688301E+02  0.00000000000E+00 0. -1.
        -13    1    4    4    0    0 -0.36215243127E+02  0.46335063829E+02  0.93092081839E+01  0.59541106236E+02  0.00000000000E+00 0.  1.
         13    1    4    4    0    0  0.11678206167E+02  0.20359101609E+02 -0.65427387844E+02  0.69509830943E+02  0.00000000000E+00 0. -1.
         -2    1    1    2    0  502 -0.63235765070E+02 -0.36601250244E+02 -0.79998905265E+02  0.10834315090E+03  0.00000000000E+00 0.  1.
<scales pt_clust_5="13000.00000" pt_clust_6="13000.00000" pt_clust_7="13000.00000" pt_clust_8="13000.00000" pt_clust_9="73.06445"></scales>
<clustering>
<clus scale="   73.064">  2  9  1 -1</clus>
<clus scale="   81.381">  5  6 -1 -1</clus>
<clus scale="   91.950">  7  8 -1 -1</clus>
<clus scale="  114.851">  1  5  2 -1</clus>
<clus scale="   73.064">  2  5  1 -1</clus>
</clustering>
</event>
<event>
 9    2  0.3745229E-005  0.1253095E+03  0.7546771E-02  0.1237357E+00
         21   -1    0    0  501  502  0.00000000000E+00  0.00000000000E+00  0.94312236395E+03  0.94312236395E+03  0.00000000000E+00 0.  1.
         -1   -1    0    0    0  501 -0.00000000000E+00 -0.00000000000E+00 -0.94933398506E+02  0.94933398506E+02  0.00000000000E+00 0.  1.
         23    2    1    2    0    0  0.86791935903E+02  0.48860930360E+02 -0.19667704593E+01  0.13459451882E+03  0.90507379015E+02 0.  0.
         24    2    1    2    0    0 -0.77975708151E+02  0.45150306195E+02  0.13163733793E+03  0.17876508200E+03  0.80683360077E+02 0.  0.
        -13    1    4    4    0    0 -0.39307496834E+02  0.65871988550E+02  0.76913995654E+02  0.10862762499E+03  0.00000000000E+00 0.  1.
         14    1    4    4    0    0 -0.38668211317E+02 -0.20721682355E+02  0.54723342272E+02  0.70137457008E+02  0.00000000000E+00 0. -1.
        -11    1    3    3    0    0  0.11988742273E+02  0.38384593298E+02  0.32370024574E+02  0.51622915792E+02  0.00000000000E+00 0. -1.
         11    1    3    3    0    0  0.74803193630E+02  0.10476337062E+02 -0.34336795033E+02  0.82971603025E+02  0.00000000000E+00 0.  1.
         -2    1    1    2    0  502 -0.88162277521E+01 -0.94011236555E+02  0.71851839798E+03  0.72469616165E+03  0.00000000000E+00 0.  1.
<scales pt_clust_5="13000.00000" pt_clust_6="13000.00000" pt_clust_7="13000.00000" pt_clust_8="13000.00000" pt_clust_9="94.42372"></scales>
<clustering>
<clus scale="   80.683">  5  6 -1 -1</clus>
<clus scale="   90.507">  7  8 -1 -1</clus>
<clus scale="   94.424">  1  9  2 -1</clus>
<clus scale="  118.409">  1  5  2 -1</clus>
<clus scale="   94.424">  1  5  2 -1</clus>
</clustering>
</event>
<event>
 9    2  0.3745229E-005  0.1133195E+03  0.7546771E-02  0.1254707E+00
         21   -1    0    0  501  502  0.00000000000E+00  0.00000000000E+00  0.89368432484E+02  0.89368432484E+02  0.00000000000E+00 0.  1.
         -3   -1    0    0    0  501 -0.00000000000E+00 -0.00000000000E+00 -0.70207934796E+03  0.70207934796E+03  0.00000000000E+00 0.  1.
         24    2    1    2    0    0  0.77067571729E+02 -0.19465502647E+02 -0.61703486739E+03  0.62726734614E+03  0.80087324497E+02 0.  0.
         23    2    1    2    0    0 -0.94330877726E+02 -0.57185196776E+01  0.26619523281E+02  0.12637369923E+03  0.79565676508E+02 0.  0.
        -13    1    3    3    0    0  0.77124101381E+02 -0.38797843686E+02 -0.39153081219E+03  0.40093612532E+03  0.00000000000E+00 0.  1.
         14    1    3    3    0    0 -0.56529651700E-01  0.19332341039E+02 -0.22550405520E+03  0.22633122082E+03  0.00000000000E+00 0. -1.
        -13    1    4    4    0    0 -0.71043280500E+02 -0.30838098742E+02  0.42804016630E+02  0.88489094683E+02  0.00000000000E+00 0.  1.
         13    1    4    4    0    0 -0.23287597226E+02  0.25119579064E+02 -0.16184493349E+02  0.37884604549E+02  0.00000000000E+00 0. -1.
         -4    1    1    2    0  502  0.17263305997E+02  0.25184022325E+02 -0.22295571360E+02  0.37806735070E+02  0.00000000000E+00 0.  1.
<scales pt_clust_5="13000.00000" pt_clust_6="13000.00000" pt_clust_7="13000.00000" pt_clust_8="13000.00000" pt_clust_9="30.53288"></scales>
<clustering>
<clus scale="   30.533">  1  9  2 -1</clus>
<clus scale="   79.566">  7  8 -1 -1</clus>
<clus scale="   80.087">  5  6 -1 -1</clus>
<clus scale="  112.951">  1  7  2 -1</clus>
<clus scale="   30.533">  1  5  2 -1</clus>
</clustering>
</event>
<event>
 9    2  0.3745229E-005  0.1161588E+03  0.7546771E-02  0.1252692E+00
         21   -1    0    0  501  502  0.00000000000E+00  0.00000000000E+00  0.59446834459E+02  0.59446834459E+02  0.00000000000E+00 0.  1.
          2   -1    0    0  502    0 -0.00000000000E+00 -0.00000000000E+00 -0.32051305266E+03  0.32051305266E+03  0.00000000000E+00 0. -1.
         24    2    1    2    0    0 -0.10089290025E+02  0.80065337126E+02 -0.20414235940E+03  0.23366534515E+03  0.80082074403E+02 0.  0.
         23    2    1    2    0    0 -0.21737998314E+01 -0.57462436779E+02 -0.33336384516E+02  0.11139979422E+03  0.89397665375E+02 0.  0.
        -13    1    3    3    0    0 -0.39525811400E+02  0.15487820125E+02 -0.68769013853E+02  0.80816703752E+02  0.00000000000E+00 0.  1.
         14    1    3    3    0    0  0.29436521375E+02  0.64577517001E+02 -0.13537334555E+03  0.15284864140E+03  0.00000000000E+00 0. -1.
        -13    1    4    4    0    0 -0.45776209123E+02 -0.31022036212E+02 -0.17852298146E+02  0.58107939229E+02  0.00000000000E+00 0.  1.
         13    1    4    4    0    0  0.43602409291E+02 -0.26440400566E+02 -0.15484086371E+02  0.53291854995E+02  0.00000000000E+00 0. -1.
          1    1    1    2  501    0  0.12263089857E+02 -0.22602900347E+02 -0.23587474284E+02  0.34894747743E+02  0.00000000000E+00 0. -1.
<scales pt_clust_5="13000.00000" pt_clust_6="13000.00000" pt_clust_7="13000.00000" pt_clust_8="13000.00000" pt_clust_9="25.71526"></scales>
<clustering>
<clus scale="   25.715">  1  9  2 -1</clus>
<clus scale="   80.082">  5  6 -1 -1</clus>
<clus scale="   89.398">  7  8 -1 -1</clus>
<clus scale="  109.152">  2  5  1 -1</clus>
<clus scale="   25.715">  1  5  2 -1</clus>
</clustering>
</event>
<event>
 9    2  0.3745229E-005  0.1004652E+03  0.7546771E-02  0.1286050E+00
          4   -1    0    0  502    0 -0.00000000000E+00  0.00000000000E+00  0.11475465554E+04  0.11475465554E+04  0.00000000000E+00 0. -1.
         21   -1    0    0  501  502  0.00000000000E+00 -0.00000000000E+00 -0.22336870390E+02  0.22336870390E+02  0.00000000000E+00 0. -1.
         24    2    1    2    0    0  0.21682789839E+02 -0.21238789770E+02  0.66892644974E+03  0.67453247393E+03  0.81303343443E+02 0.  0.
         23    2    1    2    0    0  0.86171813832E+01  0.78757634104E+02  0.24350597599E+03  0.27286349654E+03  0.94245990134E+02 0.  0.
        -11    1    3    3    0    0  0.47471940057E+01 -0.39951097959E+02  0.16000235363E+03  0.16498296653E+03  0.00000000000E+00 0.  1.
         12    1    3    3    0    0  0.16935595834E+02  0.18712308189E+02  0.50892409612E+03  0.50954950740E+03  0.00000000000E+00 0. -1.
        -11    1    4    4    0    0 -0.24650813733E+02  0.25984931877E+02  0.18115834487E+03  0.18466517056E+03  0.00000000000E+00 0.  1.
         11    1    4    4    0    0  0.33267995117E+02  0.52772702227E+02  0.62347631128E+02  0.88198325986E+02  0.00000000000E+00 0. -1.
          3    1    1    2  501    0 -0.30299971222E+02 -0.57518844334E+02  0.21277725928E+03  0.22248745533E+03  0.00000000000E+00 0. -1.
<scales pt_clust_5="13000.00000" pt_clust_6="13000.00000" pt_clust_7="13000.00000" pt_clust_8="13000.00000" pt_clust_9="65.01158"></scales>
<clustering>
<clus scale="   65.012">  2  9  1 -1</clus>
<clus scale="   81.303">  5  6 -1 -1</clus>
<clus scale="   88.437">  1  5  2 -1</clus>
<clus scale="   94.246">  7  8 -1 -1</clus>
<clus scale="   65.012">  2  5  1 -1</clus>
</clustering>
</event>
<event>
 9    2  0.3745229E-005  0.1503207E+03  0.7546771E-02  0.1202551E+00
         21   -1    0    0  501  502  0.00000000000E+00  0.00000000000E+00  0.20462908130E+03  0.20462908130E+03  0.00000000000E+00 0.  1.
         -1   -1    0    0    0  501 -0.00000000000E+00 -0.00000000000E+00 -0.15961905297E+03  0.15961905297E+03  0.00000000000E+00 0.  1.
         24    2    1    2    0    0 -0.44644815225E+02  0.12873306475E+03 -0.12314479339E+02  0.15833397976E+03  0.79703458268E+02 0.  0.
         23    2    1    2    0    0  0.60529243157E+02 -0.73955076026E+02  0.65038689687E+02  0.14836025191E+03  0.92992422501E+02 0.  0.
        -11    1    3    3    0    0 -0.91536563558E+01  0.90754175732E+02 -0.39816265116E+02  0.99526101126E+02  0.00000000000E+00 0.  1.
         12    1    3    3    0    0 -0.35491158870E+02  0.37978889018E+02  0.27501785777E+02  0.58807878638E+02  0.00000000000E+00 0. -1.
        -11    1    4    4    0    0  0.68547142226E+02 -0.22383140325E+02  0.10495053510E+02  0.72868798716E+02  0.00000000000E+00 0. -1.
         11    1    4    4    0    0 -0.80178990693E+01 -0.51571935701E+02  0.54543636177E+02  0.75491453191E+02  0.00000000000E+00 0.  1.
         -2    1    1    2    0  502 -0.15884427931E+02 -0.54777988725E+02 -0.77141820209E+01  0.57553902593E+02  0.00000000000E+00 0.  1.
<scales pt_clust_5="13000.00000" pt_clust_6="13000.00000" pt_clust_7="13000.00000" pt_clust_8="13000.00000" pt_clust_9="57.03461"></scales>
<clustering>
<clus scale="   57.035">  1  9  2 -1</clus>
<clus scale="   79.703">  5  6 -1 -1</clus>
<clus scale="   92.992">  7  8 -1 -1</clus>
<clus scale="  142.483">  2  5  1 -1</clus>
<clus scale="   57.035">  1  5  2 -1</clus>
</clustering>
</event>
<event>
 9    2  0.3745229E-005  0.1232637E+03  0.7546771E-02  0.1241444E+00
          2   -1    0    0  502    0 -0.00000000000E+00  0.00000000000E+00  0.80215310880E+03  0.80215310880E+03  0.00000000000E+00 0. -1.
         21   -1    0    0  501  502  0.00000000000E+00 -0.00000000000E+00 -0.32050435623E+02  0.32050435623E+02  0.00000000000E+00 0. -1.
         24    2    1    2    0    0  0.72908419914E+02 -0.20648490907E+02  0.29040908757E+03  0.31101027276E+03  0.81534984803E+02 0.  0.
         23    2    1    2    0    0 -0.61786723954E+02  0.78123958377E+02  0.23703096866E+03  0.27356901975E+03  0.93463235188E+02 0.  0.
        -13    1    3    3    0    0 -0.69829844754E+01 -0.21448952766E+02  0.12846324772E+03  0.13042862286E+03  0.00000000000E+00 0.  1.
         14    1    3    3    0    0  0.79891404389E+02  0.80046185977E+00  0.16194583985E+03  0.18058164990E+03  0.00000000000E+00 0. -1.
        -11    1    4    4    0    0  0.89017331531E+01  0.24421742022E+02  0.68770793311E+01  0.26887851469E+02  0.00000000000E+00 0.  1.
         11    1    4    4    0    0 -0.70688457107E+02  0.53702216356E+02  0.23015388933E+03  0.24668116828E+03  0.00000000000E+00 0. -1.
          1    1    1    2  501    0 -0.11121695960E+02 -0.57475467471E+02  0.24266261695E+03  0.24962425192E+03  0.00000000000E+00 0. -1.
<scales pt_clust_5="13000.00000" pt_clust_6="13000.00000" pt_clust_7="13000.00000" pt_clust_8="13000.00000" pt_clust_9="58.54165"></scales>
<clustering>
<clus scale="   58.542">  2  9  1 -1</clus>
<clus scale="   81.535">  5  6 -1 -1</clus>
<clus scale="   93.463">  7  8 -1 -1</clus>
<clus scale="  114.484">  1  5  2 -1</clus>
<clus scale="   58.542">  2  5  1 -1</clus>
</clustering>
</event>
<event>
 9    2  0.5386685E-005  0.1019940E+03  0.7546771E-02  0.1281149E+00
          2   -1    0    0  502    0 -0.00000000000E+00  0.00000000000E+00  0.41338821033E+03  0.41338821033E+03  0.00000000000E+00 0. -1.
         21   -1    0    0  501  502  0.00000000000E+00 -0.00000000000E+00 -0.23449834539E+03  0.23449834539E+03  0.00000000000E+00 0.  1.
         24    2    1    2    0    0 -0.14715323837E+02  0.41065956673E+02  0.39237724169E+03  0.40325581521E+03  0.82172983114E+02 0.  0.
         23    2    1    2    0    0  0.14800387985E+02 -0.19029204809E+02 -0.15470733599E+03  0.18185559527E+03  0.92498300531E+02 0.  0.
        -13    1    3    3    0    0 -0.18738263178E+02  0.39577993254E+02  0.82950881055E+02  0.93799726677E+02  0.00000000000E+00 0.  1.
         14    1    3    3    0    0  0.40229393413E+01  0.14879634189E+01  0.30942636063E+03  0.30945608853E+03  0.00000000000E+00 0. -1.
        -11    1    4    4    0    0  0.17455878201E+02  0.33882367835E+02 -0.38669668405E+02  0.54296093676E+02  0.00000000000E+00 0. -1.
         11    1    4    4    0    0 -0.26554902153E+01 -0.52911572645E+02 -0.11603766759E+03  0.12755950159E+03  0.00000000000E+00 0.  1.
          1    1    1    2  501    0 -0.85064148468E-01 -0.22036751864E+02 -0.58780040752E+02  0.62775145236E+02  0.00000000000E+00 0. -1.
<scales pt_clust_5="13000.00000" pt_clust_6="13000.00000" pt_clust_7="13000.00000" pt_clust_8="13000.00000" pt_clust_9="22.03692"></scales>
<clustering>
<clus scale="   22.037">  2  9  1 -1</clus>
<clus scale="   82.173">  5  6 -1 -1</clus>
<clus scale="   92.498">  7  8 -1 -1</clus>
<clus scale="   92.732">  1  5  2 -1</clus>
<clus scale="   22.037">  2  5  1 -1</clus>
</clustering>
</event>
<event>
 9    2  0.3745229E-005  0.9155845E+02  0.7546771E-02  0.1299522E+00
         21   -1    0    0  501  502  0.00000000000E+00  0.00000000000E+00  0.94005354033E+02  0.94005354033E+02  0.00000000000E+00 0. -1.
          2   -1    0    0  502    0 -0.00000000000E+00 -0.00000000000E+00 -0.26728071605E+03  0.26728071605E+03  0.00000000000E+00 0. -1.
         24    2    1    2    0    0  0.71982961269E+01  0.35185123984E+02 -0.18670520790E+03  0.20706678882E+03  0.82024459510E+02 0.  0.
         23    2    1    2    0    0  0.10769071659E+02 -0.73576178375E+02  0.17885383796E+02  0.11159826320E+03  0.81270280347E+02 0.  0.
        -13    1    3    3    0    0  0.42025881327E+02  0.35845207108E+01 -0.97272046062E+02  0.10602299013E+03  0.00000000000E+00 0.  1.
         14    1    3    3    0    0 -0.34827585200E+02  0.31600603273E+02 -0.89433161835E+02  0.10104379869E+03  0.00000000000E+00 0. -1.
        -13    1    4    4    0    0  0.39931767555E+02 -0.58591399349E+02  0.29524726880E+02  0.76806299449E+02  0.00000000000E+00 0. -1.
         13    1    4    4    0    0 -0.29162695896E+02 -0.14984779027E+02 -0.11639343084E+02  0.34791963754E+02  0.00000000000E+00 0.  1.
          1    1    1    2  501    0 -0.17967367785E+02  0.38391054392E+02 -0.44555379131E+01  0.42621018061E+02  0.00000000000E+00 0. -1.
<scales pt_clust_5="13000.00000" pt_clust_6="13000.00000" pt_clust_7="13000.00000" pt_clust_8="13000.00000" pt_clust_9="42.38749"></scales>
<clustering>
<clus scale="   42.387">  1  9  2 -1</clus>
<clus scale="   81.270">  7  8 -1 -1</clus>
<clus scale="   82.024">  5  6 -1 -1</clus>
<clus scale="   90.883">  1  7  2 -1</clus>
<clus scale="   42.387">  1  5  2 -1</clus>
</clustering>
</event>
<event>
 9    2  0.3745229E-005  0.1024404E+03  0.7546771E-02  0.1280482E+00
         -1   -1    0    0    0  501 -0.00000000000E+00  0.00000000000E+00  0.59730303757E+03  0.59730303757E+03  0.00000000000E+00 0.  1.
         21   -1    0    0  501  502  0.00000000000E+00 -0.00000000000E+00 -0.10482836418E+03  0.10482836418E+03  0.00000000000E+00 0.  1.
         23    2    1    2    0    0 -0.35862005349E+02 -0.11470960759E+01  0.32004479623E+03  0.33452398046E+03  0.90499848902E+02 0.  0.
         24    2    1    2    0    0  0.60540053447E+02 -0.37487479991E+02  0.25320996283E+03  0.27472545982E+03  0.79299330228E+02 0.  0.
        -11    1    4    4    0    0  0.43638957997E+02 -0.57861647592E+02  0.13128876771E+03  0.14996356038E+03  0.00000000000E+00 0.  1.
         12    1    4    4    0    0  0.16901095450E+02  0.20374167602E+02  0.12192119512E+03  0.12476189944E+03  0.00000000000E+00 0. -1.
        -13    1    3    3    0    0  0.10185968898E+02 -0.33217331078E+02  0.18583725166E+03  0.18905721132E+03  0.00000000000E+00 0.  1.
         13    1    3    3    0    0 -0.46047974246E+02  0.32070235002E+02  0.13420754457E+03  0.14546676915E+03  0.00000000000E+00 0. -1.
         -2    1    1    2    0  502 -0.24678048099E+02  0.38634576066E+02 -0.80780085670E+02  0.92881961471E+02  0.00000000000E+00 0.  1.
<scales pt_clust_5="13000.00000" pt_clust_6="13000.00000" pt_clust_7="13000.00000" pt_clust_8="13000.00000" pt_clust_9="45.84361"></scales>
<clustering>
<clus scale="   45.844">  2  9  1 -1</clus>
<clus scale="   79.299">  5  6 -1 -1</clus>
<clus scale="   90.500">  7  8 -1 -1</clus>
<clus scale="   92.694">  2  5  1 -1</clus>
<clus scale="   45.844">  2  5  1 -1</clus>
</clustering>
</event>
<event>
 9    2  0.3745229E-005  0.9209870E+02  0.7546771E-02  0.1303902E+00
         21   -1    0    0  501  502  0.00000000000E+00  0.00000000000E+00  0.39991995458E+02  0.39991995458E+02  0.00000000000E+00 0.  1.
         -1   -1    0    0    0  501 -0.00000000000E+00 -0.00000000000E+00 -0.38241431381E+03  0.38241431381E+03  0.00000000000E+00 0.  1.
         23    2    1    2    0    0  0.72788650076E+01 -0.21793425776E+02 -0.26879621823E+03  0.28468641061E+03  0.90923100297E+02 0.  0.
         24    2    1    2    0    0 -0.75628660209E+01 -0.99173848567E+01 -0.65545000834E+02  0.10499436836E+03  0.81068605442E+02 0.  0.
        -11    1    4    4    0    0 -0.29179306871E+02  0.31636793075E+01  0.52586042272E+01  0.29817674869E+02  0.00000000000E+00 0.  1.
         12    1    4    4    0    0  0.21616440850E+02 -0.13081064164E+02 -0.70803605061E+02  0.75176693492E+02  0.00000000000E+00 0. -1.
        -11    1    3    3    0    0 -0.32679670147E+02  0.83429768816E+01 -0.17649980432E+03  0.17969348076E+03  0.00000000000E+00 0. -1.
         11    1    3    3    0    0  0.39958535154E+02 -0.30136402657E+02 -0.92296413918E+02  0.10499292985E+03  0.00000000000E+00 0.  1.
         -2    1    1    2    0  502  0.28400101337E+00  0.31710810632E+02 -0.80810992861E+01  0.32725530297E+02  0.00000000000E+00 0.  1.
<scales pt_clust_5="13000.00000" pt_clust_6="13000.00000" pt_clust_7="13000.00000" pt_clust_8="13000.00000" pt_clust_9="31.71208"></scales>
<clustering>
<clus scale="   31.712">  1  9  2 -1</clus>
<clus scale="   81.069">  5  6 -1 -1</clus>
<clus scale="   82.385">  1  5  2 -1</clus>
<clus scale="   90.923">  7  8 -1 -1</clus>
<clus scale="   31.712">  1  5  2 -1</clus>
</clustering>
</event>
<event>
 9    2  0.3745229E-005  0.1389330E+03  0.7546771E-02  0.1217395E+00
         21   -1    0    0  501  502  0.00000000000E+00  0.00000000000E+00  0.12793150351E+03  0.12793150351E+03  0.00000000000E+00 0.  1.
         -1   -1    0    0    0  501 -0.00000000000E+00 -0.00000000000E+00 -0.78321563855E+03  0.78321563855E+03  0.00000000000E+00 0.  1.
         23    2    1    2    0    0  0.54409947094E+02 -0.92569903135E+02 -0.62317232251E+03  0.63878186840E+03  0.90381981319E+02 0.  0.
         24    2    1    2    0    0  0.42386872055E+02  0.11751021281E+03  0.35502907161E+02  0.15168638750E+03  0.78377335369E+02 0.  0.
        -11    1    4    4    0    0  0.12719492385E+02  0.57003153904E+02 -0.22681396098E+02  0.62654535115E+02  0.00000000000E+00 0.  1.
         12    1    4    4    0    0  0.29667379670E+02  0.60507058907E+02  0.58184303259E+02  0.89031852389E+02  0.00000000000E+00 0. -1.
        -13    1    3    3    0    0 -0.14768694981E+02 -0.27163460111E+02 -0.58775210859E+02  0.66411545142E+02  0.00000000000E+00 0. -1.
         13    1    3    3    0    0  0.69178642075E+02 -0.65406443024E+02 -0.56439711165E+03  0.57237032326E+03  0.00000000000E+00 0.  1.
         -2    1    1    2    0  502 -0.96796819149E+02 -0.24940309675E+02 -0.67614719693E+02  0.12067888615E+03  0.00000000000E+00 0.  1.
<scales pt_clust_5="13000.00000" pt_clust_6="13000.00000" pt_clust_7="13000.00000" pt_clust_8="13000.00000" pt_clust_9="99.95821"></scales>
<clustering>
<clus scale="   78.377">  5  6 -1 -1</clus>
<clus scale="   90.382">  7  8 -1 -1</clus>
<clus scale="   99.958">  1  9  2 -1</clus>
<clus scale="  131.440">  1  5  2 -1</clus>
<clus scale="   99.958">  1  5  2 -1</clus>
</clustering>
</event>
<event>
 9    2  0.3745229E-005  0.1451044E+03  0.7546771E-02  0.1208495E+00
         21   -1    0    0  501  502  0.00000000000E+00  0.00000000000E+00  0.79254493742E+02  0.79254493742E+02  0.00000000000E+00 0.  1.
          2   -1    0    0  502    0 -0.00000000000E+00 -0.00000000000E+00 -0.49941264042E+03  0.49941264042E+03  0.00000000000E+00 0. -1.
         24    2    1    2    0    0 -0.10320482206E+03  0.58467054499E+02 -0.36927399067E+03  0.39623979778E+03  0.81074443554E+02 0.  0.
         23    2    1    2    0    0  0.76624733734E+02 -0.61998944237E+02 -0.68491430847E+02  0.15034943951E+03  0.90546446399E+02 0.  0.
        -11    1    3    3    0    0 -0.31026833821E+02  0.46863747828E+01 -0.24220049147E+02  0.39638835833E+02  0.00000000000E+00 0.  1.
         12    1    3    3    0    0 -0.72177988236E+02  0.53780679716E+02 -0.34505394153E+03  0.35660096195E+03  0.00000000000E+00 0. -1.
        -13    1    4    4    0    0  0.48010237792E+02 -0.65821364813E+02 -0.84467483265E+02  0.11735497743E+03  0.00000000000E+00 0. -1.
         13    1    4    4    0    0  0.28614495942E+02  0.38224205761E+01  0.15976052418E+02  0.32994462080E+02  0.00000000000E+00 0.  1.
          1    1    1    2  501    0  0.26580088323E+02  0.35318897379E+01  0.17607274843E+02  0.32077896873E+02  0.00000000000E+00 0. -1.
<scales pt_clust_5="13000.00000" pt_clust_6="13000.00000" pt_clust_7="13000.00000" pt_clust_8="13000.00000" pt_clust_9="26.81372"></scales>
<clustering>
<clus scale="   26.814">  1  9  2 -1</clus>
<clus scale="   81.074">  5  6 -1 -1</clus>
<clus scale="   90.546">  7  8 -1 -1</clus>
<clus scale="  139.390">  2  5  1 -1</clus>
<clus scale="   26.814">  1  5  2 -1</clus>
</clustering>
</event>
<event>
 9    2  0.4456199E-005  0.9226518E+02  0.7546771E-02  0.1299978E+00
          2   -1    0    0  502    0 -0.00000000000E+00  0.00000000000E+00  0.36673278070E+03  0.36673278070E+03  0.00000000000E+00 0. -1.
         21   -1    0    0  501  502  0.00000000000E+00 -0.00000000000E+00 -0.13139873588E+03  0.13139873588E+03  0.00000000000E+00 0. -1.
         24    2    1    2    0    0 -0.12849243978E+02  0.20402539070E+02  0.26958924449E+03  0.28394588632E+03  0.85822718092E+02 0.  0.
         23    2    1    2    0    0  0.23961862879E+02  0.15833051113E+02  0.60395723825E+02  0.11222825872E+03  0.90125924233E+02 0.  0.
        -13    1    3    3    0    0  0.64231758666E+01 -0.21338279145E+02  0.19333081935E+02  0.29501650838E+02  0.00000000000E+00 0.  1.
         14    1    3    3    0    0 -0.19272419845E+02  0.41740818214E+02  0.25025616255E+03  0.25444423548E+03  0.00000000000E+00 0. -1.
        -11    1    4    4    0    0  0.51592950672E+01  0.44746862440E+02  0.63217605970E+02  0.77623229309E+02  0.00000000000E+00 0. -1.
         11    1    4    4    0    0  0.18802567812E+02 -0.28913811327E+02 -0.28218821443E+01  0.34605029412E+02  0.00000000000E+00 0.  1.
          1    1    1    2  501    0 -0.11112618900E+02 -0.36235590183E+02 -0.94650923490E+02  0.10195737154E+03  0.00000000000E+00 0. -1.
<scales pt_clust_5="13000.00000" pt_clust_6="13000.00000" pt_clust_7="13000.00000" pt_clust_8="13000.00000" pt_clust_9="37.90130"></scales>
<clustering>
<clus scale="   37.901">  2  9  1 -1</clus>
<clus scale="   85.823">  5  6 -1 -1</clus>
<clus scale="   88.067">  1  5  2 -1</clus>
<clus scale="   90.126">  7  8 -1 -1</clus>
<clus scale="   37.901">  2  5  1 -1</clus>
</clustering>
</event>
<event>
 9    2  0.3745229E-005  0.2714701E+03  0.7546771E-02  0.1101482E+00
         -3   -1    0    0    0  501 -0.00000000000E+00  0.00000000000E+00  0.59648077550E+03  0.59648077550E+03  0.00000000000E+00 0.  1.
         21   -1    0    0  501  502  0.00000000000E+00 -0.00000000000E+00 -0.27845922361E+03  0.27845922361E+03  0.00000000000E+00 0.  1.
         24    2    1    2    0    0 -0.22644902861E+03  0.53140620858E+02  0.23381894508E+03  0.34075285173E+03  0.85662820084E+02 0.  0.
         23    2    1    2    0    0  0.32517275058E+03  0.20799424846E+02 -0.56333141788E+02  0.34720105091E+03  0.10585467915E+03 0.  0.
        -13    1    3    3    0    0 -0.93519260212E+02  0.63927668851E+02  0.12434892503E+03  0.16821193189E+03  0.00000000000E+00 0.  1.
         14    1    3    3    0    0 -0.13292976839E+03 -0.10787047993E+02  0.10947002005E+03  0.17254091984E+03  0.00000000000E+00 0. -1.
        -13    1    4    4    0    0  0.53045899592E+02  0.34910441855E+02 -0.38197593656E+02  0.74105752645E+02  0.00000000000E+00 0. -1.
         13    1    4    4    0    0  0.27212685098E+03 -0.14111017009E+02 -0.18135548132E+02  0.27309529826E+03  0.00000000000E+00 0.  1.
         -4    1    1    2    0  502 -0.98723721969E+02 -0.73940045704E+02  0.14053574860E+03  0.18698609647E+03  0.00000000000E+00 0.  1.
<scales pt_clust_5="13000.00000" pt_clust_6="13000.00000" pt_clust_7="13000.00000" pt_clust_8="13000.00000" pt_clust_9="123.34309"></scales>
<clustering>
<clus scale="   85.663">  5  6 -1 -1</clus>
<clus scale="  105.855">  7  8 -1 -1</clus>
<clus scale="  123.343">  2  9  1 -1</clus>
<clus scale="  264.252">  1  5  2 -1</clus>
<clus scale="  123.343">  2  5  1 -1</clus>
</clustering>
</event>
<event>
 9    2  0.3745229E-005  0.1114837E+03  0.7546771E-02  0.1262756E+00
         -3   -1    0    0    0  501 -0.00000000000E+00  0.00000000000E+00  0.14358000924E+03  0.14358000924E+03  0.00000000000E+00 0.  1.
         21   -1    0    0  501  502  0.00000000000E+00 -0.00000000000E+00 -0.13048657984E+03  0.13048657984E+03  0.00000000000E+00 0.  1.
         24    2    1    2    0    0  0.62021077850E+02  0.16805237292E+01 -0.16218804762E+02  0.10505432560E+03  0.83210116221E+02 0.  0.
         23    2    1    2    0    0 -0.51771185197E+02  0.17581195017E+02 -0.22983529285E+02  0.11234727444E+03  0.95416525933E+02 0.  0.
        -13    1    3    3    0    0  0.71350348043E+02 -0.18222504236E+02 -0.29548234708E+02  0.79347526748E+02  0.00000000000E+00 0.  1.
         14    1    3    3    0    0 -0.93292701930E+01  0.19903027965E+02  0.13329429946E+02  0.25706798852E+02  0.00000000000E+00 0. -1.
        -13    1    4    4    0    0  0.16370942942E+02 -0.19213412520E+02 -0.24097464693E+02  0.34897719096E+02  0.00000000000E+00 0. -1.
         13    1    4    4    0    0 -0.68142128139E+02  0.36794607537E+02  0.11139354085E+01  0.77449555345E+02  0.00000000000E+00 0.  1.
         -4    1    1    2    0  502 -0.10249892653E+02 -0.19261718746E+02  0.52295763447E+02  0.56664989040E+02  0.00000000000E+00 0.  1.
<scales pt_clust_5="13000.00000" pt_clust_6="13000.00000" pt_clust_7="13000.00000" pt_clust_8="13000.00000" pt_clust_9="21.81913"></scales>
<clustering>
<clus scale="   21.819">  2  9  1 -1</clus>
<clus scale="   83.210">  5  6 -1 -1</clus>
<clus scale="   95.417">  7  8 -1 -1</clus>
<clus scale="  101.233">  1  5  2 -1</clus>
<clus scale="   21.819">  2  5  1 -1</clus>
</clustering>
</event>
<event>
 9    2  0.3745229E-005  0.1050828E+03  0.7546771E-02  0.1273058E+00
         -3   -1    0    0    0  501 -0.00000000000E+00  0.00000000000E+00  0.33949887448E+03  0.33949887448E+03  0.00000000000E+00 0.  1.
         21   -1    0    0  501  502  0.00000000000E+00 -0.00000000000E+00 -0.15755871879E+03  0.15755871879E+03  0.00000000000E+00 0.  1.
         24    2    1    2    0    0  0.56450773848E+02 -0.14159460589E+02  0.29667832865E+03  0.31300138832E+03  0.81022578366E+02 0.  0.
         23    2    1    2    0    0 -0.27911171096E+02  0.43655556235E+02 -0.88193997600E+02  0.13517756105E+03  0.88373925664E+02 0.  0.
        -11    1    3    3    0    0  0.75249914488E+02 -0.23303716324E+02  0.22928260318E+03  0.24243787853E+03  0.00000000000E+00 0.  1.
         12    1    3    3    0    0 -0.18799140641E+02  0.91442557344E+01  0.67395725473E+02  0.70563509789E+02  0.00000000000E+00 0. -1.
        -13    1    4    4    0    0  0.25297498979E+01  0.60990649695E+02 -0.77290783392E+02  0.98489208455E+02  0.00000000000E+00 0.  1.
         13    1    4    4    0    0 -0.30440920994E+02 -0.17335093460E+02 -0.10903214207E+02  0.36688352597E+02  0.00000000000E+00 0. -1.
         -4    1    1    2    0  502 -0.28539602751E+02 -0.29496095646E+02 -0.26544175363E+02  0.48878643897E+02  0.00000000000E+00 0.  1.
<scales pt_clust_5="13000.00000" pt_clust_6="13000.00000" pt_clust_7="13000.00000" pt_clust_8="13000.00000" pt_clust_9="41.04301"></scales>
<clustering>
<clus scale="   41.043">  2  9  1 -1</clus>
<clus scale="   81.023">  5  6 -1 -1</clus>
<clus scale="   88.374">  7  8 -1 -1</clus>
<clus scale="   98.980">  1  5  2 -1</clus>
<clus scale="   41.043">  2  5  1 -1</clus>
</clustering>
</event>
<event>
 9    2  0.3745229E-005  0.1424850E+03  0.7546771E-02  0.1225449E+00
          4   -1    0    0  502    0 -0.00000000000E+00  0.00000000000E+00  0.36703353032E+03  0.36703353032E+03  0.00000000000E+00 0. -1.
         21   -1    0    0  501  502  0.00000000000E+00 -0.00000000000E+00 -0.14192644611E+03  0.14192644611E+03  0.00000000000E+00 0. -1.
         24    2    1    2    0    0 -0.34199038049E+02  0.59573863248E+02  0.16579052486E+03  0.19678735438E+03  0.80747416835E+02 0.  0.
         23    2    1    2    0    0  0.96231411837E+02  0.18627840035E+02  0.11522563727E+03  0.19776393887E+03  0.12738189426E+03 0.  0.
        -11    1    3    3    0    0 -0.23359394298E+02 -0.23428589203E+01  0.48024413620E+01  0.23962757206E+02  0.00000000000E+00 0.  1.
         12    1    3    3    0    0 -0.10839643751E+02  0.61916722168E+02  0.16098808349E+03  0.17282459717E+03  0.00000000000E+00 0. -1.
        -13    1    4    4    0    0  0.53877766817E+02  0.70868066576E+02  0.42298594087E+02  0.98560984569E+02  0.00000000000E+00 0. -1.
         13    1    4    4    0    0  0.42353645020E+02 -0.52240226541E+02  0.72927043180E+02  0.99202954303E+02  0.00000000000E+00 0.  1.
          3    1    1    2  501    0 -0.62032373788E+02 -0.78201703284E+02 -0.55909077911E+02  0.11440868318E+03  0.00000000000E+00 0. -1.
<scales pt_clust_5="13000.00000" pt_clust_6="13000.00000" pt_clust_7="13000.00000" pt_clust_8="13000.00000" pt_clust_9="99.81744"></scales>
<clustering>
<clus scale="   80.747">  5  6 -1 -1</clus>
<clus scale="   99.817">  2  9  1 -1</clus>
<clus scale="  102.937">  1  5  2 -1</clus>
<clus scale="  127.382">  7  8 -1 -1</clus>
<clus scale="   99.817">  2  5  1 -1</clus>
</clustering>
</event>
<event>
 9    2  0.3745229E-005  0.9808365E+02  0.7546771E-02  0.1292866E+00
         21   -1    0    0  501  502  0.00000000000E+00  0.00000000000E+00  0.20924694567E+02  0.20924694567E+02  0.00000000000E+00 0.  1.
          2   -1    0    0  502    0 -0.00000000000E+00 -0.00000000000E+00 -0.76519209498E+03  0.76519209498E+03  0.00000000000E+00 0. -1.
         23    2    1    2    0    0  0.62199235322E+01 -0.24072470485E+02 -0.32214328617E+03  0.33637318560E+03  0.93554539610E+02 0.  0.
         24    2    1    2    0    0  0.27202122648E+02  0.37403535691E+02 -0.15112896928E+03  0.17637001513E+03  0.78277946587E+02 0.  0.
        -13    1    4    4    0    0  0.74734207483E+01  0.58960501246E+02 -0.11849899666E+03  0.13256773715E+03  0.00000000000E+00 0.  1.
         14    1    4    4    0    0  0.19728701899E+02 -0.21556965554E+02 -0.32629972622E+02  0.43802277975E+02  0.00000000000E+00 0. -1.
        -11    1    3    3    0    0 -0.12637279517E+02  0.28628414555E+02 -0.53668034394E+02  0.62125235366E+02  0.00000000000E+00 0. -1.
         11    1    3    3    0    0  0.18857203049E+02 -0.52700885040E+02 -0.26847525178E+03  0.27424795023E+03  0.00000000000E+00 0.  1.
          1    1    1    2  501    0 -0.33422046180E+02 -0.13331065206E+02 -0.27099514496E+03  0.27337358882E+03  0.00000000000E+00 0. -1.
<scales pt_clust_5="13000.00000" pt_clust_6="13000.00000" pt_clust_7="13000.00000" pt_clust_8="13000.00000" pt_clust_9="35.98266"></scales>
<clustering>
<clus scale="   35.983">  1  9  2 -1</clus>
<clus scale="   78.278">  5  6 -1 -1</clus>
<clus scale="   83.638">  1  5  2 -1</clus>
<clus scale="   93.555">  7  8 -1 -1</clus>
<clus scale="   35.983">  1  5  2 -1</clus>
</clustering>
</event>
<event>
 9    2  0.3745229E-005  0.1437755E+03  0.7546771E-02  0.1222908E+00
         21   -1    0    0  501  502  0.00000000000E+00  0.00000000000E+00  0.87010764961E+02  0.87010764961E+02  0.00000000000E+00 0.  1.
         -3   -1    0    0    0  501 -0.00000000000E+00 -0.00000000000E+00 -0.75781264720E+03  0.75781264720E+03  0.00000000000E+00 0.  1.
         24    2    1    2    0    0  0.54518573280E+02 -0.42171749264E+02 -0.18014104732E+03  0.20883148214E+03  0.80056603303E+02 0.  0.
         23    2    1    2    0    0 -0.48910207153E+02 -0.68442293253E+02 -0.50809366248E+03  0.52387224554E+03  0.95950007426E+02 0.  0.
        -11    1    3    3    0    0  0.56792692394E+02 -0.40745246138E+02 -0.18797533436E+03  0.20055002199E+03  0.00000000000E+00 0.  1.
         12    1    3    3    0    0 -0.22741191134E+01 -0.14265031254E+01  0.78342870334E+01  0.82814601509E+01  0.00000000000E+00 0. -1.
        -11    1    4    4    0    0  0.19986191681E+02  0.88767538848E+01 -0.57187691500E+02  0.61226437725E+02  0.00000000000E+00 0. -1.
         11    1    4    4    0    0 -0.68896398835E+02 -0.77319047138E+02 -0.45090597098E+03  0.46264580782E+03  0.00000000000E+00 0.  1.
         -4    1    1    2    0  502 -0.56083661270E+01  0.11061404252E+03  0.17432827562E+02  0.11211968449E+03  0.00000000000E+00 0.  1.
<scales pt_clust_5="13000.00000" pt_clust_6="13000.00000" pt_clust_7="13000.00000" pt_clust_8="13000.00000" pt_clust_9="107.07474"></scales>
<clustering>
<clus scale="   80.057">  5  6 -1 -1</clus>
<clus scale="   95.950">  7  8 -1 -1</clus>
<clus scale="  105.640">  2  5  1 -1</clus>
<clus scale="  107.075">  1  9  2 -1</clus>
<clus scale="  107.075">  1  5  2 -1</clus>
</clustering>
</event>
<event>
 9    2  0.3745229E-005  0.1446586E+03  0.7546771E-02  0.1209301E+00
         21   -1    0    0  501  502  0.00000000000E+00  0.00000000000E+00  0.74440162394E+02  0.74440162394E+02  0.00000000000E+00 0.  1.
          2   -1    0    0  502    0 -0.00000000000E+00 -0.00000000000E+00 -0.57650761172E+03  0.57650761172E+03  0.00000000000E+00 0. -1.
         24    2    1    2    0    0 -0.62600228253E+02 -0.10411721982E+03 -0.43303479900E+03  0.45724867912E+03  0.82450187212E+02 0.  0.
         23    2    1    2    0    0  0.49521272399E+02  0.66512167703E+02 -0.85128614975E+02  0.15075402416E+03  0.92755969297E+02 0.  0.
        -13    1    3    3    0    0  0.17515206759E+01 -0.33352504510E+02 -0.37075177439E+02  0.49900161963E+02  0.00000000000E+00 0.  1.
         14    1    3    3    0    0 -0.64351748929E+02 -0.70764715311E+02 -0.39595962156E+03  0.40734851715E+03  0.00000000000E+00 0. -1.
        -13    1    4    4    0    0 -0.15488382787E+02  0.42855853367E+02 -0.65095712547E+01  0.46031388064E+02  0.00000000000E+00 0.  1.
         13    1    4    4    0    0  0.65009655186E+02  0.23656314336E+02 -0.78619043720E+02  0.10472263610E+03  0.00000000000E+00 0. -1.
          1    1    1    2  501    0  0.13078955854E+02  0.37605052118E+02  0.16095964648E+02  0.42945070835E+02  0.00000000000E+00 0. -1.
<scales pt_clust_5="13000.00000" pt_clust_6="13000.00000" pt_clust_7="13000.00000" pt_clust_8="13000.00000" pt_clust_9="39.81456"></scales>
<clustering>
<clus scale="   39.815">  1  9  2 -1</clus>
<clus scale="   82.450">  5  6 -1 -1</clus>
<clus scale="   92.756">  7  8 -1 -1</clus>
<clus scale="  138.277">  2  5  1 -1</clus>
<clus scale="   39.815">  1  5  2 -1</clus>
</clustering>
</event>
<event>
 9    2  0.3745229E-005  0.9492218E+02  0.7546771E-02  0.1298404E+00
         -1   -1    0    0    0  501 -0.00000000000E+00  0.00000000000E+00  0.16687458477E+03  0.16687458477E+03  0.00000000000E+00 0.  1.
         21   -1    0    0  501  502  0.00000000000E+00 -0.00000000000E+00 -0.13455515435E+03  0.13455515435E+03  0.00000000000E+00 0.  1.
         23    2    1    2    0    0 -0.78045916377E+01 -0.53830141390E+01  0.67398679714E+02  0.11450001276E+03  0.92074873891E+02 0.  0.
         24    2    1    2    0    0 -0.82829708778E+01  0.46116816337E+02  0.39234365912E+02  0.10067101253E+03  0.79999680869E+02 0.  0.
        -11    1    4    4    0    0  0.86788226304E+01  0.64227127968E+02  0.39419346841E+02  0.75857305744E+02  0.00000000000E+00 0.  1.
         12    1    4    4    0    0 -0.16961793508E+02 -0.18110311631E+02 -0.18498092956E+00  0.24813706783E+02  0.00000000000E+00 0. -1.
        -13    1    3    3    0    0  0.20371673110E+02  0.26380844837E+02  0.63682505074E+02  0.71877781630E+02  0.00000000000E+00 0.  1.
         13    1    3    3    0    0 -0.28176264748E+02 -0.31763858976E+02  0.37161746399E+01  0.42622231126E+02  0.00000000000E+00 0. -1.
         -2    1    1    2    0  502  0.16087562516E+02 -0.40733802198E+02 -0.74313615200E+02  0.86258713840E+02  0.00000000000E+00 0.  1.
<scales pt_clust_5="13000.00000" pt_clust_6="13000.00000" pt_clust_7="13000.00000" pt_clust_8="13000.00000" pt_clust_9="43.79557"></scales>
<clustering>
<clus scale="   43.796">  2  9  1 -1</clus>
<clus scale="   80.000">  5  6 -1 -1</clus>
<clus scale="   83.261">  2  5  1 -1</clus>
<clus scale="   92.075">  7  8 -1 -1</clus>
<clus scale="   43.796">  2  5  1 -1</clus>
</clustering>
</event>
<event>
 9    2  0.3745229E-005  0.1336448E+03  0.7546771E-02  0.1225090E+00
         21   -1    0    0  501  502  0.00000000000E+00  0.00000000000E+00  0.56309668371E+02  0.56309668371E+02  0.00000000000E+00 0.  1.
         -1   -1    0    0    0  501 -0.00000000000E+00 -0.00000000000E+00 -0.79888329480E+03  0.79888329480E+03  0.00000000000E+00 0.  1.
         23    2    1    2    0    0 -0.88575579862E+02 -0.43353722311E+02 -0.48734808379E+03  0.50584350915E+03  0.92974848144E+02 0.  0.
         24    2    1    2    0    0  0.41178007827E+02  0.97596222413E+02 -0.70112377931E+02  0.15071495954E+03  0.81108584816E+02 0.  0.
        -11    1    4    4    0    0  0.47948705603E+02  0.95936354415E+02 -0.83298495229E+02  0.13579949107E+03  0.00000000000E+00 0.  1.
         12    1    4    4    0    0 -0.67706977767E+01  0.16598679985E+01  0.13186117298E+02  0.14915468466E+02  0.00000000000E+00 0. -1.
        -11    1    3    3    0    0 -0.45771631588E+02 -0.68601313069E+02 -0.24674957030E+03  0.26016635612E+03  0.00000000000E+00 0.  1.
         11    1    3    3    0    0 -0.42803948273E+02  0.25247590757E+02 -0.24059851349E+03  0.24567715303E+03  0.00000000000E+00 0. -1.
         -2    1    1    2    0  502  0.47397572035E+02 -0.54242500102E+02 -0.18511316471E+03  0.19863449449E+03  0.00000000000E+00 0.  1.
<scales pt_clust_5="13000.00000" pt_clust_6="13000.00000" pt_clust_7="13000.00000" pt_clust_8="13000.00000" pt_clust_9="72.03321"></scales>
<clustering>
<clus scale="   72.033">  1  9  2 -1</clus>
<clus scale="   81.109">  5  6 -1 -1</clus>
<clus scale="   92.975">  7  8 -1 -1</clus>
<clus scale="  125.679">  1  5  2 -1</clus>
<clus scale="   72.033">  1  5  2 -1</clus>
</clustering>
</event>
<event>
 9    2  0.3745229E-005  0.1265989E+03  0.7546771E-02  0.1235597E+00
         -3   -1    0    0    0  501 -0.00000000000E+00  0.00000000000E+00  0.95372853960E+02  0.95372853960E+02  0.00000000000E+00 0.  1.
         21   -1    0    0  501  502  0.00000000000E+00 -0.00000000000E+00 -0.36746928785E+03  0.36746928785E+03  0.00000000000E+00 0.  1.
         23    2    1    2    0    0 -0.12881692661E+02  0.59558221773E+02 -0.64929145489E+02  0.12706288591E+03  0.90642502480E+02 0.  0.
         24    2    1    2    0    0  0.85269274960E+02 -0.12049602756E+03 -0.15115912718E+03  0.22582339035E+03  0.79730671570E+02 0.  0.
        -11    1    4    4    0    0  0.18347154793E+02 -0.79378493161E+02 -0.11076478003E+03  0.13750054458E+03  0.00000000000E+00 0.  1.
         12    1    4    4    0    0  0.66922120167E+02 -0.41117534397E+02 -0.40394347152E+02  0.88322845767E+02  0.00000000000E+00 0. -1.
        -13    1    3    3    0    0 -0.10299353900E+02  0.25491583896E+02  0.20996706758E+02  0.34594208113E+02  0.00000000000E+00 0. -1.
         13    1    3    3    0    0 -0.25823387616E+01  0.34066637877E+02 -0.85925852247E+02  0.92468677800E+02  0.00000000000E+00 0.  1.
         -4    1    1    2    0  502 -0.72387582299E+02  0.60937805785E+02 -0.56008161217E+02  0.10995586555E+03  0.00000000000E+00 0.  1.
<scales pt_clust_5="13000.00000" pt_clust_6="13000.00000" pt_clust_7="13000.00000" pt_clust_8="13000.00000" pt_clust_9="94.62234"></scales>
<clustering>
<clus scale="   79.731">  5  6 -1 -1</clus>
<clus scale="   90.643">  7  8 -1 -1</clus>
<clus scale="   94.622">  2  9  1 -1</clus>
<clus scale="  119.030">  2  5  1 -1</clus>
<clus scale="   94.622">  2  5  1 -1</clus>
</clustering>
</event>
<event>
 9    2  0.3745229E-005  0.1229904E+03  0.7546771E-02  0.1240827E+00
         21   -1    0    0  501  502  0.00000000000E+00  0.00000000000E+00  0.32164517564E+03  0.32164517564E+03  0.00000000000E+00 0. -1.
         -1   -1    0    0    0  501 -0.00000000000E+00 -0.00000000000E+00 -0.22801420071E+03  0.22801420071E+03  0.00000000000E+00 0.  1.
         23    2    1    2    0    0  0.65783384886E+02 -0.47173327260E+02 -0.16934737436E+03  0.20846620734E+03  0.90701983824E+02 0.  0.
         24    2    1    2    0    0 -0.99504842062E+02  0.57138215024E+02  0.27066893558E+03  0.30519899198E+03  0.81968059692E+02 0.  0.
        -11    1    4    4    0    0 -0.40049349179E+02  0.95008667434E+01  0.25393230330E+02  0.48363550171E+02  0.00000000000E+00 0.  1.
         12    1    4    4    0    0 -0.59455492883E+02  0.47637348280E+02  0.24527570525E+03  0.25683544181E+03  0.00000000000E+00 0. -1.
        -11    1    3    3    0    0  0.85113798382E+01 -0.33825939905E+02 -0.13695771213E+03  0.14132958894E+03  0.00000000000E+00 0.  1.
         11    1    3    3    0    0  0.57272005048E+02 -0.13347387355E+02 -0.32389662225E+02  0.67136618402E+02  0.00000000000E+00 0. -1.
         -2    1    1    2    0  502  0.33721457176E+02 -0.99648877634E+01 -0.76905862865E+01  0.35994177024E+02  0.00000000000E+00 0.  1.
<scales pt_clust_5="13000.00000" pt_clust_6="13000.00000" pt_clust_7="13000.00000" pt_clust_8="13000.00000" pt_clust_9="35.16300"></scales>
<clustering>
<clus scale="   35.163">  1  9  2 -1</clus>
<clus scale="   81.968">  5  6 -1 -1</clus>
<clus scale="   90.702">  7  8 -1 -1</clus>
<clus scale="  116.699">  1  5  2 -1</clus>
<clus scale="   35.163">  1  5  2 -1</clus>
</clustering>
</event>
<event>
 9    2  0.3745229E-005  0.1673791E+03  0.7546771E-02  0.1192905E+00
          2   -1    0    0  502    0 -0.00000000000E+00  0.00000000000E+00  0.65781137454E+02  0.65781137454E+02  0.00000000000E+00 0. -1.
         21   -1    0    0  501  502  0.00000000000E+00 -0.00000000000E+00 -0.98683800466E+03  0.98683800466E+03  0.00000000000E+00 0. -1.
         24    2    1    2    0    0  0.48281451394E+02  0.83557631999E+02 -0.95744620445E+02  0.15933837248E+03  0.83118639223E+02 0.  0.
         23    2    1    2    0    0 -0.47438085754E+02  0.78965972786E+02 -0.15115829285E+03  0.19981253896E+03  0.92683463416E+02 0.  0.
        -11    1    3    3    0    0  0.37861662067E+02  0.12171628478E+02 -0.73966649915E+02  0.83980469717E+02  0.00000000000E+00 0.  1.
         12    1    3    3    0    0  0.10419789327E+02  0.71386003521E+02 -0.21777970530E+02  0.75357902762E+02  0.00000000000E+00 0. -1.
        -11    1    4    4    0    0 -0.40344538177E+02  0.26379900399E+02 -0.13650216238E+03  0.14476332837E+03  0.00000000000E+00 0. -1.
         11    1    4    4    0    0 -0.70935475772E+01  0.52586072387E+02 -0.14656130465E+02  0.55049210590E+02  0.00000000000E+00 0.  1.
          1    1    1    2  501    0 -0.84336563993E+00 -0.16252360478E+03 -0.67415395391E+03  0.69346823067E+03  0.00000000000E+00 0. -1.
<scales pt_clust_5="13000.00000" pt_clust_6="13000.00000" pt_clust_7="13000.00000" pt_clust_8="13000.00000" pt_clust_9="139.37554"></scales>
<clustering>
<clus scale="   83.119">  5  6 -1 -1</clus>
<clus scale="   92.683">  7  8 -1 -1</clus>
<clus scale="  127.364">  1  5  2 -1</clus>
<clus scale="  139.376">  2  9  1 -1</clus>
<clus scale="  139.376">  2  5  1 -1</clus>
</clustering>
</event>
<event>
 9    2  0.3745229E-005  0.9793448E+02  0.7546771E-02  0.1289318E+00
          2   -1    0    0  502    0 -0.00000000000E+00  0.00000000000E+00  0.91087815724E+03  0.91087815724E+03  0.00000000000E+00 0. -1.
         21   -1    0    0  501  502  0.00000000000E+00 -0.00000000000E+00 -0.17961400928E+02  0.17961400928E+02  0.00000000000E+00 0.  1.
         23    2    1    2    0    0 -0.14874083846E+02 -0.50614641378E+02  0.42616077660E+03  0.43882062399E+03  0.90373957747E+02 0.  0.
         24    2    1    2    0    0  0.50049742845E+01  0.12173476479E+02  0.15366886856E+03  0.17442637778E+03  0.81468992895E+02 0.  0.
        -11    1    4    4    0    0 -0.25730833103E+02 -0.66683543138E+01  0.13728437294E+02  0.29916763059E+02  0.00000000000E+00 0.  1.
         12    1    4    4    0    0  0.30735807387E+02  0.18841830793E+02  0.13994043127E+03  0.14450961472E+03  0.00000000000E+00 0. -1.
        -13    1    3    3    0    0  0.31050171641E+02  0.60334367493E+01  0.13737913849E+03  0.14097355500E+03  0.00000000000E+00 0.  1.
         13    1    3    3    0    0 -0.45924255487E+02 -0.56648078127E+02  0.28878163811E+03  0.29784706899E+03  0.00000000000E+00 0. -1.
          1    1    1    2  501    0  0.98691095610E+01  0.38441164899E+02  0.31308711116E+03  0.31559255640E+03  0.00000000000E+00 0. -1.
<scales pt_clust_5="13000.00000" pt_clust_6="13000.00000" pt_clust_7="13000.00000" pt_clust_8="13000.00000" pt_clust_9="39.68783"></scales>
<clustering>
<clus scale="   39.688">  2  9  1 -1</clus>
<clus scale="   81.469">  5  6 -1 -1</clus>
<clus scale="   89.783">  2  5  1 -1</clus>
<clus scale="   90.374">  7  8 -1 -1</clus>
<clus scale="   39.688">  2  5  1 -1</clus>
</clustering>
</event>
<event>
 9    2  0.3745229E-005  0.1169394E+03  0.7546771E-02  0.1253483E+00
         -1   -1    0    0    0  501 -0.00000000000E+00  0.00000000000E+00  0.26663837930E+03  0.26663837930E+03  0.00000000000E+00 0.  1.
         21   -1    0    0  501  502  0.00000000000E+00 -0.00000000000E+00 -0.42563808043E+03  0.42563808043E+03  0.00000000000E+00 0. -1.
         23    2    1    2    0    0  0.65293728884E+02 -0.34594794368E+01  0.23349034540E+03  0.26084065672E+03  0.96150235427E+02 0.  0.
         24    2    1    2    0    0 -0.87680167670E+02  0.47716079709E+02 -0.26708989693E+03  0.29658404429E+03  0.81611556888E+02 0.  0.
        -13    1    4    4    0    0 -0.32813280588E+02  0.75625220919E+01 -0.17599582345E+02  0.37995373693E+02  0.00000000000E+00 0.  1.
         14    1    4    4    0    0 -0.54866887081E+02  0.40153557617E+02 -0.24949031459E+03  0.25858867060E+03  0.00000000000E+00 0. -1.
        -13    1    3    3    0    0  0.48918446424E+02  0.43769081042E+02  0.14600041325E+03  0.16007769215E+03  0.00000000000E+00 0.  1.
         13    1    3    3    0    0  0.16375282460E+02 -0.47228560478E+02  0.87489932156E+02  0.10076296457E+03  0.00000000000E+00 0. -1.
         -2    1    1    2    0  502  0.22386438785E+02 -0.44256600272E+02 -0.12540014960E+03  0.13485175872E+03  0.00000000000E+00 0.  1.
<scales pt_clust_5="13000.00000" pt_clust_6="13000.00000" pt_clust_7="13000.00000" pt_clust_8="13000.00000" pt_clust_9="49.59636"></scales>
<clustering>
<clus scale="   49.596">  2  9  1 -1</clus>
<clus scale="   81.612">  5  6 -1 -1</clus>
<clus scale="   96.150">  7  8 -1 -1</clus>
<clus scale="  105.311">  2  5  1 -1</clus>
<clus scale="   49.596">  2  5  1 -1</clus>
</clustering>
</event>
<event>
 9    2  0.3745229E-005  0.1963292E+03  0.7546771E-02  0.1180285E+00
          4   -1    0    0  502    0 -0.00000000000E+00  0.00000000000E+00  0.93137577910E+02  0.93137577910E+02  0.00000000000E+00 0. -1.
         21   -1    0    0  501  502  0.00000000000E+00 -0.00000000000E+00 -0.74137887806E+03  0.74137887806E+03  0.00000000000E+00 0. -1.
         24    2    1    2    0    0 -0.38725267216E+02 -0.48375826644E+02 -0.25063161903E+03  0.27153463225E+03  0.84112907032E+02 0.  0.
         23    2    1    2    0    0  0.10541200722E+03 -0.12340939119E+03 -0.92573167715E+02  0.20660483671E+03  0.88171413018E+02 0.  0.
        -13    1    3    3    0    0  0.17623613047E+02 -0.38533669951E+02 -0.14903606351E+03  0.15494251735E+03  0.00000000000E+00 0.  1.
         14    1    3    3    0    0 -0.56348880263E+02 -0.98421566929E+01 -0.10159555552E+03  0.11659211490E+03  0.00000000000E+00 0. -1.
        -11    1    4    4    0    0  0.28236585830E+02 -0.61818317255E+02  0.45373396305E+01  0.68113116053E+02  0.00000000000E+00 0.  1.
         11    1    4    4    0    0  0.77175421387E+02 -0.61591073933E+02 -0.97110507346E+02  0.13849172066E+03  0.00000000000E+00 0. -1.
          3    1    1    2  501    0 -0.66686740000E+02  0.17178521783E+03 -0.30503651340E+03  0.35637698700E+03  0.00000000000E+00 0. -1.
<scales pt_clust_5="13000.00000" pt_clust_6="13000.00000" pt_clust_7="13000.00000" pt_clust_8="13000.00000" pt_clust_9="175.41648"></scales>
<clustering>
<clus scale="   84.113">  5  6 -1 -1</clus>
<clus scale="   88.171">  7  8 -1 -1</clus>
<clus scale="  104.474">  1  5  2 -1</clus>
<clus scale="  175.416">  2  9  1 -1</clus>
<clus scale="  175.416">  2  5  1 -1</clus>
</clustering>
</event>
<event>
 9    2  0.3745229E-005  0.9462711E+02  0.7546771E-02  0.1296609E+00
         21   -1    0    0  501  502  0.00000000000E+00  0.00000000000E+00  0.69146044058E+03  0.69146044058E+03  0.00000000000E+00 0. -1.
          4   -1    0    0  502    0 -0.00000000000E+00 -0.00000000000E+00 -0.22493508184E+02  0.22493508184E+02  0.00000000000E+00 0. -1.
         24    2    1    2    0    0  0.15090754631E+02  0.41271113434E+02  0.13272690020E+03  0.16125241187E+03  0.80342234346E+02 0.  0.
         23    2    1    2    0    0  0.14653979170E+02 -0.13102150415E+02  0.32106015556E+03  0.33365674929E+03  0.88661138075E+02 0.  0.
        -13    1    3    3    0    0  0.19999965908E+02  0.91660141917E+01  0.12622728074E+03  0.12813017152E+03  0.00000000000E+00 0.  1.
         14    1    3    3    0    0 -0.49092112772E+01  0.32105099243E+02  0.64996194618E+01  0.33122240351E+02  0.00000000000E+00 0. -1.
        -13    1    4    4    0    0 -0.33616826331E+02  0.79817156320E+01  0.84262188435E+02  0.91070934973E+02  0.00000000000E+00 0.  1.
         13    1    4    4    0    0  0.48270805501E+02 -0.21083866047E+02  0.23679796713E+03  0.24258581431E+03  0.00000000000E+00 0. -1.
          3    1    1    2  501    0 -0.29744733801E+02 -0.28168963019E+02  0.21517987663E+03  0.21904478760E+03  0.00000000000E+00 0. -1.
<scales pt_clust_5="13000.00000" pt_clust_6="13000.00000" pt_clust_7="13000.00000" pt_clust_8="13000.00000" pt_clust_9="40.96632"></scales>
<clustering>
<clus scale="   40.966">  1  9  2 -1</clus>
<clus scale="   80.342">  5  6 -1 -1</clus>
<clus scale="   86.881">  2  5  1 -1</clus>
<clus scale="   88.661">  7  8 -1 -1</clus>
<clus scale="   40.966">  1  5  2 -1</clus>
</clustering>
</event>
<event>
 9    2  0.3745229E-005  0.1463749E+03  0.7546771E-02  0.1206477E+00
         -1   -1    0    0    0  501 -0.00000000000E+00  0.00000000000E+00  0.26072264659E+03  0.26072264659E+03  0.00000000000E+00 0.  1.
         21   -1    0    0  501  502  0.00000000000E+00 -0.00000000000E+00 -0.18740602505E+03  0.18740602505E+03  0.00000000000E+00 0.  1.
         23    2    1    2    0    0 -0.11102723119E+02  0.11847931727E+03  0.81341963375E+02  0.17102967576E+03  0.92054418157E+02 0.  0.
         24    2    1    2    0    0  0.16687183701E+02 -0.96241457670E+02 -0.11177347749E+03  0.17084748176E+03  0.84585291151E+02 0.  0.
        -13    1    4    4    0    0  0.10445267906E+02 -0.10589877504E+03 -0.69643740939E+02  0.12717666778E+03  0.00000000000E+00 0.  1.
         14    1    4    4    0    0  0.62419157946E+01  0.96573173673E+01 -0.42129736556E+02  0.43670813981E+02  0.00000000000E+00 0. -1.
        -11    1    3    3    0    0  0.29605203133E+02  0.10094838351E+03  0.48364961338E+02  0.11578520489E+03  0.00000000000E+00 0.  1.
         11    1    3    3    0    0 -0.40707926252E+02  0.17530933762E+02  0.32977002037E+02  0.55244470870E+02  0.00000000000E+00 0. -1.
         -2    1    1    2    0  502 -0.55844605816E+01 -0.22237859599E+02  0.10374813566E+03  0.10625151412E+03  0.00000000000E+00 0.  1.
<scales pt_clust_5="13000.00000" pt_clust_6="13000.00000" pt_clust_7="13000.00000" pt_clust_8="13000.00000" pt_clust_9="22.92835"></scales>
<clustering>
<clus scale="   22.928">  2  9  1 -1</clus>
<clus scale="   84.585">  5  6 -1 -1</clus>
<clus scale="   92.054">  7  8 -1 -1</clus>
<clus scale="  141.797">  2  5  1 -1</clus>
<clus scale="   22.928">  2  5  1 -1</clus>
</clustering>
</event>
<event>
 9    2  0.3745229E-005  0.1064586E+03  0.7546771E-02  0.1269664E+00
         21   -1    0    0  501  502  0.00000000000E+00  0.00000000000E+00  0.11206944940E+04  0.11206944940E+04  0.00000000000E+00 0. -1.
          2   -1    0    0  502    0 -0.00000000000E+00 -0.00000000000E+00 -0.34956637600E+02  0.34956637600E+02  0.00000000000E+00 0. -1.
         23    2    1    2    0    0 -0.51485715703E+02 -0.50938823807E+02  0.19698154088E+03  0.22944874969E+03  0.92733265845E+02 0.  0.
         24    2    1    2    0    0 -0.50115941284E+02  0.53530442642E+02  0.18441848924E+03  0.21456948025E+03  0.81564494864E+02 0.  0.
        -13    1    4    4    0    0 -0.37447095973E+02  0.74873832575E+02  0.15424785014E+03  0.17550149593E+03  0.00000000000E+00 0.  1.
         14    1    4    4    0    0 -0.12668845311E+02 -0.21343389933E+02  0.30170639105E+02  0.39067984327E+02  0.00000000000E+00 0. -1.
        -13    1    3    3    0    0  0.15742458440E+02 -0.43368350938E+02  0.10977963836E+03  0.11908067794E+03  0.00000000000E+00 0.  1.
         13    1    3    3    0    0 -0.67228174143E+02 -0.75704728691E+01  0.87201902520E+02  0.11036807175E+03  0.00000000000E+00 0. -1.
          1    1    1    2  501    0  0.10160165699E+03 -0.25916188350E+01  0.70433782626E+03  0.71163290163E+03  0.00000000000E+00 0. -1.
<scales pt_clust_5="13000.00000" pt_clust_6="13000.00000" pt_clust_7="13000.00000" pt_clust_8="13000.00000" pt_clust_9="101.63470"></scales>
<clustering>
<clus scale="   81.564">  5  6 -1 -1</clus>
<clus scale="   92.733">  7  8 -1 -1</clus>
<clus scale="  101.635">  1  9  2 -1</clus>
<clus scale="  101.635">  1  5  2 -1</clus>
<clus scale="  101.635">  1  5  2 -1</clus>
</clustering>
</event>
<event>
 9    2  0.3745229E-005  0.1145234E+03  0.7546771E-02  0.1252737E+00
         21   -1    0    0  501  502  0.00000000000E+00  0.00000000000E+00  0.35546006626E+02  0.35546006626E+02  0.00000000000E+00 0. -1.
          2   -1    0    0  502    0 -0.00000000000E+00 -0.00000000000E+00 -0.62393928908E+03  0.62393928908E+03  0.00000000000E+00 0. -1.
         24    2    1    2    0    0  0.33740900537E+01  0.57946828197E+02 -0.28181854196E+03  0.30197317519E+03  0.91634538035E+02 0.  0.
         23    2    1    2    0    0  0.64529029521E+01 -0.78205029359E+02 -0.31164617335E+03  0.33443217387E+03  0.92541206942E+02 0.  0.
        -13    1    3    3    0    0 -0.33241570968E+02  0.58345764666E+02 -0.13665429042E+03  0.15226170033E+03  0.00000000000E+00 0.  1.
         14    1    3    3    0    0  0.36615661022E+02 -0.39893646880E+00 -0.14516425154E+03  0.14971147487E+03  0.00000000000E+00 0. -1.
        -13    1    4    4    0    0 -0.38525601445E+02 -0.59624420023E+02 -0.21134452263E+03  0.22294797751E+03  0.00000000000E+00 0.  1.
         13    1    4    4    0    0  0.44978504397E+02 -0.18580609336E+02 -0.10030165072E+03  0.11148419636E+03  0.00000000000E+00 0. -1.
          1    1    1    2  501    0 -0.98269930058E+01  0.20258201162E+02  0.50714328574E+01  0.23079946644E+02  0.00000000000E+00 0. -1.
<scales pt_clust_5="13000.00000" pt_clust_6="13000.00000" pt_clust_7="13000.00000" pt_clust_8="13000.00000" pt_clust_9="22.51587"></scales>
<clustering>
<clus scale="   22.516">  1  9  2 -1</clus>
<clus scale="   91.635">  5  6 -1 -1</clus>
<clus scale="   92.541">  7  8 -1 -1</clus>
<clus scale="  113.792">  2  5  1 -1</clus>
<clus scale="   22.516">  1  5  2 -1</clus>
</clustering>
</event>
<event>
 9    2  0.3745229E-005  0.1158118E+03  0.7546771E-02  0.1252666E+00
         -1   -1    0    0    0  501 -0.00000000000E+00  0.00000000000E+00  0.55118605054E+02  0.55118605054E+02  0.00000000000E+00 0.  1.
         21   -1    0    0  501  502  0.00000000000E+00 -0.00000000000E+00 -0.47273092233E+03  0.47273092233E+03  0.00000000000E+00 0. -1.
         23    2    1    2    0    0 -0.52448155164E+02  0.77464580697E+02 -0.69987018497E+02  0.14668335249E+03  0.88691898715E+02 0.  0.
         24    2    1    2    0    0  0.68505026080E+01 -0.31741514012E+02 -0.24249575199E+03  0.25778884167E+03  0.81218495778E+02 0.  0.
        -13    1    4    4    0    0 -0.18172049583E+02 -0.31020655285E+02 -0.40122336785E+02  0.53873057732E+02  0.00000000000E+00 0.  1.
         14    1    4    4    0    0  0.25022552191E+02 -0.72085872752E+00 -0.20237341521E+03  0.20391578394E+03  0.00000000000E+00 0. -1.
        -11    1    3    3    0    0 -0.54361090446E+02  0.10785062880E+02 -0.87047889393E+01  0.56100080983E+02  0.00000000000E+00 0. -1.
         11    1    3    3    0    0  0.19129352828E+01  0.66679517818E+02 -0.61282229557E+02  0.90583271509E+02  0.00000000000E+00 0.  1.
         -2    1    1    2    0  502  0.45597652556E+02 -0.45723066685E+02 -0.10512954679E+03  0.12337733323E+03  0.00000000000E+00 0.  1.
<scales pt_clust_5="13000.00000" pt_clust_6="13000.00000" pt_clust_7="13000.00000" pt_clust_8="13000.00000" pt_clust_9="64.57356"></scales>
<clustering>
<clus scale="   64.574">  2  9  1 -1</clus>
<clus scale="   81.218">  5  6 -1 -1</clus>
<clus scale="   88.692">  7  8 -1 -1</clus>
<clus scale="  110.193">  2  5  1 -1</clus>
<clus scale="   64.574">  2  5  1 -1</clus>
</clustering>
</event>
<event>
 9    2  0.3745229E-005  0.2023743E+03  0.7546771E-02  0.1150014E+00
          2   -1    0    0  502    0 -0.00000000000E+00  0.00000000000E+00  0.11204397672E+04  0.11204397672E+04  0.00000000000E+00 0. -1.
         21   -1    0    0  501  502  0.00000000000E+00 -0.00000000000E+00 -0.20324170571E+03  0.20324170571E+03  0.00000000000E+00 0. -1.
         24    2    1    2    0    0 -0.16580077206E+03  0.47092196830E+02  0.98037976668E+03  0.99848723707E+03  0.78260492376E+02 0.  0.
         23    2    1    2    0    0  0.19049480986E+03 -0.10727996120E+03 -0.10117457457E+02  0.24124081495E+03  0.10147662387E+03 0.  0.
        -11    1    3    3    0    0 -0.64173377676E+02  0.53803265587E+02  0.34642487551E+03  0.35640315397E+03  0.00000000000E+00 0.  1.
         12    1    3    3    0    0 -0.10162739439E+03 -0.67110687563E+01  0.63395489117E+03  0.64208408310E+03  0.00000000000E+00 0. -1.
        -11    1    4    4    0    0  0.11035707551E+01 -0.25190436990E+02  0.20589251042E+02  0.32552929862E+02  0.00000000000E+00 0.  1.
         11    1    4    4    0    0  0.18939123911E+03 -0.82089524214E+02 -0.30706708499E+02  0.20868788509E+03  0.00000000000E+00 0. -1.
          1    1    1    2  501    0 -0.24694037796E+02  0.60187764373E+02 -0.53064247766E+02  0.83953420858E+02  0.00000000000E+00 0. -1.
<scales pt_clust_5="13000.00000" pt_clust_6="13000.00000" pt_clust_7="13000.00000" pt_clust_8="13000.00000" pt_clust_9="65.05661"></scales>
<clustering>
<clus scale="   65.057">  2  9  1 -1</clus>
<clus scale="   78.260">  5  6 -1 -1</clus>
<clus scale="  101.477">  7  8 -1 -1</clus>
<clus scale="  191.788">  1  5  2 -1</clus>
<clus scale="   65.057">  2  5  1 -1</clus>
</clustering>
</event>
<event>
 9    2  0.3745229E-005  0.1094063E+03  0.7546771E-02  0.1273148E+00
          2   -1    0    0  502    0 -0.00000000000E+00  0.00000000000E+00  0.24801589935E+03  0.24801589935E+03  0.00000000000E+00 0. -1.
         21   -1    0    0  501  502  0.00000000000E+00 -0.00000000000E+00 -0.58944214639E+02  0.58944214639E+02  0.00000000000E+00 0.  1.
         23    2    1    2    0    0  0.32339418278E+02 -0.98188742176E+01  0.13095855678E+03  0.17004904457E+03  0.10307417571E+03 0.  0.
         24    2    1    2    0    0 -0.41944817448E+02 -0.14089763548E+02  0.63027829388E+02  0.11068053486E+03  0.79497071465E+02 0.  0.
        -13    1    4    4    0    0 -0.62944518300E+02 -0.19143686316E+02  0.32760221653E+02  0.73496430067E+02  0.00000000000E+00 0.  1.
         14    1    4    4    0    0  0.20999700851E+02  0.50539227676E+01  0.30267607735E+02  0.37184104792E+02  0.00000000000E+00 0. -1.
        -11    1    3    3    0    0 -0.22274740632E+02 -0.35540001543E+02  0.27150336657E+02  0.49963952611E+02  0.00000000000E+00 0.  1.
         11    1    3    3    0    0  0.54614158911E+02  0.25721127326E+02  0.10380822013E+03  0.12008509196E+03  0.00000000000E+00 0. -1.
          1    1    1    2  501    0  0.96053991702E+01  0.23908637766E+02 -0.49147014601E+01  0.26230534564E+02  0.00000000000E+00 0. -1.
<scales pt_clust_5="13000.00000" pt_clust_6="13000.00000" pt_clust_7="13000.00000" pt_clust_8="13000.00000" pt_clust_9="25.76600"></scales>
<clustering>
<clus scale="   25.766">  2  9  1 -1</clus>
<clus scale="   79.497">  5  6 -1 -1</clus>
<clus scale="   87.551">  2  5  1 -1</clus>
<clus scale="  103.074">  7  8 -1 -1</clus>
<clus scale="   25.766">  2  5  1 -1</clus>
</clustering>
</event>
<event>
 9    2  0.3745229E-005  0.1168051E+03  0.7546771E-02  0.1258375E+00
          2   -1    0    0  502    0 -0.00000000000E+00  0.00000000000E+00  0.16492726110E+03  0.16492726110E+03  0.00000000000E+00 0. -1.
         21   -1    0    0  501  502  0.00000000000E+00 -0.00000000000E+00 -0.19417297323E+03  0.19417297323E+03  0.00000000000E+00 0.  1.
         23    2    1    2    0    0 -0.53594027582E+02  0.18933165072E+02  0.11359860555E+03  0.16447686936E+03  0.10448546712E+03 0.  0.
         24    2    1    2    0    0  0.39698420083E+02  0.38183766145E+01 -0.61054366366E+02  0.10859827158E+03  0.80469897353E+02 0.  0.
        -13    1    4    4    0    0  0.55646728921E+02  0.30829245537E+01 -0.70638638198E+02  0.89977108588E+02  0.00000000000E+00 0.  1.
         14    1    4    4    0    0 -0.15948308838E+02  0.73545206082E+00  0.95842718316E+01  0.18621162989E+02  0.00000000000E+00 0. -1.
        -11    1    3    3    0    0 -0.53418192841E+02 -0.31104383350E+02  0.34249905646E+02  0.70668536328E+02  0.00000000000E+00 0.  1.
         11    1    3    3    0    0 -0.17583474150E+00  0.50037548422E+02  0.79348699907E+02  0.93808333035E+02  0.00000000000E+00 0. -1.
          1    1    1    2  501    0  0.13895607499E+02 -0.22751541686E+02 -0.81789951316E+02  0.86025093393E+02  0.00000000000E+00 0. -1.
<scales pt_clust_5="13000.00000" pt_clust_6="13000.00000" pt_clust_7="13000.00000" pt_clust_8="13000.00000" pt_clust_9="26.65934"></scales>
<clustering>
<clus scale="   26.659">  2  9  1 -1</clus>
<clus scale="   80.470">  5  6 -1 -1</clus>
<clus scale="   95.925">  2  5  1 -1</clus>
<clus scale="  104.485">  7  8 -1 -1</clus>
<clus scale="   26.659">  2  5  1 -1</clus>
</clustering>
</event>
<event>
 9    2  0.3745229E-005  0.9345774E+02  0.7546771E-02  0.1300237E+00
         21   -1    0    0  501  502  0.00000000000E+00  0.00000000000E+00  0.19845539568E+02  0.19845539568E+02  0.00000000000E+00 0. -1.
         -3   -1    0    0    0  501 -0.00000000000E+00 -0.00000000000E+00 -0.61687777748E+03  0.61687777748E+03  0.00000000000E+00 0.  1.
         23    2    1    2    0    0  0.31541641461E+01 -0.12973462203E+02 -0.22011118473E+03  0.23819116329E+03  0.90043529214E+02 0.  0.
         24    2    1    2    0    0 -0.38895582835E+02  0.13183420210E+02 -0.22540999422E+03  0.24286232984E+03  0.80534320800E+02 0.  0.
        -13    1    4    4    0    0  0.24372929743E+02  0.21137763046E+01 -0.42970054929E+02  0.49446267555E+02  0.00000000000E+00 0.  1.
         14    1    4    4    0    0 -0.63268512577E+02  0.11069643906E+02 -0.18243993929E+03  0.19341606228E+03  0.00000000000E+00 0. -1.
        -11    1    3    3    0    0  0.50103975112E+00 -0.51511696963E+02 -0.10908769724E+03  0.12063926249E+03  0.00000000000E+00 0.  1.
         11    1    3    3    0    0  0.26531243949E+01  0.38538234760E+02 -0.11102348750E+03  0.11755190081E+03  0.00000000000E+00 0. -1.
         -4    1    1    2    0  502  0.35741418689E+02 -0.20995800736E+00 -0.15151105896E+03  0.15566982392E+03  0.00000000000E+00 0.  1.
<scales pt_clust_5="13000.00000" pt_clust_6="13000.00000" pt_clust_7="13000.00000" pt_clust_8="13000.00000" pt_clust_9="35.74205"></scales>
<clustering>
<clus scale="   35.742">  1  9  2 -1</clus>
<clus scale="   80.534">  5  6 -1 -1</clus>
<clus scale="   84.334">  1  5  2 -1</clus>
<clus scale="   90.044">  7  8 -1 -1</clus>
<clus scale="   35.742">  1  5  2 -1</clus>
</clustering>
</event>
<event>
 9    2  0.3745229E-005  0.9707366E+02  0.7546771E-02  0.1293464E+00
          2   -1    0    0  502    0 -0.00000000000E+00  0.00000000000E+00  0.38121743737E+03  0.38121743737E+03  0.00000000000E+00 0. -1.
         21   -1    0    0  501  502  0.00000000000E+00 -0.00000000000E+00 -0.42733855177E+02  0.42733855177E+02  0.00000000000E+00 0.  1.
         24    2    1    2    0    0  0.31869606046E+02 -0.23706942554E+01  0.23544588476E+03  0.25073958600E+03  0.80089221217E+02 0.  0.
         23    2    1    2    0    0 -0.18632667658E+02 -0.18665912594E+02  0.37725333390E+02  0.10332994739E+03  0.92510997466E+02 0.  0.
        -13    1    3    3    0    0  0.18859793271E+02 -0.27767463559E+02  0.35839619680E+02  0.49103993458E+02  0.00000000000E+00 0.  1.
         14    1    3    3    0    0  0.13009812775E+02  0.25396769304E+02  0.19960626508E+03  0.20163559254E+03  0.00000000000E+00 0. -1.
        -11    1    4    4    0    0 -0.40981890121E+02 -0.38191343270E+02  0.46039519247E+02  0.72510215496E+02  0.00000000000E+00 0.  1.
         11    1    4    4    0    0  0.22349222464E+02  0.19525430677E+02 -0.83141858572E+01  0.30819731899E+02  0.00000000000E+00 0. -1.
          1    1    1    2  501    0 -0.13236938389E+02  0.21036606849E+02  0.65312364042E+02  0.69881759154E+02  0.00000000000E+00 0. -1.
<scales pt_clust_5="13000.00000" pt_clust_6="13000.00000" pt_clust_7="13000.00000" pt_clust_8="13000.00000" pt_clust_9="24.85470"></scales>
<clustering>
<clus scale="   24.855">  2  9  1 -1</clus>
<clus scale="   80.089">  5  6 -1 -1</clus>
<clus scale="   85.319">  1  5  2 -1</clus>
<clus scale="   92.511">  7  8 -1 -1</clus>
<clus scale="   24.855">  2  5  1 -1</clus>
</clustering>
</event>
<event>
 9    2  0.3745229E-005  0.9799767E+02  0.7546771E-02  0.1293522E+00
         -1   -1    0    0    0  501 -0.00000000000E+00  0.00000000000E+00  0.29509495005E+03  0.29509495005E+03  0.00000000000E+00 0.  1.
         21   -1    0    0  501  502  0.00000000000E+00 -0.00000000000E+00 -0.92974401559E+02  0.92974401559E+02  0.00000000000E+00 0.  1.
         23    2    1    2    0    0 -0.14987005552E+02  0.19876266429E+02  0.24163572293E+03  0.26113519122E+03  0.95833653771E+02 0.  0.
         24    2    1    2    0    0  0.66187506090E+00 -0.27725986296E+01  0.14007005207E+01  0.80331009858E+02  0.80268199189E+02 0.  0.
        -13    1    4    4    0    0 -0.91396748651E+00  0.38586581002E+02 -0.29710114303E+01  0.38711580682E+02  0.00000000000E+00 0.  1.
         14    1    4    4    0    0  0.15758425474E+01 -0.41359179631E+02  0.43717119510E+01  0.41619429176E+02  0.00000000000E+00 0. -1.
        -11    1    3    3    0    0 -0.34442682361E+02 -0.21012165952E+02  0.18108872875E+03  0.18552880414E+03  0.00000000000E+00 0. -1.
         11    1    3    3    0    0  0.19455676809E+02  0.40888432382E+02  0.60546994180E+02  0.75606387078E+02  0.00000000000E+00 0.  1.
         -2    1    1    2    0  502  0.14325130491E+02 -0.17103667800E+02 -0.40915874959E+02  0.46603150531E+02  0.00000000000E+00 0.  1.
<scales pt_clust_5="13000.00000" pt_clust_6="13000.00000" pt_clust_7="13000.00000" pt_clust_8="13000.00000" pt_clust_9="22.31020"></scales>
<clustering>
<clus scale="   22.310">  2  9  1 -1</clus>
<clus scale="   80.268">  5  6 -1 -1</clus>
<clus scale="   82.840">  2  5  1 -1</clus>
<clus scale="   95.834">  7  8 -1 -1</clus>
<clus scale="   22.310">  2  5  1 -1</clus>
</clustering>
</event>
<event>
 9    2  0.3745229E-005  0.1029531E+03  0.7546771E-02  0.1278857E+00
         -1   -1    0    0    0  501 -0.00000000000E+00  0.00000000000E+00  0.66357295308E+03  0.66357295308E+03  0.00000000000E+00 0.  1.
         21   -1    0    0  501  502  0.00000000000E+00 -0.00000000000E+00 -0.30764706060E+02  0.30764706060E+02  0.00000000000E+00 0. -1.
         24    2    1    2    0    0 -0.55626327387E+02  0.12691218127E+02  0.47671739087E+03  0.48663817920E+03  0.79384452987E+02 0.  0.
         23    2    1    2    0    0  0.33481234441E+02  0.16337843275E+02  0.13246286320E+03  0.16420955470E+03  0.89612775559E+02 0.  0.
        -11    1    3    3    0    0 -0.69603728326E+02 -0.45829250134E+01  0.41945596918E+03  0.42521640641E+03  0.00000000000E+00 0.  1.
         12    1    3    3    0    0  0.13977400939E+02  0.17274143140E+02  0.57261421690E+02  0.61421772786E+02  0.00000000000E+00 0. -1.
        -11    1    4    4    0    0 -0.22117006601E+02 -0.74477645158E+01  0.60988851836E+01  0.24121102333E+02  0.00000000000E+00 0. -1.
         11    1    4    4    0    0  0.55598241042E+02  0.23785607790E+02  0.12636397802E+03  0.14008845237E+03  0.00000000000E+00 0.  1.
         -2    1    1    2    0  502  0.22145092946E+02 -0.29029061401E+02  0.23627992948E+02  0.43489925249E+02  0.00000000000E+00 0.  1.
<scales pt_clust_5="13000.00000" pt_clust_6="13000.00000" pt_clust_7="13000.00000" pt_clust_8="13000.00000" pt_clust_9="36.51153"></scales>
<clustering>
<clus scale="   36.512">  2  9  1 -1</clus>
<clus scale="   79.384">  5  6 -1 -1</clus>
<clus scale="   89.613">  7  8 -1 -1</clus>
<clus scale="   94.185">  1  5  2 -1</clus>
<clus scale="   36.512">  2  5  1 -1</clus>
</clustering>
</event>
<event>
 9    2  0.3745229E-005  0.1211274E+03  0.7546771E-02  0.1245818E+00
         -1   -1    0    0    0  501 -0.00000000000E+00  0.00000000000E+00  0.16418125206E+03  0.16418125206E+03  0.00000000000E+00 0.  1.
         21   -1    0    0  501  502  0.00000000000E+00 -0.00000000000E+00 -0.13031722588E+03  0.13031722588E+03  0.00000000000E+00 0. -1.
         23    2    1    2    0    0 -0.35463539789E+02 -0.61961447919E+02  0.24727557076E+02  0.12202464991E+03  0.95821080269E+02 0.  0.
         24    2    1    2    0    0  0.16945203613E+02  0.78904189781E+02 -0.36285471379E+02  0.12057837588E+03  0.81911526698E+02 0.  0.
        -13    1    4    4    0    0 -0.20867148281E+02  0.91740874386E+01  0.13914037967E+02  0.26705845994E+02  0.00000000000E+00 0.  1.
         14    1    4    4    0    0  0.37812351894E+02  0.69730102343E+02 -0.50199509346E+02  0.93872529885E+02  0.00000000000E+00 0. -1.
        -13    1    3    3    0    0 -0.40318130333E+02 -0.82285817080E+02  0.35798427420E+02  0.98377003064E+02  0.00000000000E+00 0.  1.
         13    1    3    3    0    0  0.48545905442E+01  0.20324369161E+02 -0.11070870344E+02  0.23647646845E+02  0.00000000000E+00 0. -1.
         -2    1    1    2    0  502  0.18518336177E+02 -0.16942741863E+02  0.45421940479E+02  0.51895452146E+02  0.00000000000E+00 0.  1.
<scales pt_clust_5="13000.00000" pt_clust_6="13000.00000" pt_clust_7="13000.00000" pt_clust_8="13000.00000" pt_clust_9="25.09952"></scales>
<clustering>
<clus scale="   25.100">  2  9  1 -1</clus>
<clus scale="   81.912">  5  6 -1 -1</clus>
<clus scale="   95.821">  7  8 -1 -1</clus>
<clus scale="  110.452">  2  5  1 -1</clus>
<clus scale="   25.100">  2  5  1 -1</clus>
</clustering>
</event>
<event>
 9    2  0.3745229E-005  0.1479569E+03  0.7546771E-02  0.1203039E+00
         21   -1    0    0  501  502  0.00000000000E+00  0.00000000000E+00  0.81627586942E+02  0.81627586942E+02  0.00000000000E+00 0. -1.
          2   -1    0    0  502    0 -0.00000000000E+00 -0.00000000000E+00 -0.49327496441E+03  0.49327496441E+03  0.00000000000E+00 0. -1.
         24    2    1    2    0    0 -0.85024903044E+02 -0.10005518867E+03 -0.28933664778E+03  0.32934501682E+03  0.86672772177E+02 0.  0.
         23    2    1    2    0    0  0.79185365748E+02  0.46875079904E+02 -0.17309710978E+02  0.12771255970E+03  0.86852038236E+02 0.  0.
        -11    1    3    3    0    0 -0.18175887535E+02  0.14260537360E+02 -0.27431031103E+02  0.35863453276E+02  0.00000000000E+00 0.  1.
         12    1    3    3    0    0 -0.66849015510E+02 -0.11431572603E+03 -0.26190561668E+03  0.29348156354E+03  0.00000000000E+00 0. -1.
        -13    1    4    4    0    0  0.55884934344E+02 -0.86759507633E+01 -0.32979805557E+02  0.65468050093E+02  0.00000000000E+00 0. -1.
         13    1    4    4    0    0  0.23300431404E+02  0.55551030668E+02  0.15670094579E+02  0.62244509605E+02  0.00000000000E+00 0.  1.
          1    1    1    2  501    0  0.58395372959E+01  0.53180108765E+02 -0.10500101871E+03  0.11784497483E+03  0.00000000000E+00 0. -1.
<scales pt_clust_5="13000.00000" pt_clust_6="13000.00000" pt_clust_7="13000.00000" pt_clust_8="13000.00000" pt_clust_9="53.49979"></scales>
<clustering>
<clus scale="   53.500">  1  9  2 -1</clus>
<clus scale="   86.673">  5  6 -1 -1</clus>
<clus scale="   86.852">  7  8 -1 -1</clus>
<clus scale="  147.852">  2  5  1 -1</clus>
<clus scale="   53.500">  1  5  2 -1</clus>
</clustering>
</event>
<event>
 9    2  0.3745229E-005  0.1282073E+03  0.7546771E-02  0.1233218E+00
         21   -1    0    0  501  502  0.00000000000E+00  0.00000000000E+00  0.33807134590E+02  0.33807134590E+02  0.00000000000E+00 0.  1.
         -1   -1    0    0    0  501 -0.00000000000E+00 -0.00000000000E+00 -0.63874748070E+03  0.63874748070E+03  0.00000000000E+00 0.  1.
         24    2    1    2    0    0 -0.28497905180E+02  0.74995192984E+02 -0.31604943977E+03  0.33591383795E+03  0.80712134042E+02 0.  0.
         23    2    1    2    0    0  0.23331824261E+02 -0.10543038862E+03 -0.23348350227E+03  0.27321389068E+03  0.92039900904E+02 0.  0.
        -11    1    3    3    0    0 -0.47487759079E+02  0.13575132466E+02 -0.12961503917E+03  0.13870627189E+03  0.00000000000E+00 0.  1.
         12    1    3    3    0    0  0.18989853899E+02  0.61420060518E+02 -0.18643440060E+03  0.19720756606E+03  0.00000000000E+00 0. -1.
        -11    1    4    4    0    0 -0.31735921212E+02 -0.14768393011E+02 -0.46018424480E+02  0.57818418509E+02  0.00000000000E+00 0. -1.
         11    1    4    4    0    0  0.55067745473E+02 -0.90661995607E+02 -0.18746507779E+03  0.21539547217E+03  0.00000000000E+00 0.  1.
         -2    1    1    2    0  502  0.51660809193E+01  0.30435195634E+02 -0.55407404067E+02  0.63426886655E+02  0.00000000000E+00 0.  1.
<scales pt_clust_5="13000.00000" pt_clust_6="13000.00000" pt_clust_7="13000.00000" pt_clust_8="13000.00000" pt_clust_9="30.87053"></scales>
<clustering>
<clus scale="   30.871">  1  9  2 -1</clus>
<clus scale="   80.712">  5  6 -1 -1</clus>
<clus scale="   92.040">  7  8 -1 -1</clus>
<clus scale="  120.334">  2  5  1 -1</clus>
<clus scale="   30.871">  1  5  2 -1</clus>
</clustering>
</event>
<event>
 9    2  0.3745229E-005  0.1509051E+03  0.7546771E-02  0.1220626E+00
          2   -1    0    0  502    0 -0.00000000000E+00  0.00000000000E+00  0.16929030047E+03  0.16929030047E+03  0.00000000000E+00 0. -1.
         21   -1    0    0  501  502  0.00000000000E+00 -0.00000000000E+00 -0.23999798319E+03  0.23999798319E+03  0.00000000000E+00 0. -1.
         23    2    1    2    0    0  0.23753044492E+02  0.15150433193E+02 -0.90070068879E+01  0.96256609846E+02  0.91599486993E+02 0.  0.
         24    2    1    2    0    0 -0.11689883017E+03 -0.88066099450E+02  0.18921639146E+02  0.16987864574E+03  0.84141259106E+02 0.  0.
        -11    1    4    4    0    0 -0.27887320848E+02  0.42583651060E+00 -0.24441550325E+02  0.37084678549E+02  0.00000000000E+00 0.  1.
         12    1    4    4    0    0 -0.89011509319E+02 -0.88491935960E+02  0.43363189471E+02  0.13279396719E+03  0.00000000000E+00 0. -1.
        -11    1    3    3    0    0 -0.98812296342E+01 -0.33852961558E+02 -0.10521442566E+02  0.36801663807E+02  0.00000000000E+00 0.  1.
         11    1    3    3    0    0  0.33634274126E+02  0.49003394751E+02  0.15144356777E+01  0.59454946039E+02  0.00000000000E+00 0. -1.
          1    1    1    2  501    0  0.93145785675E+02  0.72915666257E+02 -0.80622314981E+02  0.14315302808E+03  0.00000000000E+00 0. -1.
<scales pt_clust_5="13000.00000" pt_clust_6="13000.00000" pt_clust_7="13000.00000" pt_clust_8="13000.00000" pt_clust_9="125.27008"></scales>
<clustering>
<clus scale="   84.141">  5  6 -1 -1</clus>
<clus scale="   91.599">  7  8 -1 -1</clus>
<clus scale="   95.834">  1  7  2 -1</clus>
<clus scale="  125.270">  2  9  1 -1</clus>
<clus scale="  125.270">  2  5  1 -1</clus>
</clustering>
</event>
<event>
 9    2  0.3745229E-005  0.1160904E+03  0.7546771E-02  0.1252288E+00
         21   -1    0    0  501  502  0.00000000000E+00  0.00000000000E+00  0.11973226466E+03  0.11973226466E+03  0.00000000000E+00 0. -1.
         -1   -1    0    0    0  501 -0.00000000000E+00 -0.00000000000E+00 -0.20966317452E+03  0.20966317452E+03  0.00000000000E+00 0.  1.
         24    2    1    2    0    0  0.34500268383E+02  0.67940849001E+02 -0.13063018898E+03  0.17206413944E+03  0.82070666666E+02 0.  0.
         23    2    1    2    0    0 -0.15795394780E+02 -0.60766842416E+02  0.63773076086E+02  0.12677416025E+03  0.89791863996E+02 0.  0.
        -13    1    3    3    0    0  0.25835242034E+02  0.87145839382E+02 -0.10457320548E+03  0.13855472694E+03  0.00000000000E+00 0.  1.
         14    1    3    3    0    0  0.86650263489E+01 -0.19204990381E+02 -0.26056983496E+02  0.33509412500E+02  0.00000000000E+00 0. -1.
        -13    1    4    4    0    0 -0.40435276936E+01 -0.26800012114E+02 -0.21266602082E+02  0.34450821901E+02  0.00000000000E+00 0.  1.
         13    1    4    4    0    0 -0.11751867086E+02 -0.33966830302E+02  0.85039678168E+02  0.92323338348E+02  0.00000000000E+00 0. -1.
         -2    1    1    2    0  502 -0.18704873603E+02 -0.71740065856E+01 -0.23073796969E+02  0.30557139486E+02  0.00000000000E+00 0.  1.
<scales pt_clust_5="13000.00000" pt_clust_6="13000.00000" pt_clust_7="13000.00000" pt_clust_8="13000.00000" pt_clust_9="20.03345"></scales>
<clustering>
<clus scale="   20.033">  1  9  2 -1</clus>
<clus scale="   82.071">  5  6 -1 -1</clus>
<clus scale="   89.792">  7  8 -1 -1</clus>
<clus scale="  110.227">  2  5  1 -1</clus>
<clus scale="   20.033">  1  5  2 -1</clus>
</clustering>
</event>
<event>
 9    2  0.3745229E-005  0.1136470E+03  0.7546771E-02  0.1259746E+00
         21   -1    0    0  501  502  0.00000000000E+00  0.00000000000E+00  0.17699790473E+03  0.17699790473E+03  0.00000000000E+00 0.  1.
         -1   -1    0    0    0  501 -0.00000000000E+00 -0.00000000000E+00 -0.13252604750E+03  0.13252604750E+03  0.00000000000E+00 0.  1.
         24    2    1    2    0    0 -0.41882145143E+01  0.66717328333E+02 -0.48710939490E+02  0.11126993647E+03  0.74427818014E+02 0.  0.
         23    2    1    2    0    0  0.35859917815E+02 -0.73945334239E+02  0.10749998164E+03  0.16275299262E+03  0.90434752129E+02 0.  0.
        -13    1    3    3    0    0 -0.33233408498E+02  0.51227535443E+02 -0.12492904987E+02  0.62328103637E+02  0.00000000000E+00 0.  1.
         14    1    3    3    0    0  0.29045193984E+02  0.15489792889E+02 -0.36218034502E+02  0.48941832828E+02  0.00000000000E+00 0. -1.
        -13    1    4    4    0    0 -0.21344885534E+02  0.55897449853E+01  0.90081846281E+01  0.23832682974E+02  0.00000000000E+00 0. -1.
         13    1    4    4    0    0  0.57204803349E+02 -0.79535079224E+02  0.98491797016E+02  0.13892030965E+03  0.00000000000E+00 0.  1.
         -2    1    1    2    0  502 -0.31671703301E+02  0.72280059062E+01 -0.14317184924E+02  0.35501023133E+02  0.00000000000E+00 0.  1.
<scales pt_clust_5="13000.00000" pt_clust_6="13000.00000" pt_clust_7="13000.00000" pt_clust_8="13000.00000" pt_clust_9="32.48603"></scales>
<clustering>
<clus scale="   32.486">  1  9  2 -1</clus>
<clus scale="   74.428">  5  6 -1 -1</clus>
<clus scale="   90.435">  7  8 -1 -1</clus>
<clus scale="  101.374">  2  5  1 -1</clus>
<clus scale="   32.486">  1  5  2 -1</clus>
</clustering>
</event>
<event>
 9    2  0.3745229E-005  0.1058285E+03  0.7546771E-02  0.1277647E+00
         21   -1    0    0  501  502  0.00000000000E+00  0.00000000000E+00  0.10804869208E+03  0.10804869208E+03  0.00000000000E+00 0. -1.
          2   -1    0    0  502    0 -0.00000000000E+00 -0.00000000000E+00 -0.36938044857E+03  0.36938044857E+03  0.00000000000E+00 0. -1.
         23    2    1    2    0    0  0.35378100251E+02  0.24955316447E+02 -0.21301484191E+03  0.23885314271E+03  0.99000621775E+02 0.  0.
         24    2    1    2    0    0  0.17762903565E+02 -0.48897267997E+02 -0.11520935172E+03  0.14985293736E+03  0.80475117595E+02 0.  0.
        -11    1    4    4    0    0 -0.30485630997E+02 -0.68610192953E+01 -0.30263741372E+02  0.43501049699E+02  0.00000000000E+00 0.  1.
         12    1    4    4    0    0  0.48248534562E+02 -0.42036248702E+02 -0.84945610348E+02  0.10635188766E+03  0.00000000000E+00 0. -1.
        -11    1    3    3    0    0  0.22541093412E+02 -0.37727804096E+02 -0.81240928068E+02  0.92366533373E+02  0.00000000000E+00 0.  1.
         11    1    3    3    0    0  0.12837006839E+02  0.62683120542E+02 -0.13177391384E+03  0.14648660934E+03  0.00000000000E+00 0. -1.
          1    1    1    2  501    0 -0.53141003816E+02  0.23941951551E+02  0.66892437142E+02  0.88723060573E+02  0.00000000000E+00 0. -1.
<scales pt_clust_5="13000.00000" pt_clust_6="13000.00000" pt_clust_7="13000.00000" pt_clust_8="13000.00000" pt_clust_9="58.28536"></scales>
<clustering>
<clus scale="   58.285">  1  9  2 -1</clus>
<clus scale="   80.475">  5  6 -1 -1</clus>
<clus scale="   88.740">  1  5  2 -1</clus>
<clus scale="   99.001">  7  8 -1 -1</clus>
<clus scale="   58.285">  1  5  2 -1</clus>
</clustering>
</event>
<event>
 9    2  0.3745229E-005  0.9657055E+02  0.7546771E-02  0.1296812E+00
         21   -1    0    0  501  502  0.00000000000E+00  0.00000000000E+00  0.14960399685E+02  0.14960399685E+02  0.00000000000E+00 0. -1.
          2   -1    0    0  502    0 -0.00000000000E+00 -0.00000000000E+00 -0.77191167136E+03  0.77191167136E+03  0.00000000000E+00 0. -1.
         23    2    1    2    0    0 -0.17571956215E+01 -0.38001440510E+02 -0.38779136517E+03  0.40027952278E+03  0.91620719511E+02 0.  0.
         24    2    1    2    0    0 -0.20117233124E+02  0.19160847502E+02 -0.21092997835E+03  0.22575048677E+03  0.75498247447E+02 0.  0.
        -11    1    4    4    0    0 -0.48507248202E+02  0.18888819939E+02 -0.13707051370E+03  0.14662218922E+03  0.00000000000E+00 0.  1.
         12    1    4    4    0    0  0.28390015079E+02  0.27202756334E+00 -0.73859464648E+02  0.79128297551E+02  0.00000000000E+00 0. -1.
        -13    1    3    3    0    0  0.43947813754E+02 -0.23991649268E+02 -0.23092596581E+03  0.23629179261E+03  0.00000000000E+00 0.  1.
         13    1    3    3    0    0 -0.45705009375E+02 -0.14009791242E+02 -0.15686539936E+03  0.16398773018E+03  0.00000000000E+00 0. -1.
          1    1    1    2  501    0  0.21874428745E+02  0.18840593008E+02 -0.15822992816E+03  0.16084206148E+03  0.00000000000E+00 0. -1.
<scales pt_clust_5="13000.00000" pt_clust_6="13000.00000" pt_clust_7="13000.00000" pt_clust_8="13000.00000" pt_clust_9="28.86970"></scales>
<clustering>
<clus scale="   28.870">  1  9  2 -1</clus>
<clus scale="   75.498">  5  6 -1 -1</clus>
<clus scale="   81.434">  1  5  2 -1</clus>
<clus scale="   91.621">  7  8 -1 -1</clus>
<clus scale="   28.870">  1  5  2 -1</clus>
</clustering>
</event>
<event>
 9    2  0.3745229E-005  0.1146996E+03  0.7546771E-02  0.1258940E+00
          2   -1    0    0  502    0 -0.00000000000E+00  0.00000000000E+00  0.56953377254E+03  0.56953377254E+03  0.00000000000E+00 0. -1.
         21   -1    0    0  501  502  0.00000000000E+00 -0.00000000000E+00 -0.54855672404E+02  0.54855672404E+02  0.00000000000E+00 0.  1.
         24    2    1    2    0    0 -0.66250398191E+02 -0.29104253788E+02  0.47125945043E+03  0.48189051610E+03  0.69977332347E+02 0.  0.
         23    2    1    2    0    0  0.68331386711E+02  0.81564651627E+01  0.27822982510E+02  0.11630035642E+03  0.89531827941E+02 0.  0.
        -13    1    3    3    0    0  0.13929855944E+01 -0.22104392706E+02  0.44074518321E+02  0.49326542053E+02  0.00000000000E+00 0.  1.
         14    1    3    3    0    0 -0.67643383785E+02 -0.69998610822E+01  0.42718493211E+03  0.43256397405E+03  0.00000000000E+00 0. -1.
        -13    1    4    4    0    0  0.52659453650E+02 -0.35519031404E+02  0.29130190058E+02  0.69879808410E+02  0.00000000000E+00 0.  1.
         13    1    4    4    0    0  0.15671933061E+02  0.43675496567E+02 -0.13072075481E+01  0.46420548012E+02  0.00000000000E+00 0. -1.
          1    1    1    2  501    0 -0.20809885197E+01  0.20947788625E+02  0.15595667200E+02  0.26198572422E+02  0.00000000000E+00 0. -1.
<scales pt_clust_5="13000.00000" pt_clust_6="13000.00000" pt_clust_7="13000.00000" pt_clust_8="13000.00000" pt_clust_9="21.05090"></scales>
<clustering>
<clus scale="   21.051">  2  9  1 -1</clus>
<clus scale="   69.977">  5  6 -1 -1</clus>
<clus scale="   89.532">  7  8 -1 -1</clus>
<clus scale="  100.184">  1  5  2 -1</clus>
<clus scale="   21.051">  2  5  1 -1</clus>
</clustering>
</event>
<event>
 9    2  0.3745229E-005  0.8970776E+02  0.7546771E-02  0.1307752E+00
         21   -1    0    0  501  502  0.00000000000E+00  0.00000000000E+00  0.16666776521E+03  0.16666776521E+03  0.00000000000E+00 0. -1.
         -1   -1    0    0    0  501 -0.00000000000E+00 -0.00000000000E+00 -0.10284952350E+03  0.10284952350E+03  0.00000000000E+00 0.  1.
         23    2    1    2    0    0  0.16060943183E+02  0.41252807883E+01 -0.47742116872E+02  0.10200120716E+03  0.88600026529E+02 0.  0.
         24    2    1    2    0    0  0.43580819399E+01 -0.17146758955E+02  0.11579750805E+03  0.14293053872E+03  0.81896714274E+02 0.  0.
        -13    1    4    4    0    0 -0.22346811402E+02 -0.20037788193E+02  0.69383550131E+01  0.30806390665E+02  0.00000000000E+00 0.  1.
         14    1    4    4    0    0  0.26704893342E+02  0.28910292383E+01  0.10885915303E+03  0.11212414806E+03  0.00000000000E+00 0. -1.
        -11    1    3    3    0    0  0.51853865618E+02  0.11914561491E+02 -0.32350480398E+02  0.62268240196E+02  0.00000000000E+00 0.  1.
         11    1    3    3    0    0 -0.35792922436E+02 -0.77892807025E+01 -0.15391636474E+02  0.39732966963E+02  0.00000000000E+00 0. -1.
         -2    1    1    2    0  502 -0.20419025122E+02  0.13021478167E+02 -0.42371494659E+01  0.24585542829E+02  0.00000000000E+00 0.  1.
<scales pt_clust_5="13000.00000" pt_clust_6="13000.00000" pt_clust_7="13000.00000" pt_clust_8="13000.00000" pt_clust_9="24.21768"></scales>
<clustering>
<clus scale="   24.218">  1  9  2 -1</clus>
<clus scale="   81.897">  5  6 -1 -1</clus>
<clus scale="   83.094">  1  5  2 -1</clus>
<clus scale="   88.600">  7  8 -1 -1</clus>
<clus scale="   24.218">  1  5  2 -1</clus>
</clustering>
</event>
<event>
 9    2  0.3745229E-005  0.1331936E+03  0.7546771E-02  0.1240216E+00
         21   -1    0    0  501  502  0.00000000000E+00  0.00000000000E+00  0.67265263276E+03  0.67265263276E+03  0.00000000000E+00 0. -1.
          2   -1    0    0  502    0 -0.00000000000E+00 -0.00000000000E+00 -0.41754255500E+02  0.41754255500E+02  0.00000000000E+00 0. -1.
         24    2    1    2    0    0 -0.17451445355E+02 -0.46367544363E+02  0.19667517734E+03  0.21756738530E+03  0.78739695527E+02 0.  0.
         23    2    1    2    0    0 -0.17840828064E+02 -0.60543878586E+02  0.12180719794E+03  0.16475614713E+03  0.91234522895E+02 0.  0.
        -11    1    3    3    0    0 -0.19865114843E+02 -0.30371374342E+02  0.22622889065E+02  0.42764918762E+02  0.00000000000E+00 0.  1.
         12    1    3    3    0    0  0.24136694877E+01 -0.15996170021E+02  0.17405228827E+03  0.17480246654E+03  0.00000000000E+00 0. -1.
        -13    1    4    4    0    0 -0.39554129557E+02 -0.30141952839E+02  0.15521941851E+02  0.52096037899E+02  0.00000000000E+00 0. -1.
         13    1    4    4    0    0  0.21713301493E+02 -0.30401925747E+02  0.10628525609E+03  0.11266010923E+03  0.00000000000E+00 0.  1.
          1    1    1    2  501    0  0.35292273419E+02  0.10691142295E+03  0.31241600198E+03  0.33208335582E+03  0.00000000000E+00 0. -1.
<scales pt_clust_5="13000.00000" pt_clust_6="13000.00000" pt_clust_7="13000.00000" pt_clust_8="13000.00000" pt_clust_9="97.04012"></scales>
<clustering>
<clus scale="   78.740">  5  6 -1 -1</clus>
<clus scale="   91.235">  7  8 -1 -1</clus>
<clus scale="   93.029">  2  5  1 -1</clus>
<clus scale="   97.040">  1  9  2 -1</clus>
<clus scale="   97.040">  1  5  2 -1</clus>
</clustering>
</event>
<event>
 9    2  0.3745229E-005  0.9158642E+02  0.7546771E-02  0.1304757E+00
          4   -1    0    0  502    0 -0.00000000000E+00  0.00000000000E+00  0.40016463849E+03  0.40016463849E+03  0.00000000000E+00 0. -1.
         21   -1    0    0  501  502  0.00000000000E+00 -0.00000000000E+00 -0.52347310854E+02  0.52347310854E+02  0.00000000000E+00 0.  1.
         24    2    1    2    0    0 -0.67885104193E+01 -0.39369877485E+02  0.30617156820E+03  0.31763784966E+03  0.74543297746E+02 0.  0.
         23    2    1    2    0    0 -0.88568930547E+01  0.17650577011E+02  0.57171428637E+02  0.10392974531E+03  0.84515278409E+02 0.  0.
        -13    1    3    3    0    0 -0.98280258409E+01 -0.54458140393E+02  0.13680445638E+03  0.14757282416E+03  0.00000000000E+00 0.  1.
         14    1    3    3    0    0  0.30395154216E+01  0.15088262908E+02  0.16936711182E+03  0.17006502550E+03  0.00000000000E+00 0. -1.
        -11    1    4    4    0    0  0.17921920812E+01 -0.27241819243E+02 -0.36983099693E+01  0.27550066511E+02  0.00000000000E+00 0.  1.
         11    1    4    4    0    0 -0.10649085136E+02  0.44892396254E+02  0.60869738606E+02  0.76379678800E+02  0.00000000000E+00 0. -1.
          3    1    1    2  501    0  0.15645403474E+02  0.21719300474E+02 -0.15525669202E+02  0.30944354366E+02  0.00000000000E+00 0. -1.
<scales pt_clust_5="13000.00000" pt_clust_6="13000.00000" pt_clust_7="13000.00000" pt_clust_8="13000.00000" pt_clust_9="26.76764"></scales>
<clustering>
<clus scale="   26.768">  2  9  1 -1</clus>
<clus scale="   74.543">  5  6 -1 -1</clus>
<clus scale="   82.474">  1  5  2 -1</clus>
<clus scale="   84.515">  7  8 -1 -1</clus>
<clus scale="   26.768">  2  5  1 -1</clus>
</clustering>
</event>
<event>
 9    2  0.3745229E-005  0.3512669E+03  0.7546771E-02  0.1105140E+00
         21   -1    0    0  501  502  0.00000000000E+00  0.00000000000E+00  0.22986820774E+03  0.22986820774E+03  0.00000000000E+00 0.  1.
         -3   -1    0    0    0  501 -0.00000000000E+00 -0.00000000000E+00 -0.98819096435E+03  0.98819096435E+03  0.00000000000E+00 0.  1.
         24    2    1    2    0    0 -0.52710330662E+02  0.55466024366E+02  0.41294765396E+02  0.11842777670E+03  0.80405359442E+02 0.  0.
         23    2    1    2    0    0  0.26724270089E+03  0.21127875450E+03 -0.19002899548E+03  0.40050688102E+03  0.90759954468E+02 0.  0.
        -13    1    3    3    0    0 -0.62883563642E+02  0.62965820165E+02  0.16370649050E+02  0.90482237128E+02  0.00000000000E+00 0.  1.
         14    1    3    3    0    0  0.10173232979E+02 -0.74997957982E+01  0.24924116346E+02  0.27945539570E+02  0.00000000000E+00 0. -1.
        -13    1    4    4    0    0  0.57422126095E+02  0.96945938023E+02 -0.74643121047E+02  0.13515698644E+03  0.00000000000E+00 0. -1.
         13    1    4    4    0    0  0.20982057480E+03  0.11433281648E+03 -0.11538587443E+03  0.26534989457E+03  0.00000000000E+00 0.  1.
         -4    1    1    2    0  502 -0.21453237023E+03 -0.26674477887E+03 -0.60958852653E+03  0.69912451438E+03  0.00000000000E+00 0.  1.
<scales pt_clust_5="13000.00000" pt_clust_6="13000.00000" pt_clust_7="13000.00000" pt_clust_8="13000.00000" pt_clust_9="339.33931"></scales>
<clustering>
<clus scale="   80.405">  5  6 -1 -1</clus>
<clus scale="   90.760">  7  8 -1 -1</clus>
<clus scale="  110.995">  2  5  1 -1</clus>
<clus scale="  339.339">  1  9  2 -1</clus>
<clus scale="  339.339">  1  5  2 -1</clus>
</clustering>
</event>
<event>
 9    2  0.3745229E-005  0.1168639E+03  0.7546771E-02  0.1253981E+00
         -1   -1    0    0    0  501 -0.00000000000E+00  0.00000000000E+00  0.36386899365E+03  0.36386899365E+03  0.00000000000E+00 0.  1.
         21   -1    0    0  501  502  0.00000000000E+00 -0.00000000000E+00 -0.17645633167E+03  0.17645633167E+03  0.00000000000E+00 0.  1.
         23    2    1    2    0    0 -0.16237166522E+02  0.43057113691E+02  0.21555582735E+02  0.10775452052E+03  0.95020171170E+02 0.  0.
         24    2    1    2    0    0  0.10833123342E+03 -0.88587831761E+02 -0.69920258420E+02  0.17538348707E+03  0.79291014173E+02 0.  0.
        -11    1    4    4    0    0  0.11878384513E+03 -0.80229924764E+02 -0.50864277636E+02  0.15209739455E+03  0.00000000000E+00 0.  1.
         12    1    4    4    0    0 -0.10452611709E+02 -0.83579069975E+01 -0.19055980785E+02  0.23286092514E+02  0.00000000000E+00 0. -1.
        -13    1    3    3    0    0 -0.19883668742E+02  0.70249366379E+02  0.30171476553E+02  0.78997795897E+02  0.00000000000E+00 0. -1.
         13    1    3    3    0    0  0.36465022198E+01 -0.27192252688E+02 -0.86158938174E+01  0.28756724622E+02  0.00000000000E+00 0.  1.
         -2    1    1    2    0  502 -0.92094066897E+02  0.45530718070E+02  0.23577733766E+03  0.25718731773E+03  0.00000000000E+00 0.  1.
<scales pt_clust_5="13000.00000" pt_clust_6="13000.00000" pt_clust_7="13000.00000" pt_clust_8="13000.00000" pt_clust_9="102.73448"></scales>
<clustering>
<clus scale="   79.291">  5  6 -1 -1</clus>
<clus scale="   95.020">  7  8 -1 -1</clus>
<clus scale="  102.734">  2  9  1 -1</clus>
<clus scale="  104.477">  2  5  1 -1</clus>
<clus scale="  102.734">  2  5  1 -1</clus>
</clustering>
</event>
<event>
 9    2  0.3745229E-005  0.2489611E+03  0.7546771E-02  0.1114776E+00
         -1   -1    0    0    0  501 -0.00000000000E+00  0.00000000000E+00  0.93261144174E+03  0.93261144174E+03  0.00000000000E+00 0.  1.
         21   -1    0    0  501  502  0.00000000000E+00 -0.00000000000E+00 -0.18098397014E+03  0.18098397014E+03  0.00000000000E+00 0. -1.
         23    2    1    2    0    0 -0.52618076604E+02 -0.21750796027E+03  0.71827764131E+03  0.75798689665E+03  0.92428300419E+02 0.  0.
         24    2    1    2    0    0  0.35864819798E+02  0.27756610475E+03  0.38633670170E+02  0.29303398930E+03  0.77763298609E+02 0.  0.
        -11    1    4    4    0    0  0.22944523497E+02  0.36585605172E+02 -0.15188644474E+02  0.45778298191E+02  0.00000000000E+00 0.  1.
         12    1    4    4    0    0  0.12920296301E+02  0.24098049958E+03  0.53822314644E+02  0.24725569111E+03  0.00000000000E+00 0. -1.
        -13    1    3    3    0    0 -0.99466717230E+01 -0.15329996103E+03  0.57635042335E+03  0.59647265220E+03  0.00000000000E+00 0.  1.
         13    1    3    3    0    0 -0.42671404881E+02 -0.64207999241E+02  0.14192721796E+03  0.16151424445E+03  0.00000000000E+00 0. -1.
         -2    1    1    2    0  502  0.16753256806E+02 -0.60058144478E+02 -0.52838398766E+01  0.62574525932E+02  0.00000000000E+00 0.  1.
<scales pt_clust_5="13000.00000" pt_clust_6="13000.00000" pt_clust_7="13000.00000" pt_clust_8="13000.00000" pt_clust_9="62.35104"></scales>
<clustering>
<clus scale="   62.351">  2  9  1 -1</clus>
<clus scale="   77.763">  5  6 -1 -1</clus>
<clus scale="   92.428">  7  8 -1 -1</clus>
<clus scale="  243.897">  2  5  1 -1</clus>
<clus scale="   62.351">  2  5  1 -1</clus>
</clustering>
</event>
<event>
 9    2  0.3745229E-005  0.2680042E+03  0.7546771E-02  0.1102427E+00
          4   -1    0    0  502    0 -0.00000000000E+00  0.00000000000E+00  0.26834648853E+03  0.26834648853E+03  0.00000000000E+00 0. -1.
         21   -1    0    0  501  502  0.00000000000E+00 -0.00000000000E+00 -0.24981199019E+03  0.24981199019E+03  0.00000000000E+00 0. -1.
         24    2    1    2    0    0 -0.26901397767E+02 -0.11586353527E+03  0.39329114707E+02  0.14649132726E+03  0.75926844328E+02 0.  0.
         23    2    1    2    0    0 -0.59798801906E+02 -0.51701677061E+02  0.91888425919E+02  0.15191162132E+03  0.91567995256E+02 0.  0.
        -11    1    3    3    0    0 -0.60040747162E+01 -0.27338111885E+02 -0.22999154654E+02  0.36226818649E+02  0.00000000000E+00 0.  1.
         12    1    3    3    0    0 -0.20897323051E+02 -0.88525423390E+02  0.62328269360E+02  0.11026450861E+03  0.00000000000E+00 0. -1.
        -11    1    4    4    0    0 -0.31947908846E+02 -0.40680882950E+02  0.10664070805E+03  0.11852359989E+03  0.00000000000E+00 0.  1.
         11    1    4    4    0    0 -0.27850893060E+02 -0.11020794111E+02 -0.14752282133E+02  0.33388021433E+02  0.00000000000E+00 0. -1.
          3    1    1    2  501    0  0.86700199673E+02  0.16756521234E+03 -0.11268304229E+03  0.21975553014E+03  0.00000000000E+00 0. -1.
<scales pt_clust_5="13000.00000" pt_clust_6="13000.00000" pt_clust_7="13000.00000" pt_clust_8="13000.00000" pt_clust_9="188.66644"></scales>
<clustering>
<clus scale="   75.927">  5  6 -1 -1</clus>
<clus scale="   91.568">  7  8 -1 -1</clus>
<clus scale="  116.774">  5  7 -1 -1</clus>
<clus scale="  188.666">  2  9  1 -1</clus>
<clus scale="  188.666">  2  5  1 -1</clus>
</clustering>
</event>
<event>
 9    2  0.3745229E-005  0.9836527E+02  0.7546771E-02  0.1290784E+00
         21   -1    0    0  501  502  0.00000000000E+00  0.00000000000E+00  0.51135360760E+02  0.51135360760E+02  0.00000000000E+00 0.  1.
          2   -1    0    0  502    0 -0.00000000000E+00 -0.00000000000E+00 -0.39901281399E+03  0.39901281399E+03  0.00000000000E+00 0. -1.
         23    2    1    2    0    0 -0.95467684303E+01  0.25936324788E+02 -0.29061050116E+03  0.30625399586E+03  0.92591645757E+02 0.  0.
         24    2    1    2    0    0 -0.16941469443E+01 -0.56354461241E+02 -0.53568792425E+02  0.11125528203E+03  0.79557694931E+02 0.  0.
        -11    1    4    4    0    0 -0.15191296476E+02 -0.67622607735E+02 -0.18045240891E+02  0.71618595939E+02  0.00000000000E+00 0.  1.
         12    1    4    4    0    0  0.13497149532E+02  0.11268146494E+02 -0.35523551534E+02  0.39636686093E+02  0.00000000000E+00 0. -1.
        -13    1    3    3    0    0  0.32876582632E+02  0.28537643148E+02 -0.76989619120E+02  0.88445849050E+02  0.00000000000E+00 0.  1.
         13    1    3    3    0    0 -0.42423351062E+02 -0.26013183601E+01 -0.21362088204E+03  0.21780814681E+03  0.00000000000E+00 0. -1.
          1    1    1    2  501    0  0.11240915375E+02  0.30418136453E+02 -0.36981596518E+01  0.32638896865E+02  0.00000000000E+00 0. -1.
<scales pt_clust_5="13000.00000" pt_clust_6="13000.00000" pt_clust_7="13000.00000" pt_clust_8="13000.00000" pt_clust_9="32.42871"></scales>
<clustering>
<clus scale="   32.429">  1  9  2 -1</clus>
<clus scale="   79.558">  5  6 -1 -1</clus>
<clus scale="   86.209">  1  5  2 -1</clus>
<clus scale="   92.592">  7  8 -1 -1</clus>
<clus scale="   32.429">  1  5  2 -1</clus>
</clustering>
</event>
<event>
 9    2  0.3745229E-005  0.9076338E+02  0.7546771E-02  0.1305450E+00
         -1   -1    0    0    0  501 -0.00000000000E+00  0.00000000000E+00  0.14082659193E+03  0.14082659193E+03  0.00000000000E+00 0.  1.
         21   -1    0    0  501  502  0.00000000000E+00 -0.00000000000E+00 -0.33115351320E+03  0.33115351320E+03  0.00000000000E+00 0.  1.
         24    2    1    2    0    0  0.49520567971E+01  0.99905430148E+01  0.11494858929E+03  0.14209782135E+03  0.82790572138E+02 0.  0.
         23    2    1    2    0    0  0.19602323236E+01 -0.28935213218E+02 -0.18310760049E+03  0.20606112839E+03  0.89953911552E+02 0.  0.
        -13    1    3    3    0    0  0.11244930647E+02 -0.26850413978E+02  0.10141261840E+02  0.30825936932E+02  0.00000000000E+00 0.  1.
         14    1    3    3    0    0 -0.62928738504E+01  0.36840956992E+02  0.10480732745E+03  0.11127188441E+03  0.00000000000E+00 0. -1.
        -11    1    4    4    0    0 -0.23654329214E+02 -0.39326141564E+02 -0.41799169736E+02  0.62074497916E+02  0.00000000000E+00 0.  1.
         11    1    4    4    0    0  0.25614561538E+02  0.10390928346E+02 -0.14130843075E+03  0.14398663048E+03  0.00000000000E+00 0. -1.
         -2    1    1    2    0  502 -0.69122891207E+01  0.18944670203E+02 -0.12216791007E+03  0.12382115539E+03  0.00000000000E+00 0.  1.
<scales pt_clust_5="13000.00000" pt_clust_6="13000.00000" pt_clust_7="13000.00000" pt_clust_8="13000.00000" pt_clust_9="20.16632"></scales>
<clustering>
<clus scale="   20.166">  2  9  1 -1</clus>
<clus scale="   82.791">  5  6 -1 -1</clus>
<clus scale="   83.669">  1  5  2 -1</clus>
<clus scale="   89.954">  7  8 -1 -1</clus>
<clus scale="   20.166">  2  5  1 -1</clus>
</clustering>
</event>
<event>
 9    2  0.3745229E-005  0.9731277E+02  0.7546771E-02  0.1292442E+00
          2   -1    0    0  502    0 -0.00000000000E+00  0.00000000000E+00  0.36022773076E+03  0.36022773076E+03  0.00000000000E+00 0. -1.
         21   -1    0    0  501  502  0.00000000000E+00 -0.00000000000E+00 -0.75070687026E+02  0.75070687026E+02  0.00000000000E+00 0. -1.
         23    2    1    2    0    0 -0.26680540584E+01  0.35453345886E+02  0.29675291052E+03  0.31259622538E+03  0.91597226895E+02 0.  0.
         24    2    1    2    0    0  0.16786744765E+02 -0.19510943850E+02  0.18450749224E+02  0.85874258131E+02  0.79821590643E+02 0.  0.
        -11    1    4    4    0    0  0.21978206190E+02  0.52261945719E+01 -0.26182176782E+02  0.34581223780E+02  0.00000000000E+00 0.  1.
         12    1    4    4    0    0 -0.51914614251E+01 -0.24737138422E+02  0.44632926006E+02  0.51293034351E+02  0.00000000000E+00 0. -1.
        -11    1    3    3    0    0  0.12707194683E+02  0.55912543177E+02  0.26816461271E+03  0.27422608336E+03  0.00000000000E+00 0. -1.
         11    1    3    3    0    0 -0.15375248742E+02 -0.20459197291E+02  0.28588297803E+02  0.38370142024E+02  0.00000000000E+00 0.  1.
          1    1    1    2  501    0 -0.14118690707E+02 -0.15942402036E+02 -0.30046616003E+02  0.36827934278E+02  0.00000000000E+00 0. -1.
<scales pt_clust_5="13000.00000" pt_clust_6="13000.00000" pt_clust_7="13000.00000" pt_clust_8="13000.00000" pt_clust_9="21.29548"></scales>
<clustering>
<clus scale="   21.295">  2  9  1 -1</clus>
<clus scale="   79.822">  5  6 -1 -1</clus>
<clus scale="   86.320">  2  5  1 -1</clus>
<clus scale="   91.597">  7  8 -1 -1</clus>
<clus scale="   21.295">  2  5  1 -1</clus>
</clustering>
</event>
<event>
 9    2  0.3745229E-005  0.9420973E+02  0.7546771E-02  0.1299126E+00
         21   -1    0    0  501  502  0.00000000000E+00  0.00000000000E+00  0.18362016721E+03  0.18362016721E+03  0.00000000000E+00 0. -1.
         -1   -1    0    0    0  501 -0.00000000000E+00 -0.00000000000E+00 -0.11888237596E+03  0.11888237596E+03  0.00000000000E+00 0.  1.
         23    2    1    2    0    0 -0.39444515306E+02 -0.16339110096E+01  0.34520494534E+02  0.10468385170E+03  0.90600799171E+02 0.  0.
         24    2    1    2    0    0 -0.83734639874E+01  0.38005213004E+02  0.80131399932E+02  0.11971076324E+03  0.79969459574E+02 0.  0.
        -13    1    4    4    0    0 -0.25893289376E+02  0.40117001342E+02  0.11864033919E+02  0.49199507438E+02  0.00000000000E+00 0.  1.
         14    1    4    4    0    0  0.17519825388E+02 -0.21117883374E+01  0.68267366014E+02  0.70511255797E+02  0.00000000000E+00 0. -1.
        -11    1    3    3    0    0 -0.36260697578E+02  0.27448922259E+02  0.53187019001E+02  0.69979572107E+02  0.00000000000E+00 0. -1.
         11    1    3    3    0    0 -0.31838177277E+01 -0.29082833268E+02 -0.18666524467E+02  0.34704279591E+02  0.00000000000E+00 0.  1.
         -2    1    1    2    0  502  0.47817979293E+02 -0.36371301995E+02 -0.49914103216E+02  0.78107928230E+02  0.00000000000E+00 0.  1.
<scales pt_clust_5="13000.00000" pt_clust_6="13000.00000" pt_clust_7="13000.00000" pt_clust_8="13000.00000" pt_clust_9="60.07857"></scales>
<clustering>
<clus scale="   60.079">  1  9  2 -1</clus>
<clus scale="   79.969">  5  6 -1 -1</clus>
<clus scale="   84.036">  1  5  2 -1</clus>
<clus scale="   90.601">  7  8 -1 -1</clus>
<clus scale="   60.079">  1  5  2 -1</clus>
</clustering>
</event>
<event>
 9    2  0.3745229E-005  0.1801978E+03  0.7546771E-02  0.1168906E+00
         21   -1    0    0  501  502  0.00000000000E+00  0.00000000000E+00  0.62880297164E+03  0.62880297164E+03  0.00000000000E+00 0.  1.
         -1   -1    0    0    0  501 -0.00000000000E+00 -0.00000000000E+00 -0.22063344034E+03  0.22063344034E+03  0.00000000000E+00 0.  1.
         24    2    1    2    0    0 -0.36926057274E+02 -0.15652736992E+03 -0.15948517229E+03  0.24054613104E+03  0.81009689169E+02 0.  0.
         23    2    1    2    0    0  0.20587392314E+02  0.11244773949E+03  0.26731964965E+03  0.30489832312E+03  0.91841480353E+02 0.  0.
        -13    1    3    3    0    0 -0.61714213923E+02 -0.12603385654E+03 -0.13136589772E+03  0.19222428639E+03  0.00000000000E+00 0.  1.
         14    1    3    3    0    0  0.24788156649E+02 -0.30493513380E+02 -0.28119274576E+02  0.48321844656E+02  0.00000000000E+00 0. -1.
        -13    1    4    4    0    0  0.35495478360E+02  0.23897304838E+01  0.64445679157E+02  0.73613078715E+02  0.00000000000E+00 0.  1.
         13    1    4    4    0    0 -0.14908086046E+02  0.11005800901E+03  0.20287397050E+03  0.23128524441E+03  0.00000000000E+00 0. -1.
         -2    1    1    2    0  502  0.16338664960E+02  0.44079630429E+02  0.30033505393E+03  0.30399195781E+03  0.00000000000E+00 0.  1.
<scales pt_clust_5="13000.00000" pt_clust_6="13000.00000" pt_clust_7="13000.00000" pt_clust_8="13000.00000" pt_clust_9="47.01027"></scales>
<clustering>
<clus scale="   47.010">  1  9  2 -1</clus>
<clus scale="   81.010">  5  6 -1 -1</clus>
<clus scale="   91.841">  7  8 -1 -1</clus>
<clus scale="  174.926">  2  5  1 -1</clus>
<clus scale="   47.010">  1  5  2 -1</clus>
</clustering>
</event>
<event>
 9    2  0.3745229E-005  0.9459133E+02  0.7546771E-02  0.1298965E+00
         21   -1    0    0  501  502  0.00000000000E+00  0.00000000000E+00  0.41496296705E+03  0.41496296705E+03  0.00000000000E+00 0.  1.
         -3   -1    0    0    0  501 -0.00000000000E+00 -0.00000000000E+00 -0.45742197187E+02  0.45742197187E+02  0.00000000000E+00 0.  1.
         23    2    1    2    0    0 -0.39995904721E+02  0.10034049691E+02  0.48643464107E+02  0.10978615791E+03  0.89366992348E+02 0.  0.
         24    2    1    2    0    0  0.33064708336E+00 -0.30910308068E+02  0.12435083359E+03  0.14963815973E+03  0.77284491073E+02 0.  0.
        -13    1    4    4    0    0 -0.37666541334E+02 -0.15678100186E+02  0.47927478309E+02  0.62941356345E+02  0.00000000000E+00 0.  1.
         14    1    4    4    0    0  0.37997188418E+02 -0.15232207882E+02  0.76423355285E+02  0.86696803387E+02  0.00000000000E+00 0. -1.
        -13    1    3    3    0    0 -0.35315581848E+02 -0.36998712879E+02  0.26013475748E+02  0.57382889405E+02  0.00000000000E+00 0.  1.
         13    1    3    3    0    0 -0.46803228732E+01  0.47032762570E+02  0.22629988359E+02  0.52403268508E+02  0.00000000000E+00 0. -1.
         -4    1    1    2    0  502  0.39665257638E+02  0.20876258377E+02  0.19622647216E+03  0.20128084659E+03  0.00000000000E+00 0.  1.
<scales pt_clust_5="13000.00000" pt_clust_6="13000.00000" pt_clust_7="13000.00000" pt_clust_8="13000.00000" pt_clust_9="44.82355"></scales>
<clustering>
<clus scale="   44.824">  1  9  2 -1</clus>
<clus scale="   77.284">  5  6 -1 -1</clus>
<clus scale="   83.270">  1  5  2 -1</clus>
<clus scale="   89.367">  7  8 -1 -1</clus>
<clus scale="   44.824">  1  5  2 -1</clus>
</clustering>
</event>
<event>
 9    2  0.3745229E-005  0.9761635E+02  0.7546771E-02  0.1292006E+00
          2   -1    0    0  502    0 -0.00000000000E+00  0.00000000000E+00  0.25748565318E+03  0.25748565318E+03  0.00000000000E+00 0. -1.
         21   -1    0    0  501  502  0.00000000000E+00 -0.00000000000E+00 -0.29669713270E+03  0.29669713270E+03  0.00000000000E+00 0. -1.
         23    2    1    2    0    0 -0.13492834760E+02 -0.25709753427E+02  0.23472563975E+03  0.25409312839E+03  0.92866269042E+02 0.  0.
         24    2    1    2    0    0  0.20359340354E+02  0.49753592765E+02 -0.20657075630E+03  0.22823228507E+03  0.80799603086E+02 0.  0.
        -11    1    4    4    0    0 -0.23571041291E+02  0.83470502990E+01 -0.19642615257E+02  0.31797791910E+02  0.00000000000E+00 0.  1.
         12    1    4    4    0    0  0.43930381645E+02  0.41406542466E+02 -0.18692814104E+03  0.19643449316E+03  0.00000000000E+00 0. -1.
        -13    1    3    3    0    0  0.27995990255E+02 -0.43299187736E+02  0.11024624884E+03  0.12170797226E+03  0.00000000000E+00 0.  1.
         13    1    3    3    0    0 -0.41488825016E+02  0.17589434309E+02  0.12447939092E+03  0.13238515613E+03  0.00000000000E+00 0. -1.
          1    1    1    2  501    0 -0.68665055935E+01 -0.24043839338E+02 -0.67366362980E+02  0.71857372414E+02  0.00000000000E+00 0. -1.
<scales pt_clust_5="13000.00000" pt_clust_6="13000.00000" pt_clust_7="13000.00000" pt_clust_8="13000.00000" pt_clust_9="25.00510"></scales>
<clustering>
<clus scale="   25.005">  2  9  1 -1</clus>
<clus scale="   80.800">  5  6 -1 -1</clus>
<clus scale="   86.217">  2  5  1 -1</clus>
<clus scale="   92.866">  7  8 -1 -1</clus>
<clus scale="   25.005">  2  5  1 -1</clus>
</clustering>
</event>
<event>
 9    2  0.3745229E-005  0.1072361E+03  0.7546771E-02  0.1272536E+00
         21   -1    0    0  501  502  0.00000000000E+00  0.00000000000E+00  0.10835552342E+03  0.10835552342E+03  0.00000000000E+00 0. -1.
          4   -1    0    0  502    0 -0.00000000000E+00 -0.00000000000E+00 -0.13687621545E+03  0.13687621545E+03  0.00000000000E+00 0. -1.
         23    2    1    2    0    0 -0.39941707782E+02 -0.36259438429E+02 -0.55064079338E+02  0.12266725711E+03  0.95420732740E+02 0.  0.
         24    2    1    2    0    0  0.39359541875E+02  0.13252099858E+02  0.36440516121E+02  0.97511942891E+02  0.80348466718E+02 0.  0.
        -11    1    4    4    0    0 -0.16654371557E+02  0.27863835336E+02  0.10937232340E+02  0.34254699865E+02  0.00000000000E+00 0.  1.
         12    1    4    4    0    0  0.56013913432E+02 -0.14611735478E+02  0.25503283782E+02  0.63257243026E+02  0.00000000000E+00 0. -1.
        -11    1    3    3    0    0  0.25994501630E+02 -0.10074935385E+02  0.66223024205E+01  0.28654377106E+02  0.00000000000E+00 0.  1.
         11    1    3    3    0    0 -0.65936209412E+02 -0.26184503044E+02 -0.61686381758E+02  0.94012879999E+02  0.00000000000E+00 0. -1.
          3    1    1    2  501    0  0.58216590715E+00  0.23007338572E+02 -0.98971288165E+01  0.25052538875E+02  0.00000000000E+00 0. -1.
<scales pt_clust_5="13000.00000" pt_clust_6="13000.00000" pt_clust_7="13000.00000" pt_clust_8="13000.00000" pt_clust_9="23.01471"></scales>
<clustering>
<clus scale="   23.015">  1  9  2 -1</clus>
<clus scale="   80.348">  5  6 -1 -1</clus>
<clus scale="   94.076">  1  5  2 -1</clus>
<clus scale="   95.421">  7  8 -1 -1</clus>
<clus scale="   23.015">  1  5  2 -1</clus>
</clustering>
</event>
<event>
 9    2  0.3745229E-005  0.1292217E+03  0.7546771E-02  0.1247571E+00
         -1   -1    0    0    0  501 -0.00000000000E+00  0.00000000000E+00  0.26327759716E+02  0.26327759716E+02  0.00000000000E+00 0.  1.
         21   -1    0    0  501  502  0.00000000000E+00 -0.00000000000E+00 -0.94848255241E+03  0.94848255241E+03  0.00000000000E+00 0.  1.
         24    2    1    2    0    0  0.38485337961E+01  0.37402125310E+02 -0.34770727305E+03  0.35862659643E+03  0.79365973436E+02 0.  0.
         23    2    1    2    0    0 -0.13273609208E+02  0.68505303149E+02 -0.27700410944E+03  0.30030747772E+03  0.92650630148E+02 0.  0.
        -13    1    3    3    0    0 -0.32469514779E+02  0.35732048795E+00 -0.18564552797E+03  0.18846394648E+03  0.00000000000E+00 0.  1.
         14    1    3    3    0    0  0.36318048575E+02  0.37044804822E+02 -0.16206174508E+03  0.17016264994E+03  0.00000000000E+00 0. -1.
        -13    1    4    4    0    0  0.31174073519E+02  0.42260476664E+02 -0.20559543928E+03  0.21219626622E+03  0.00000000000E+00 0. -1.
         13    1    4    4    0    0 -0.44447682726E+02  0.26244826485E+02 -0.71408670167E+02  0.88111211500E+02  0.00000000000E+00 0.  1.
         -2    1    1    2    0  502  0.94250754116E+01 -0.10590742846E+03 -0.29744341019E+03  0.31587623798E+03  0.00000000000E+00 0.  1.
<scales pt_clust_5="13000.00000" pt_clust_6="13000.00000" pt_clust_7="13000.00000" pt_clust_8="13000.00000" pt_clust_9="90.07839"></scales>
<clustering>
<clus scale="   79.366">  5  6 -1 -1</clus>
<clus scale="   87.822">  1  5  2 -1</clus>
<clus scale="   90.078">  2  9  1 -1</clus>
<clus scale="   92.651">  7  8 -1 -1</clus>
<clus scale="   90.078">  2  5  1 -1</clus>
</clustering>
</event>
<event>
 9    2  0.4721249E-005  0.1095526E+03  0.7546771E-02  0.1265989E+00
          2   -1    0    0  502    0 -0.00000000000E+00  0.00000000000E+00  0.84897794594E+03  0.84897794594E+03  0.00000000000E+00 0. -1.
         21   -1    0    0  501  502  0.00000000000E+00 -0.00000000000E+00 -0.64645333467E+02  0.64645333467E+02  0.00000000000E+00 0. -1.
         24    2    1    2    0    0 -0.45519365580E+02 -0.39574964823E+02  0.68520138626E+03  0.69255776146E+03  0.80604731500E+02 0.  0.
         23    2    1    2    0    0  0.62989982233E+02  0.84382373270E+01  0.13167589243E+03  0.17275533740E+03  0.92015891248E+02 0.  0.
        -13    1    3    3    0    0 -0.16301621605E+02 -0.11669182254E+02  0.29822020531E+02  0.35934184143E+02  0.00000000000E+00 0.  1.
         14    1    3    3    0    0 -0.29217743975E+02 -0.27905782568E+02  0.65537936573E+03  0.65662357731E+03  0.00000000000E+00 0. -1.
        -13    1    4    4    0    0  0.48280700771E+02 -0.36944728426E+02  0.94086114942E+02  0.11201846299E+03  0.00000000000E+00 0. -1.
         13    1    4    4    0    0  0.14709281462E+02  0.45382965753E+02  0.37589777486E+02  0.60736874411E+02  0.00000000000E+00 0.  1.
          1    1    1    2  501    0 -0.17470616653E+02  0.31136727496E+02 -0.32544666217E+02  0.48310180547E+02  0.00000000000E+00 0. -1.
<scales pt_clust_5="13000.00000" pt_clust_6="13000.00000" pt_clust_7="13000.00000" pt_clust_8="13000.00000" pt_clust_9="35.70320"></scales>
<clustering>
<clus scale="   35.703">  2  9  1 -1</clus>
<clus scale="   80.605">  5  6 -1 -1</clus>
<clus scale="   92.016">  7  8 -1 -1</clus>
<clus scale="  100.160">  1  5  2 -1</clus>
<clus scale="   35.703">  2  5  1 -1</clus>
</clustering>
</event>
<event>
 9    2  0.3745229E-005  0.1550757E+03  0.7546771E-02  0.1196882E+00
         21   -1    0    0  501  502  0.00000000000E+00  0.00000000000E+00  0.63845991681E+02  0.63845991681E+02  0.00000000000E+00 0.  1.
          2   -1    0    0  502    0 -0.00000000000E+00 -0.00000000000E+00 -0.56700397654E+03  0.56700397654E+03  0.00000000000E+00 0. -1.
         23    2    1    2    0    0 -0.27029954303E+02 -0.14795639170E+03 -0.23886193027E+03  0.29754696644E+03  0.94114096883E+02 0.  0.
         24    2    1    2    0    0  0.29876306062E+02  0.91517448361E+02 -0.10160984019E+03  0.16108145725E+03  0.79715991048E+02 0.  0.
        -11    1    4    4    0    0  0.49128882841E+02  0.92660647316E+02 -0.92098681813E+02  0.13957725417E+03  0.00000000000E+00 0.  1.
         12    1    4    4    0    0 -0.19252576779E+02 -0.11431989551E+01 -0.95111583750E+01  0.21504203080E+02  0.00000000000E+00 0. -1.
        -13    1    3    3    0    0 -0.60411479623E+02 -0.10455869459E+03 -0.18362356832E+03  0.21977188703E+03  0.00000000000E+00 0.  1.
         13    1    3    3    0    0  0.33381525320E+02 -0.43397697113E+02 -0.55238361947E+02  0.77775079414E+02  0.00000000000E+00 0. -1.
          1    1    1    2  501    0 -0.28463517585E+01  0.56438943337E+02 -0.16268621440E+03  0.17222154453E+03  0.00000000000E+00 0. -1.
<scales pt_clust_5="13000.00000" pt_clust_6="13000.00000" pt_clust_7="13000.00000" pt_clust_8="13000.00000" pt_clust_9="56.51070"></scales>
<clustering>
<clus scale="   56.511">  1  9  2 -1</clus>
<clus scale="   79.716">  5  6 -1 -1</clus>
<clus scale="   94.114">  7  8 -1 -1</clus>
<clus scale="  146.784">  1  5  2 -1</clus>
<clus scale="   56.511">  1  5  2 -1</clus>
</clustering>
</event>
<event>
 9    2  0.3745229E-005  0.9400216E+02  0.7546771E-02  0.1299476E+00
         21   -1    0    0  501  502  0.00000000000E+00  0.00000000000E+00  0.16826516909E+03  0.16826516909E+03  0.00000000000E+00 0.  1.
         -1   -1    0    0    0  501 -0.00000000000E+00 -0.00000000000E+00 -0.58072007636E+03  0.58072007636E+03  0.00000000000E+00 0.  1.
         24    2    1    2    0    0  0.16589203691E+02  0.10514884729E+02 -0.52321404889E+03  0.52984840044E+03  0.81244212184E+02 0.  0.
         23    2    1    2    0    0 -0.37151479484E+02 -0.40319160696E+02  0.43759138555E+01  0.10676027627E+03  0.91502682040E+02 0.  0.
        -11    1    3    3    0    0 -0.17003785075E+02 -0.20682868671E+02 -0.82040586153E+02  0.86299290494E+02  0.00000000000E+00 0.  1.
         12    1    3    3    0    0  0.33592988766E+02  0.31197753400E+02 -0.44117346274E+03  0.44354910995E+03  0.00000000000E+00 0. -1.
        -11    1    4    4    0    0 -0.15241894517E+02 -0.68762603049E+02 -0.11085476891E+01  0.70440327970E+02  0.00000000000E+00 0.  1.
         11    1    4    4    0    0 -0.21909584967E+02  0.28443442352E+02  0.54844615446E+01  0.36319948303E+02  0.00000000000E+00 0. -1.
         -2    1    1    2    0  502  0.20562275793E+02  0.29804275967E+02  0.10638322776E+03  0.11237656874E+03  0.00000000000E+00 0.  1.
<scales pt_clust_5="13000.00000" pt_clust_6="13000.00000" pt_clust_7="13000.00000" pt_clust_8="13000.00000" pt_clust_9="36.20914"></scales>
<clustering>
<clus scale="   36.209">  1  9  2 -1</clus>
<clus scale="   81.244">  5  6 -1 -1</clus>
<clus scale="   84.049">  2  5  1 -1</clus>
<clus scale="   91.503">  7  8 -1 -1</clus>
<clus scale="   36.209">  1  5  2 -1</clus>
</clustering>
</event>
<event>
 9    2  0.3745229E-005  0.1383313E+03  0.7546771E-02  0.1221925E+00
          2   -1    0    0  502    0 -0.00000000000E+00  0.00000000000E+00  0.69464291910E+03  0.69464291910E+03  0.00000000000E+00 0. -1.
         21   -1    0    0  501  502  0.00000000000E+00 -0.00000000000E+00 -0.21523579260E+03  0.21523579260E+03  0.00000000000E+00 0. -1.
         23    2    1    2    0    0 -0.63842165659E+02 -0.46747151377E+02  0.19093805099E+03  0.22608883558E+03  0.91638987227E+02 0.  0.
         24    2    1    2    0    0  0.15965489649E+03 -0.29076163307E+02  0.44927480717E+03  0.48183013316E+03  0.63065962412E+02 0.  0.
        -13    1    4    4    0    0  0.97965074719E+01 -0.20833174942E+02  0.44023732696E+02  0.49679792444E+02  0.00000000000E+00 0.  1.
         14    1    4    4    0    0  0.14985838902E+03 -0.82429883657E+01  0.40525107447E+03  0.43215034072E+03  0.00000000000E+00 0. -1.
        -11    1    3    3    0    0 -0.38050594480E+02  0.12758006984E+02  0.23446563259E+02  0.46479627916E+02  0.00000000000E+00 0. -1.
         11    1    3    3    0    0 -0.25791571178E+02 -0.59505158361E+02  0.16749148773E+03  0.17960920766E+03  0.00000000000E+00 0.  1.
          1    1    1    2  501    0 -0.95812730835E+02  0.75823314684E+02 -0.16080573166E+03  0.20195974296E+03  0.00000000000E+00 0. -1.
<scales pt_clust_5="13000.00000" pt_clust_6="13000.00000" pt_clust_7="13000.00000" pt_clust_8="13000.00000" pt_clust_9="123.11880"></scales>
<clustering>
<clus scale="   63.066">  5  6 -1 -1</clus>
<clus scale="   91.639">  7  8 -1 -1</clus>
<clus scale="  121.074">  1  7  2 -1</clus>
<clus scale="  123.119">  2  9  1 -1</clus>
<clus scale="  123.119">  2  5  1 -1</clus>
</clustering>
</event>
<event>
 9    2  0.3745229E-005  0.9967412E+02  0.7546771E-02  0.1287357E+00
          2   -1    0    0  502    0 -0.00000000000E+00  0.00000000000E+00  0.69244566847E+03  0.69244566847E+03  0.00000000000E+00 0. -1.
         21   -1    0    0  501  502  0.00000000000E+00 -0.00000000000E+00 -0.22222316093E+02  0.22222316093E+02  0.00000000000E+00 0.  1.
         23    2    1    2    0    0 -0.25033696183E+02  0.37947218418E+02  0.48357718964E+03  0.49426111432E+03  0.91544925908E+02 0.  0.
         24    2    1    2    0    0  0.25156670303E+02 -0.99830417021E+01  0.10560281122E+03  0.13467452438E+03  0.79074361188E+02 0.  0.
        -11    1    4    4    0    0  0.62501742162E+01 -0.41086839659E+02  0.31614809973E+02  0.52217710410E+02  0.00000000000E+00 0.  1.
         12    1    4    4    0    0  0.18906496087E+02  0.31103797956E+02  0.73988001251E+02  0.82456813974E+02  0.00000000000E+00 0. -1.
        -11    1    3    3    0    0  0.30171858617E+02  0.30846163067E+02  0.15042323772E+03  0.15648954366E+03  0.00000000000E+00 0.  1.
         11    1    3    3    0    0 -0.55205554800E+02  0.71010553510E+01  0.33315395191E+03  0.33777157065E+03  0.00000000000E+00 0. -1.
          1    1    1    2  501    0 -0.12297411975E+00 -0.27964176715E+02  0.81043351518E+02  0.85732345864E+02  0.00000000000E+00 0. -1.
<scales pt_clust_5="13000.00000" pt_clust_6="13000.00000" pt_clust_7="13000.00000" pt_clust_8="13000.00000" pt_clust_9="27.96446"></scales>
<clustering>
<clus scale="   27.964">  2  9  1 -1</clus>
<clus scale="   79.074">  5  6 -1 -1</clus>
<clus scale="   88.358">  2  5  1 -1</clus>
<clus scale="   91.545">  7  8 -1 -1</clus>
<clus scale="   27.964">  2  5  1 -1</clus>
</clustering>
</event>
<event>
 9    2  0.3745229E-005  0.9389741E+02  0.7546771E-02  0.1295893E+00
         21   -1    0    0  501  502  0.00000000000E+00  0.00000000000E+00  0.16363283102E+03  0.16363283102E+03  0.00000000000E+00 0.  1.
         -1   -1    0    0    0  501 -0.00000000000E+00 -0.00000000000E+00 -0.13185203583E+03  0.13185203583E+03  0.00000000000E+00 0.  1.
         24    2    1    2    0    0  0.24916291971E+02 -0.29284816469E+02 -0.12637012432E+02  0.97940755853E+02  0.89186745051E+02 0.  0.
         23    2    1    2    0    0  0.88512230212E+01 -0.48531940937E+02  0.39920182494E+02  0.11259753111E+03  0.93010158598E+02 0.  0.
        -13    1    3    3    0    0 -0.30190855726E+02  0.70921495084E+01 -0.58780483361E+01  0.31564819124E+02  0.00000000000E+00 0.  1.
         14    1    3    3    0    0  0.55107147697E+02 -0.36376965978E+02 -0.67589640955E+01  0.66375936729E+02  0.00000000000E+00 0. -1.
        -13    1    4    4    0    0  0.40685285401E+02 -0.56325321443E+01  0.42513996126E+02  0.59113938569E+02  0.00000000000E+00 0.  1.
         13    1    4    4    0    0 -0.31834062380E+02 -0.42899408792E+02 -0.25938136323E+01  0.53483592545E+02  0.00000000000E+00 0. -1.
         -2    1    1    2    0  502 -0.33767514993E+02  0.77816757406E+02  0.44976251363E+01  0.84946579883E+02  0.00000000000E+00 0.  1.
<scales pt_clust_5="13000.00000" pt_clust_6="13000.00000" pt_clust_7="13000.00000" pt_clust_8="13000.00000" pt_clust_9="84.82747"></scales>
<clustering>
<clus scale="   84.827">  1  9  2 -1</clus>
<clus scale="   89.187">  5  6 -1 -1</clus>
<clus scale="   90.112">  2  5  1 -1</clus>
<clus scale="   93.010">  7  8 -1 -1</clus>
<clus scale="   84.827">  1  5  2 -1</clus>
</clustering>
</event>
<event>
 9    2  0.3745229E-005  0.1027105E+03  0.7546771E-02  0.1279778E+00
          2   -1    0    0  502    0 -0.00000000000E+00  0.00000000000E+00  0.47464098865E+03  0.47464098865E+03  0.00000000000E+00 0. -1.
         21   -1    0    0  501  502  0.00000000000E+00 -0.00000000000E+00 -0.45666959970E+02  0.45666959970E+02  0.00000000000E+00 0.  1.
         23    2    1    2    0    0 -0.36378479973E+02 -0.31295559381E+02  0.29081768734E+03  0.30858009485E+03  0.91345179550E+02 0.  0.
         24    2    1    2    0    0  0.46564588396E+02  0.12716331878E+02  0.15729518000E+03  0.18317545204E+03  0.80507804534E+02 0.  0.
        -13    1    4    4    0    0  0.51643468523E+02  0.35109922979E+02  0.74277829254E+02  0.97040973054E+02  0.00000000000E+00 0.  1.
         14    1    4    4    0    0 -0.50788801267E+01 -0.22393591101E+02  0.83017350742E+02  0.86134478985E+02  0.00000000000E+00 0. -1.
        -13    1    3    3    0    0 -0.30058425025E+02  0.25066352189E+02  0.17867622660E+03  0.18291261542E+03  0.00000000000E+00 0. -1.
         13    1    3    3    0    0 -0.63200549480E+01 -0.56361911570E+02  0.11214146074E+03  0.12566747943E+03  0.00000000000E+00 0.  1.
          1    1    1    2  501    0 -0.10186108423E+02  0.18579227503E+02 -0.19138838656E+02  0.28552401729E+02  0.00000000000E+00 0. -1.
<scales pt_clust_5="13000.00000" pt_clust_6="13000.00000" pt_clust_7="13000.00000" pt_clust_8="13000.00000" pt_clust_9="21.18831"></scales>
<clustering>
<clus scale="   21.188">  2  9  1 -1</clus>
<clus scale="   80.508">  5  6 -1 -1</clus>
<clus scale="   91.345">  7  8 -1 -1</clus>
<clus scale="   93.204">  2  5  1 -1</clus>
<clus scale="   21.188">  2  5  1 -1</clus>
</clustering>
</event>
<event>
 9    2  0.3745229E-005  0.2980794E+03  0.7546771E-02  0.1134090E+00
         21   -1    0    0  501  502  0.00000000000E+00  0.00000000000E+00  0.62261577380E+03  0.62261577380E+03  0.00000000000E+00 0. -1.
          2   -1    0    0  502    0 -0.00000000000E+00 -0.00000000000E+00 -0.35937886127E+03  0.35937886127E+03  0.00000000000E+00 0. -1.
         24    2    1    2    0    0 -0.34625611335E+02 -0.31865231884E+01  0.18462126669E+03  0.20452277741E+03  0.80842238194E+02 0.  0.
         23    2    1    2    0    0 -0.94028724205E+02 -0.25345906211E+03 -0.22240641779E+03  0.36149928969E+03  0.90189936429E+02 0.  0.
        -11    1    3    3    0    0 -0.28786921011E+02 -0.21567747096E+02  0.25152372184E+02  0.43891871259E+02  0.00000000000E+00 0.  1.
         12    1    3    3    0    0 -0.58386903234E+01  0.18381223908E+02  0.15946889450E+03  0.16063090615E+03  0.00000000000E+00 0. -1.
        -11    1    4    4    0    0 -0.38000125267E+02 -0.89034742608E+02 -0.27959891279E+02  0.10076185008E+03  0.00000000000E+00 0.  1.
         11    1    4    4    0    0 -0.56028598937E+02 -0.16442431950E+03 -0.19444652651E+03  0.26073743961E+03  0.00000000000E+00 0. -1.
          1    1    1    2  501    0  0.12865433554E+03  0.25664558530E+03  0.30102206363E+03  0.41597256796E+03  0.00000000000E+00 0. -1.
<scales pt_clust_5="13000.00000" pt_clust_6="13000.00000" pt_clust_7="13000.00000" pt_clust_8="13000.00000" pt_clust_9="284.10757"></scales>
<clustering>
<clus scale="   80.842">  5  6 -1 -1</clus>
<clus scale="   88.003">  2  5  1 -1</clus>
<clus scale="   90.190">  7  8 -1 -1</clus>
<clus scale="  284.108">  1  9  2 -1</clus>
<clus scale="  284.108">  1  5  2 -1</clus>
</clustering>
</event>
<event>
 9    2  0.3745229E-005  0.1806830E+03  0.7546771E-02  0.1192870E+00
         -3   -1    0    0    0  501 -0.00000000000E+00  0.00000000000E+00  0.70069214130E+03  0.70069214130E+03  0.00000000000E+00 0.  1.
         21   -1    0    0  501  502  0.00000000000E+00 -0.00000000000E+00 -0.79152649631E+02  0.79152649631E+02  0.00000000000E+00 0. -1.
         23    2    1    2    0    0  0.41138646346E+02  0.47300407456E+01  0.23953616561E+03  0.26008729571E+03  0.92482783504E+02 0.  0.
         24    2    1    2    0    0  0.86812554024E+02  0.12242487193E+03  0.15507079981E+03  0.22986397518E+03  0.79159492966E+02 0.  0.
        -11    1    4    4    0    0  0.71370728504E+02  0.49933647262E+02  0.11889828062E+03  0.14739047171E+03  0.00000000000E+00 0.  1.
         12    1    4    4    0    0  0.15441825519E+02  0.72491224671E+02  0.36172519187E+02  0.82473503466E+02  0.00000000000E+00 0. -1.
        -11    1    3    3    0    0 -0.28026978842E+02  0.53337667955E+01  0.41848468933E+02  0.50648346106E+02  0.00000000000E+00 0.  1.
         11    1    3    3    0    0  0.69165625188E+02 -0.60372604992E+00  0.19768769668E+03  0.20943894960E+03  0.00000000000E+00 0. -1.
         -4    1    1    2    0  502 -0.12795120037E+03 -0.12715491268E+03  0.22693252625E+03  0.28989352004E+03  0.00000000000E+00 0.  1.
<scales pt_clust_5="13000.00000" pt_clust_6="13000.00000" pt_clust_7="13000.00000" pt_clust_8="13000.00000" pt_clust_9="162.41965"></scales>
<clustering>
<clus scale="   79.159">  5  6 -1 -1</clus>
<clus scale="   92.483">  7  8 -1 -1</clus>
<clus scale="  101.330">  1  7  2 -1</clus>
<clus scale="  162.420">  2  9  1 -1</clus>
<clus scale="  162.420">  2  5  1 -1</clus>
</clustering>
</event>
<event>
 9    2  0.3745229E-005  0.1003997E+03  0.7546771E-02  0.1291400E+00
         21   -1    0    0  501  502  0.00000000000E+00  0.00000000000E+00  0.27798277490E+03  0.27798277490E+03  0.00000000000E+00 0. -1.
         -1   -1    0    0    0  501 -0.00000000000E+00 -0.00000000000E+00 -0.84001403722E+02  0.84001403722E+02  0.00000000000E+00 0.  1.
         23    2    1    2    0    0 -0.11371983753E+02 -0.16019728724E+02 -0.17761633745E+02  0.10120836155E+03  0.97681641528E+02 0.  0.
         24    2    1    2    0    0  0.57843951957E+02 -0.10403998066E+02  0.15625989107E+03  0.18372886328E+03  0.76713595207E+02 0.  0.
        -11    1    4    4    0    0  0.24335916733E+02 -0.73283475573E+00  0.75243200451E+00  0.24358572288E+02  0.00000000000E+00 0.  1.
         12    1    4    4    0    0  0.33508035224E+02 -0.96711633099E+01  0.15550745907E+03  0.15937029099E+03  0.00000000000E+00 0. -1.
        -13    1    3    3    0    0  0.35405235087E+02 -0.37656141612E+01  0.19100477661E+02  0.40404687456E+02  0.00000000000E+00 0.  1.
         13    1    3    3    0    0 -0.46777218840E+02 -0.12254114563E+02 -0.36862111406E+02  0.60803674095E+02  0.00000000000E+00 0. -1.
         -2    1    1    2    0  502 -0.46471968204E+02  0.26423726790E+02  0.55483113851E+02  0.77046953794E+02  0.00000000000E+00 0.  1.
<scales pt_clust_5="13000.00000" pt_clust_6="13000.00000" pt_clust_7="13000.00000" pt_clust_8="13000.00000" pt_clust_9="53.45893"></scales>
<clustering>
<clus scale="   53.459">  1  9  2 -1</clus>
<clus scale="   76.714">  5  6 -1 -1</clus>
<clus scale="   80.146">  1  5  2 -1</clus>
<clus scale="   97.682">  7  8 -1 -1</clus>
<clus scale="   53.459">  1  5  2 -1</clus>
</clustering>
</event>
<event>
 9    2  0.3745229E-005  0.9057137E+02  0.7546771E-02  0.1304827E+00
         21   -1    0    0  501  502  0.00000000000E+00  0.00000000000E+00  0.82052273502E+02  0.82052273502E+02  0.00000000000E+00 0. -1.
          2   -1    0    0  502    0 -0.00000000000E+00 -0.00000000000E+00 -0.31309090965E+03  0.31309090965E+03  0.00000000000E+00 0. -1.
         24    2    1    2    0    0 -0.33716642394E+02 -0.12341807114E+01 -0.23074750076E+03  0.24657426027E+03  0.80100696274E+02 0.  0.
         23    2    1    2    0    0 -0.39098249906E+01  0.39536979077E+02 -0.47398584909E+01  0.94692707834E+02  0.85824141198E+02 0.  0.
        -11    1    3    3    0    0 -0.38522611076E+02 -0.35423550860E+02 -0.14337204104E+03  0.15262490515E+03  0.00000000000E+00 0.  1.
         12    1    3    3    0    0  0.48059686820E+01  0.34189370149E+02 -0.87375459723E+02  0.93949355123E+02  0.00000000000E+00 0. -1.
        -11    1    4    4    0    0 -0.22091942362E+02  0.21646561627E+02 -0.40380408775E+02  0.50864574710E+02  0.00000000000E+00 0.  1.
         11    1    4    4    0    0  0.18182117371E+02  0.17890417449E+02  0.35640550284E+02  0.43828133124E+02  0.00000000000E+00 0. -1.
          1    1    1    2  501    0  0.37626467384E+02 -0.38302798365E+02  0.44487231054E+01  0.53876215046E+02  0.00000000000E+00 0. -1.
<scales pt_clust_5="13000.00000" pt_clust_6="13000.00000" pt_clust_7="13000.00000" pt_clust_8="13000.00000" pt_clust_9="53.69223"></scales>
<clustering>
<clus scale="   53.692">  1  9  2 -1</clus>
<clus scale="   80.101">  5  6 -1 -1</clus>
<clus scale="   85.168">  2  5  1 -1</clus>
<clus scale="   85.824">  7  8 -1 -1</clus>
<clus scale="   53.692">  1  5  2 -1</clus>
</clustering>
</event>
<event>
 9    2  0.3745229E-005  0.1311703E+03  0.7546771E-02  0.1227192E+00
         -1   -1    0    0    0  501 -0.00000000000E+00  0.00000000000E+00  0.39625090628E+03  0.39625090628E+03  0.00000000000E+00 0.  1.
         21   -1    0    0  501  502  0.00000000000E+00 -0.00000000000E+00 -0.76567597479E+02  0.76567597479E+02  0.00000000000E+00 0. -1.
         24    2    1    2    0    0 -0.68249476126E+02 -0.71247010736E+02  0.28236280260E+03  0.31028535708E+03  0.82547701331E+02 0.  0.
         23    2    1    2    0    0  0.41629590924E+02  0.83620017802E+02  0.27396224382E+02  0.13154603708E+03  0.88478678464E+02 0.  0.
        -13    1    3    3    0    0 -0.41427436960E+02 -0.82813558619E+02  0.25046633622E+03  0.26703502318E+03  0.00000000000E+00 0.  1.
         14    1    3    3    0    0 -0.26822039166E+02  0.11566547883E+02  0.31896466377E+02  0.43250333898E+02  0.00000000000E+00 0. -1.
        -13    1    4    4    0    0  0.21466491915E+02  0.97446263056E+02  0.75705027242E+01  0.10006946073E+03  0.00000000000E+00 0. -1.
         13    1    4    4    0    0  0.20163099009E+02 -0.13826245255E+02  0.19825721658E+02  0.31476576350E+02  0.00000000000E+00 0.  1.
         -2    1    1    2    0  502  0.26619885201E+02 -0.12373007065E+02  0.99242818209E+01  0.30987109604E+02  0.00000000000E+00 0.  1.
<scales pt_clust_5="13000.00000" pt_clust_6="13000.00000" pt_clust_7="13000.00000" pt_clust_8="13000.00000" pt_clust_9="29.35489"></scales>
<clustering>
<clus scale="   29.355">  2  9  1 -1</clus>
<clus scale="   82.548">  5  6 -1 -1</clus>
<clus scale="   88.479">  7  8 -1 -1</clus>
<clus scale="  127.245">  1  5  2 -1</clus>
<clus scale="   29.355">  2  5  1 -1</clus>
</clustering>
</event>
<event>
 9    2  0.3745229E-005  0.1032143E+03  0.7546771E-02  0.1277039E+00
         21   -1    0    0  501  502  0.00000000000E+00  0.00000000000E+00  0.26042009781E+03  0.26042009781E+03  0.00000000000E+00 0.  1.
          2   -1    0    0  502    0 -0.00000000000E+00 -0.00000000000E+00 -0.12538302663E+03  0.12538302663E+03  0.00000000000E+00 0. -1.
         23    2    1    2    0    0 -0.46354914003E+02 -0.21320628005E+02 -0.70033753561E+02  0.12537783845E+03  0.90617484543E+02 0.  0.
         24    2    1    2    0    0  0.51471561761E+02 -0.13056492300E+02  0.70139127058E+02  0.12108925503E+03  0.83206471369E+02 0.  0.
        -11    1    4    4    0    0  0.28372759243E+02 -0.13640867773E+02  0.86976843099E+02  0.92498962027E+02  0.00000000000E+00 0.  1.
         12    1    4    4    0    0  0.23098802518E+02  0.58437547286E+00 -0.16837716041E+02  0.28590293002E+02  0.00000000000E+00 0. -1.
        -13    1    3    3    0    0 -0.58129317917E+01  0.22274683709E+02  0.10439489953E+02  0.25277156897E+02  0.00000000000E+00 0. -1.
         13    1    3    3    0    0 -0.40541982212E+02 -0.43595311714E+02 -0.80473243513E+02  0.10010068155E+03  0.00000000000E+00 0.  1.
          1    1    1    2  501    0 -0.51166477571E+01  0.34377120305E+02  0.13493169768E+03  0.13933603096E+03  0.00000000000E+00 0. -1.
<scales pt_clust_5="13000.00000" pt_clust_6="13000.00000" pt_clust_7="13000.00000" pt_clust_8="13000.00000" pt_clust_9="34.75581"></scales>
<clustering>
<clus scale="   34.756">  1  9  2 -1</clus>
<clus scale="   83.206">  5  6 -1 -1</clus>
<clus scale="   90.617">  7  8 -1 -1</clus>
<clus scale="   96.773">  1  5  2 -1</clus>
<clus scale="   34.756">  1  5  2 -1</clus>
</clustering>
</event>
<event>
 9    2  0.3745229E-005  0.9613418E+02  0.7546771E-02  0.1294430E+00
         21   -1    0    0  501  502  0.00000000000E+00  0.00000000000E+00  0.89274684454E+02  0.89274684454E+02  0.00000000000E+00 0.  1.
         -1   -1    0    0    0  501 -0.00000000000E+00 -0.00000000000E+00 -0.20909860813E+03  0.20909860813E+03  0.00000000000E+00 0.  1.
         24    2    1    2    0    0 -0.36591100892E+02  0.17859931267E+02 -0.13421944525E+03  0.16177362999E+03  0.80609937773E+02 0.  0.
         23    2    1    2    0    0 -0.66748510952E+00 -0.15606652081E+00 -0.45732650517E+01  0.91196535781E+02  0.91079215478E+02 0.  0.
        -11    1    3    3    0    0 -0.13191025419E+02 -0.24818609982E+02 -0.95584719017E+02  0.99631345784E+02  0.00000000000E+00 0.  1.
         12    1    3    3    0    0 -0.23400075473E+02  0.42678541250E+02 -0.38634726232E+02  0.62142284206E+02  0.00000000000E+00 0. -1.
        -11    1    4    4    0    0 -0.93902019770E+01 -0.40012379790E+02  0.17659135149E+02  0.44732666854E+02  0.00000000000E+00 0.  1.
         11    1    4    4    0    0  0.87227168675E+01  0.39856313270E+02 -0.22232400201E+02  0.46463868927E+02  0.00000000000E+00 0. -1.
         -2    1    1    2    0  502  0.37258586001E+02 -0.17703864746E+02  0.18968786630E+02  0.45403126808E+02  0.00000000000E+00 0.  1.
<scales pt_clust_5="13000.00000" pt_clust_6="13000.00000" pt_clust_7="13000.00000" pt_clust_8="13000.00000" pt_clust_9="41.25081"></scales>
<clustering>
<clus scale="   41.251">  1  9  2 -1</clus>
<clus scale="   80.610">  5  6 -1 -1</clus>
<clus scale="   86.280">  2  5  1 -1</clus>
<clus scale="   91.079">  7  8 -1 -1</clus>
<clus scale="   41.251">  1  5  2 -1</clus>
</clustering>
</event>
<event>
 9    2  0.3745229E-005  0.9810914E+02  0.7546771E-02  0.1289425E+00
          2   -1    0    0  502    0 -0.00000000000E+00  0.00000000000E+00  0.20678480091E+03  0.20678480091E+03  0.00000000000E+00 0. -1.
         21   -1    0    0  501  502  0.00000000000E+00 -0.00000000000E+00 -0.18001560331E+03  0.18001560331E+03  0.00000000000E+00 0. -1.
         24    2    1    2    0    0  0.48666901741E+02  0.43405935616E+02  0.10492061661E+03  0.14728489764E+03  0.80199518154E+02 0.  0.
         23    2    1    2    0    0  0.10732122371E+02 -0.13559579168E+02  0.43017868650E+02  0.10130897516E+03  0.90077360010E+02 0.  0.
        -13    1    3    3    0    0  0.63754981664E+02  0.49523269007E+02  0.63281033277E+02  0.10257553818E+03  0.00000000000E+00 0.  1.
         14    1    3    3    0    0 -0.15088079923E+02 -0.61173333911E+01  0.41639583331E+02  0.44709359462E+02  0.00000000000E+00 0. -1.
        -11    1    4    4    0    0  0.35004976445E+02 -0.51479727186E+00  0.59619537815E+02  0.69138286654E+02  0.00000000000E+00 0. -1.
         11    1    4    4    0    0 -0.24272854075E+02 -0.13044781896E+02 -0.16601669166E+02  0.32170688503E+02  0.00000000000E+00 0.  1.
          1    1    1    2  501    0 -0.59399024112E+02 -0.29846356448E+02 -0.12116928766E+03  0.13820653143E+03  0.00000000000E+00 0. -1.
<scales pt_clust_5="13000.00000" pt_clust_6="13000.00000" pt_clust_7="13000.00000" pt_clust_8="13000.00000" pt_clust_9="66.47593"></scales>
<clustering>
<clus scale="   66.476">  2  9  1 -1</clus>
<clus scale="   80.200">  5  6 -1 -1</clus>
<clus scale="   89.126">  1  5  2 -1</clus>
<clus scale="   90.077">  7  8 -1 -1</clus>
<clus scale="   66.476">  2  5  1 -1</clus>
</clustering>
</event>
<event>
 9    2  0.3745229E-005  0.5351565E+03  0.7546771E-02  0.1064824E+00
         21   -1    0    0  501  502  0.00000000000E+00  0.00000000000E+00  0.72752224791E+03  0.72752224791E+03  0.00000000000E+00 0. -1.
          4   -1    0    0  502    0 -0.00000000000E+00 -0.00000000000E+00 -0.57454432392E+03  0.57454432392E+03  0.00000000000E+00 0. -1.
         23    2    1    2    0    0 -0.14585891197E+02 -0.13024624422E+02 -0.95538721610E+02  0.13269062611E+03  0.89982030806E+02 0.  0.
         24    2    1    2    0    0  0.46730563902E+03 -0.25495065317E+03  0.33947265459E+03  0.63548558709E+03  0.72290057257E+02 0.  0.
        -11    1    4    4    0    0  0.11092160205E+03 -0.43674260405E+02  0.46026246108E+02  0.12778676831E+03  0.00000000000E+00 0.  1.
         12    1    4    4    0    0  0.35638403696E+03 -0.21127639277E+03  0.29344640849E+03  0.50769881878E+03  0.00000000000E+00 0. -1.
        -13    1    3    3    0    0  0.27005618708E+02  0.10256468525E+02 -0.35739985113E+01  0.29107937986E+02  0.00000000000E+00 0.  1.
         13    1    3    3    0    0 -0.41591509905E+02 -0.23281092947E+02 -0.91964723099E+02  0.10358268813E+03  0.00000000000E+00 0. -1.
          3    1    1    2  501    0 -0.45271974782E+03  0.26797527759E+03 -0.90956008992E+02  0.53389035863E+03  0.00000000000E+00 0. -1.
<scales pt_clust_5="13000.00000" pt_clust_6="13000.00000" pt_clust_7="13000.00000" pt_clust_8="13000.00000" pt_clust_9="530.25179"></scales>
<clustering>
<clus scale="   72.290">  5  6 -1 -1</clus>
<clus scale="   89.982">  7  8 -1 -1</clus>
<clus scale="   92.082">  2  7  1 -1</clus>
<clus scale="  530.252">  1  9  2 -1</clus>
<clus scale="  530.252">  1  5  2 -1</clus>
</clustering>
</event>
<event>
 9    2  0.3745229E-005  0.9147287E+02  0.7546771E-02  0.1305281E+00
         21   -1    0    0  501  502  0.00000000000E+00  0.00000000000E+00  0.88377462283E+02  0.88377462283E+02  0.00000000000E+00 0. -1.
          2   -1    0    0  502    0 -0.00000000000E+00 -0.00000000000E+00 -0.16162530891E+03  0.16162530891E+03  0.00000000000E+00 0. -1.
         24    2    1    2    0    0 -0.16528854890E+02  0.13043685829E+02 -0.57003952651E+02  0.10162567869E+03  0.81455430556E+02 0.  0.
         23    2    1    2    0    0  0.22924326446E+00  0.14270918309E+02 -0.47628602093E+02  0.10369191776E+03  0.90993507514E+02 0.  0.
        -11    1    3    3    0    0  0.20554193395E+02  0.11888224472E+02  0.94181907089E+01  0.25544217809E+02  0.00000000000E+00 0.  1.
         12    1    3    3    0    0 -0.37083048286E+02  0.11554613571E+01 -0.66422143360E+02  0.76081460880E+02  0.00000000000E+00 0. -1.
        -13    1    4    4    0    0  0.17854295709E+02  0.49197480220E+02 -0.21134697847E+02  0.56443275847E+02  0.00000000000E+00 0. -1.
         13    1    4    4    0    0 -0.17625052444E+02 -0.34926561910E+02 -0.26493904247E+02  0.47248641915E+02  0.00000000000E+00 0.  1.
          1    1    1    2  501    0  0.16299611626E+02 -0.27314604138E+02  0.31384708117E+02  0.44685174744E+02  0.00000000000E+00 0. -1.
<scales pt_clust_5="13000.00000" pt_clust_6="13000.00000" pt_clust_7="13000.00000" pt_clust_8="13000.00000" pt_clust_9="31.80825"></scales>
<clustering>
<clus scale="   31.808">  1  9  2 -1</clus>
<clus scale="   81.455">  5  6 -1 -1</clus>
<clus scale="   81.991">  2  5  1 -1</clus>
<clus scale="   90.994">  7  8 -1 -1</clus>
<clus scale="   31.808">  1  5  2 -1</clus>
</clustering>
</event>
<event>
 9    2  0.3745229E-005  0.8091410E+02  0.7546771E-02  0.1331268E+00
          2   -1    0    0  502    0 -0.00000000000E+00  0.00000000000E+00  0.62257027191E+03  0.62257027191E+03  0.00000000000E+00 0. -1.
         21   -1    0    0  501  502  0.00000000000E+00 -0.00000000000E+00 -0.25267190774E+02  0.25267190774E+02  0.00000000000E+00 0.  1.
         23    2    1    2    0    0 -0.24897707941E+02 -0.36851166830E+01  0.25318231350E+03  0.26677782559E+03  0.80222493185E+02 0.  0.
         24    2    1    2    0    0 -0.23514042580E+02 -0.86567465850E+01  0.77448710290E+02  0.10974799830E+03  0.73610263852E+02 0.  0.
        -13    1    4    4    0    0 -0.31396169859E+02  0.23686097150E+02  0.21972966403E+02  0.45050659624E+02  0.00000000000E+00 0.  1.
         14    1    4    4    0    0  0.78821272790E+01 -0.32342843735E+02  0.55475743887E+02  0.64697338671E+02  0.00000000000E+00 0. -1.
        -13    1    3    3    0    0  0.52077480057E+00 -0.37113782749E+02  0.74595003520E+02  0.83319377257E+02  0.00000000000E+00 0.  1.
         13    1    3    3    0    0 -0.25418482741E+02  0.33428666066E+02  0.17858730998E+03  0.18345844833E+03  0.00000000000E+00 0. -1.
          1    1    1    2  501    0  0.48411750521E+02  0.12341863268E+02  0.26667205735E+03  0.27131163881E+03  0.00000000000E+00 0. -1.
<scales pt_clust_5="13000.00000" pt_clust_6="13000.00000" pt_clust_7="13000.00000" pt_clust_8="13000.00000" pt_clust_9="49.96020"></scales>
<clustering>
<clus scale="   49.960">  2  9  1 -1</clus>
<clus scale="   73.610">  5  6 -1 -1</clus>
<clus scale="   74.363">  2  5  1 -1</clus>
<clus scale="   80.222">  7  8 -1 -1</clus>
<clus scale="   49.960">  2  5  1 -1</clus>
</clustering>
</event>
<event>
 9    2  0.3745229E-005  0.1042894E+03  0.7546771E-02  0.1272350E+00
          2   -1    0    0  502    0 -0.00000000000E+00  0.00000000000E+00  0.47649698121E+03  0.47649698121E+03  0.00000000000E+00 0. -1.
         21   -1    0    0  501  502  0.00000000000E+00 -0.00000000000E+00 -0.42761966342E+02  0.42761966342E+02  0.00000000000E+00 0.  1.
         23    2    1    2    0    0  0.71533021802E+02 -0.16216538508E+02  0.19125646907E+03  0.21979068800E+03  0.79680362951E+02 0.  0.
         24    2    1    2    0    0 -0.33498880430E+02  0.52932204883E+02  0.85666224851E+02  0.13398490671E+03  0.81787895452E+02 0.  0.
        -13    1    4    4    0    0 -0.24972458731E+02  0.10858510186E+02 -0.10094613893E+02  0.29041903660E+02  0.00000000000E+00 0.  1.
         14    1    4    4    0    0 -0.85264216989E+01  0.42073694697E+02  0.95760838745E+02  0.10494300305E+03  0.00000000000E+00 0. -1.
        -13    1    3    3    0    0  0.50468473855E+02 -0.47928553877E+02  0.13462316225E+03  0.15155068111E+03  0.00000000000E+00 0. -1.
         13    1    3    3    0    0  0.21064547948E+02  0.31712015369E+02  0.56633306819E+02  0.68240006890E+02  0.00000000000E+00 0.  1.
          1    1    1    2  501    0 -0.38034141372E+02 -0.36715666375E+02  0.15681232095E+03  0.16548335285E+03  0.00000000000E+00 0. -1.
<scales pt_clust_5="13000.00000" pt_clust_6="13000.00000" pt_clust_7="13000.00000" pt_clust_8="13000.00000" pt_clust_9="52.86434"></scales>
<clustering>
<clus scale="   52.864">  2  9  1 -1</clus>
<clus scale="   79.680">  7  8 -1 -1</clus>
<clus scale="   81.788">  5  6 -1 -1</clus>
<clus scale="  102.645">  1  7  2 -1</clus>
<clus scale="   52.864">  2  5  1 -1</clus>
</clustering>
</event>
<event>
 9    2  0.3745229E-005  0.2295517E+03  0.7546771E-02  0.1145864E+00
         21   -1    0    0  501  502  0.00000000000E+00  0.00000000000E+00  0.91531900927E+02  0.91531900927E+02  0.00000000000E+00 0. -1.
          2   -1    0    0  502    0 -0.00000000000E+00 -0.00000000000E+00 -0.10789712629E+04  0.10789712629E+04  0.00000000000E+00 0. -1.
         23    2    1    2    0    0 -0.90448919914E+02 -0.67063078448E+02 -0.29406718240E+03  0.32789413438E+03  0.91436272837E+02 0.  0.
         24    2    1    2    0    0  0.85527810967E+02 -0.16893782097E+03 -0.48837413952E+03  0.52996732034E+03  0.80629192462E+02 0.  0.
        -13    1    4    4    0    0  0.39440049735E+02 -0.13979434385E+02 -0.71521189538E+02  0.82862673513E+02  0.00000000000E+00 0.  1.
         14    1    4    4    0    0  0.46087761232E+02 -0.15495838658E+03 -0.41685294998E+03  0.44710464683E+03  0.00000000000E+00 0. -1.
        -11    1    3    3    0    0 -0.26915379398E+02 -0.44959172221E+02 -0.22675597041E+03  0.23273168012E+03  0.00000000000E+00 0.  1.
         11    1    3    3    0    0 -0.63533540516E+02 -0.22103906227E+02 -0.67311211995E+02  0.95162454263E+02  0.00000000000E+00 0. -1.
          1    1    1    2  501    0  0.49211089468E+01  0.23600089942E+03 -0.20499804001E+03  0.31264170907E+03  0.00000000000E+00 0. -1.
<scales pt_clust_5="13000.00000" pt_clust_6="13000.00000" pt_clust_7="13000.00000" pt_clust_8="13000.00000" pt_clust_9="214.92542"></scales>
<clustering>
<clus scale="   80.629">  5  6 -1 -1</clus>
<clus scale="   91.436">  7  8 -1 -1</clus>
<clus scale="  145.048">  2  7  1 -1</clus>
<clus scale="  214.925">  1  9  2 -1</clus>
<clus scale="  214.925">  1  5  2 -1</clus>
</clustering>
</event>
<event>
 9    2  0.3745229E-005  0.1095104E+03  0.7546771E-02  0.1266764E+00
         21   -1    0    0  501  502  0.00000000000E+00  0.00000000000E+00  0.29785282230E+02  0.29785282230E+02  0.00000000000E+00 0.  1.
          2   -1    0    0  502    0 -0.00000000000E+00 -0.00000000000E+00 -0.74369128046E+03  0.74369128046E+03  0.00000000000E+00 0. -1.
         23    2    1    2    0    0  0.69677034496E+02  0.63946649282E+01 -0.51669627885E+03  0.52965120587E+03  0.93056834415E+02 0.  0.
         24    2    1    2    0    0 -0.21269026606E+02 -0.21649349271E+02 -0.85159732503E+02  0.12081625072E+03  0.80145621105E+02 0.  0.
        -13    1    4    4    0    0 -0.24970496924E+02 -0.37799898196E+02 -0.13508378826E+02  0.47274034298E+02  0.00000000000E+00 0.  1.
         14    1    4    4    0    0  0.37014703178E+01  0.16150548925E+02 -0.71651353677E+02  0.73542216426E+02  0.00000000000E+00 0. -1.
        -13    1    3    3    0    0  0.78782308211E+02 -0.17472878861E+02 -0.46542036503E+03  0.47236434006E+03  0.00000000000E+00 0. -1.
         13    1    3    3    0    0 -0.91052737150E+01  0.23867543789E+02 -0.51275913820E+02  0.57286865807E+02  0.00000000000E+00 0.  1.
          1    1    1    2  501    0 -0.48408007890E+02  0.15254684343E+02 -0.11204998688E+03  0.12300910609E+03  0.00000000000E+00 0. -1.
<scales pt_clust_5="13000.00000" pt_clust_6="13000.00000" pt_clust_7="13000.00000" pt_clust_8="13000.00000" pt_clust_9="50.75471"></scales>
<clustering>
<clus scale="   50.755">  1  9  2 -1</clus>
<clus scale="   80.146">  5  6 -1 -1</clus>
<clus scale="   93.057">  7  8 -1 -1</clus>
<clus scale="   98.774">  1  5  2 -1</clus>
<clus scale="   50.755">  1  5  2 -1</clus>
</clustering>
</event>
<event>
 9    2  0.3745229E-005  0.1132033E+03  0.7546771E-02  0.1256952E+00
          2   -1    0    0  502    0 -0.00000000000E+00  0.00000000000E+00  0.14919197854E+03  0.14919197854E+03  0.00000000000E+00 0. -1.
         21   -1    0    0  501  502  0.00000000000E+00 -0.00000000000E+00 -0.17644202973E+03  0.17644202973E+03  0.00000000000E+00 0.  1.
         23    2    1    2    0    0  0.12449987616E+02 -0.74202536995E+02  0.87966459459E+02  0.14010645303E+03  0.78934792732E+02 0.  0.
         24    2    1    2    0    0 -0.36279920762E+02  0.63340674476E+02 -0.11280653196E+03  0.15922824406E+03  0.85440308760E+02 0.  0.
        -11    1    4    4    0    0 -0.40893308033E+02  0.70484815779E+02 -0.12199535083E+03  0.14670800088E+03  0.00000000000E+00 0.  1.
         12    1    4    4    0    0  0.46133872703E+01 -0.71441413036E+01  0.91888188736E+01  0.12520243183E+02  0.00000000000E+00 0. -1.
        -11    1    3    3    0    0  0.13856353412E+02 -0.34370839254E+02  0.92830469166E+02  0.99954235160E+02  0.00000000000E+00 0. -1.
         11    1    3    3    0    0 -0.14063657968E+01 -0.39831697741E+02 -0.48640097070E+01  0.40152217873E+02  0.00000000000E+00 0.  1.
          1    1    1    2  501    0  0.23829933147E+02  0.10861862519E+02 -0.24099786928E+01  0.26299311178E+02  0.00000000000E+00 0. -1.
<scales pt_clust_5="13000.00000" pt_clust_6="13000.00000" pt_clust_7="13000.00000" pt_clust_8="13000.00000" pt_clust_9="26.18866"></scales>
<clustering>
<clus scale="   26.189">  2  9  1 -1</clus>
<clus scale="   78.935">  7  8 -1 -1</clus>
<clus scale="   85.440">  5  6 -1 -1</clus>
<clus scale="  108.377">  1  7  2 -1</clus>
<clus scale="   26.189">  2  5  1 -1</clus>
</clustering>
</event>
<event>
 9    2  0.3745229E-005  0.1222315E+03  0.7546771E-02  0.1263132E+00
          2   -1    0    0  502    0 -0.00000000000E+00  0.00000000000E+00  0.46656075496E+03  0.46656075496E+03  0.00000000000E+00 0. -1.
         21   -1    0    0  501  502  0.00000000000E+00 -0.00000000000E+00 -0.47890541803E+02  0.47890541803E+02  0.00000000000E+00 0. -1.
         23    2    1    2    0    0 -0.54891082762E+00  0.53694904284E+01  0.10235716095E+03  0.12763385622E+03  0.76054454999E+02 0.  0.
         24    2    1    2    0    0  0.77497406187E+02  0.43252289965E+02  0.12190494966E+03  0.17215570943E+03  0.83067219685E+02 0.  0.
        -13    1    4    4    0    0  0.70167641886E+02 -0.45532069190E+01  0.53377360579E+02  0.88280078634E+02  0.00000000000E+00 0.  1.
         14    1    4    4    0    0  0.73297643010E+01  0.47805496884E+02  0.68527589078E+02  0.83875630799E+02  0.00000000000E+00 0. -1.
        -13    1    3    3    0    0 -0.20636823822E+02  0.28611900191E+02  0.21927798656E+02  0.41537304726E+02  0.00000000000E+00 0.  1.
         13    1    3    3    0    0  0.20087912995E+02 -0.23242409763E+02  0.80429362291E+02  0.86096551491E+02  0.00000000000E+00 0. -1.
          1    1    1    2  501    0 -0.76948495360E+02 -0.48621780393E+02  0.19440810255E+03  0.21466173111E+03  0.00000000000E+00 0. -1.
<scales pt_clust_5="13000.00000" pt_clust_6="13000.00000" pt_clust_7="13000.00000" pt_clust_8="13000.00000" pt_clust_9="89.66820"></scales>
<clustering>
<clus scale="   76.054">  7  8 -1 -1</clus>
<clus scale="   76.246">  1  7  2 -1</clus>
<clus scale="   83.067">  5  6 -1 -1</clus>
<clus scale="   89.668">  2  9  1 -1</clus>
<clus scale="   89.668">  2  5  1 -1</clus>
</clustering>
</event>
<event>
 9    2  0.3745229E-005  0.9338563E+02  0.7546771E-02  0.1300732E+00
         21   -1    0    0  501  502  0.00000000000E+00  0.00000000000E+00  0.80507333411E+03  0.80507333411E+03  0.00000000000E+00 0.  1.
         -3   -1    0    0    0  501 -0.00000000000E+00 -0.00000000000E+00 -0.87657327973E+02  0.87657327973E+02  0.00000000000E+00 0.  1.
         23    2    1    2    0    0  0.20743879349E+02  0.16906574257E+02 -0.56627609581E+02  0.10966030943E+03  0.90014201737E+02 0.  0.
         24    2    1    2    0    0  0.61539913170E+01  0.87094701071E+01  0.48831558484E+03  0.49493811772E+03  0.79986895792E+02 0.  0.
        -13    1    4    4    0    0 -0.31416122935E+02  0.17203565519E+02  0.14040138009E+03  0.14489818141E+03  0.00000000000E+00 0.  1.
         14    1    4    4    0    0  0.37570114252E+02 -0.84940954122E+01  0.34791420476E+03  0.35003993631E+03  0.00000000000E+00 0. -1.
        -13    1    3    3    0    0 -0.28530782987E+02  0.11384546066E+02  0.43971321895E+01  0.31031407291E+02  0.00000000000E+00 0. -1.
         13    1    3    3    0    0  0.49274662336E+02  0.55220281907E+01 -0.61024741771E+02  0.78628902141E+02  0.00000000000E+00 0.  1.
         -4    1    1    2    0  502 -0.26897870666E+02 -0.25616044364E+02  0.28572803088E+03  0.28813223493E+03  0.00000000000E+00 0.  1.
<scales pt_clust_5="13000.00000" pt_clust_6="13000.00000" pt_clust_7="13000.00000" pt_clust_8="13000.00000" pt_clust_9="37.14401"></scales>
<clustering>
<clus scale="   37.144">  1  9  2 -1</clus>
<clus scale="   79.987">  5  6 -1 -1</clus>
<clus scale="   83.763">  1  5  2 -1</clus>
<clus scale="   90.014">  7  8 -1 -1</clus>
<clus scale="   37.144">  1  5  2 -1</clus>
</clustering>
</event>
<event>
 9    2  0.3745229E-005  0.1038542E+03  0.7546771E-02  0.1277136E+00
         -3   -1    0    0    0  501 -0.00000000000E+00  0.00000000000E+00  0.21231114477E+02  0.21231114477E+02  0.00000000000E+00 0.  1.
         21   -1    0    0  501  502  0.00000000000E+00 -0.00000000000E+00 -0.70370199732E+03  0.70370199732E+03  0.00000000000E+00 0. -1.
         23    2    1    2    0    0  0.35389675503E+02  0.18542410492E+02 -0.20041302997E+03  0.22373437408E+03  0.91079292073E+02 0.  0.
         24    2    1    2    0    0 -0.51423085153E+02 -0.45433717079E+02 -0.36992985906E+03  0.38478181631E+03  0.80624991155E+02 0.  0.
        -11    1    4    4    0    0  0.39117066247E+01  0.19688204170E+02 -0.58938782504E+02  0.62263206753E+02  0.00000000000E+00 0.  1.
         12    1    4    4    0    0 -0.55334791777E+02 -0.65121921249E+02 -0.31099107656E+03  0.32251860955E+03  0.00000000000E+00 0. -1.
        -13    1    3    3    0    0  0.45367198820E+01  0.52745860103E+02 -0.96458617587E+02  0.11003168858E+03  0.00000000000E+00 0.  1.
         13    1    3    3    0    0  0.30852955621E+02 -0.34203449611E+02 -0.10395441239E+03  0.11370268550E+03  0.00000000000E+00 0. -1.
         -4    1    1    2    0  502  0.16033409650E+02  0.26891306587E+02 -0.11212799380E+03  0.11641692140E+03  0.00000000000E+00 0.  1.
<scales pt_clust_5="13000.00000" pt_clust_6="13000.00000" pt_clust_7="13000.00000" pt_clust_8="13000.00000" pt_clust_9="31.30835"></scales>
<clustering>
<clus scale="   31.308">  2  9  1 -1</clus>
<clus scale="   80.625">  5  6 -1 -1</clus>
<clus scale="   91.079">  7  8 -1 -1</clus>
<clus scale="   94.819">  2  5  1 -1</clus>
<clus scale="   31.308">  2  5  1 -1</clus>
</clustering>
</event>
<event>
 9    2  0.3745229E-005  0.1368111E+03  0.7546771E-02  0.1219508E+00
         21   -1    0    0  501  502  0.00000000000E+00  0.00000000000E+00  0.15999064939E+03  0.15999064939E+03  0.00000000000E+00 0. -1.
          2   -1    0    0  502    0 -0.00000000000E+00 -0.00000000000E+00 -0.69172265396E+03  0.69172265396E+03  0.00000000000E+00 0. -1.
         24    2    1    2    0    0 -0.10557806427E+02  0.13010062210E+03 -0.51719101939E+03  0.54023217194E+03  0.85595618561E+02 0.  0.
         23    2    1    2    0    0  0.81813992217E+01 -0.49994185085E+02 -0.13192408666E+03  0.16934921708E+03  0.93321159711E+02 0.  0.
        -11    1    3    3    0    0 -0.29409988781E+02  0.37836749613E+02 -0.82066879955E+02  0.95034414013E+02  0.00000000000E+00 0.  1.
         12    1    3    3    0    0  0.18852182355E+02  0.92263872484E+02 -0.43512413943E+03  0.44519775793E+03  0.00000000000E+00 0. -1.
        -11    1    4    4    0    0  0.61134683683E+01  0.25719699229E+02 -0.56893937592E+02  0.62735935146E+02  0.00000000000E+00 0. -1.
         11    1    4    4    0    0  0.20679308534E+01 -0.75713884314E+02 -0.75030149063E+02  0.10661328193E+03  0.00000000000E+00 0.  1.
          1    1    1    2  501    0  0.23764072050E+01 -0.80106437011E+02  0.11738310147E+03  0.14213191434E+03  0.00000000000E+00 0. -1.
<scales pt_clust_5="13000.00000" pt_clust_6="13000.00000" pt_clust_7="13000.00000" pt_clust_8="13000.00000" pt_clust_9="80.14168"></scales>
<clustering>
<clus scale="   80.142">  1  9  2 -1</clus>
<clus scale="   85.596">  5  6 -1 -1</clus>
<clus scale="   93.321">  7  8 -1 -1</clus>
<clus scale="  131.663">  2  5  1 -1</clus>
<clus scale="   80.142">  1  5  2 -1</clus>
</clustering>
</event>
<event>
 9    2  0.3745229E-005  0.1325830E+03  0.7546771E-02  0.1226075E+00
         21   -1    0    0  501  502  0.00000000000E+00  0.00000000000E+00  0.10398610381E+03  0.10398610381E+03  0.00000000000E+00 0. -1.
          2   -1    0    0  502    0 -0.00000000000E+00 -0.00000000000E+00 -0.57022180822E+03  0.57022180822E+03  0.00000000000E+00 0. -1.
         24    2    1    2    0    0 -0.10821249012E+03  0.35239801111E+02 -0.39616968812E+03  0.41946202481E+03  0.77757198230E+02 0.  0.
         23    2    1    2    0    0  0.72293836756E+02 -0.13549416565E+02 -0.13522520311E+03  0.17724529323E+03  0.87863831548E+02 0.  0.
        -11    1    3    3    0    0 -0.45852637074E+02 -0.48329433555E+01 -0.26337067397E+03  0.26737601533E+03  0.00000000000E+00 0.  1.
         12    1    3    3    0    0 -0.62359853044E+02  0.40072744466E+02 -0.13279901415E+03  0.15208600948E+03  0.00000000000E+00 0. -1.
        -11    1    4    4    0    0  0.76879514403E+02 -0.38885015720E+02 -0.11862828233E+03  0.14661232401E+03  0.00000000000E+00 0.  1.
         11    1    4    4    0    0 -0.45856776464E+01  0.25335599155E+02 -0.16596920778E+02  0.30632969221E+02  0.00000000000E+00 0. -1.
          1    1    1    2  501    0  0.35918653362E+02 -0.21690384546E+02  0.65159186817E+02  0.77500593983E+02  0.00000000000E+00 0. -1.
<scales pt_clust_5="13000.00000" pt_clust_6="13000.00000" pt_clust_7="13000.00000" pt_clust_8="13000.00000" pt_clust_9="41.95977"></scales>
<clustering>
<clus scale="   41.960">  1  9  2 -1</clus>
<clus scale="   77.757">  5  6 -1 -1</clus>
<clus scale="   87.864">  7  8 -1 -1</clus>
<clus scale="  126.113">  2  5  1 -1</clus>
<clus scale="   41.960">  1  5  2 -1</clus>
</clustering>
</event>
<event>
 9    2  0.3745229E-005  0.1110764E+03  0.7546771E-02  0.1264895E+00
          2   -1    0    0  502    0 -0.00000000000E+00  0.00000000000E+00  0.16651296557E+04  0.16651296557E+04  0.00000000000E+00 0. -1.
         21   -1    0    0  501  502  0.00000000000E+00 -0.00000000000E+00 -0.86079033949E+02  0.86079033949E+02  0.00000000000E+00 0. -1.
         24    2    1    2    0    0 -0.23645439385E+02  0.69730472970E+02  0.11443625830E+04  0.11491531215E+04  0.74603819115E+02 0.  0.
         23    2    1    2    0    0  0.79811727345E+02  0.42579119344E+01  0.48258795464E+03  0.49754080870E+03  0.90926787669E+02 0.  0.
        -11    1    3    3    0    0  0.48693275701E+01  0.43380160992E+02  0.23869951479E+03  0.24265821041E+03  0.00000000000E+00 0.  1.
         12    1    3    3    0    0 -0.28514766955E+02  0.26350311977E+02  0.90566306816E+03  0.90649491113E+03  0.00000000000E+00 0. -1.
        -11    1    4    4    0    0 -0.20160485830E+02  0.31780772694E+01  0.10332976245E+03  0.10532608970E+03  0.00000000000E+00 0. -1.
         11    1    4    4    0    0  0.99972213175E+02  0.10798346650E+01  0.37925819219E+03  0.39221471900E+03  0.00000000000E+00 0.  1.
          1    1    1    2  501    0 -0.56166287960E+02 -0.73988384904E+02 -0.47899915820E+02  0.10451475943E+03  0.00000000000E+00 0. -1.
<scales pt_clust_5="13000.00000" pt_clust_6="13000.00000" pt_clust_7="13000.00000" pt_clust_8="13000.00000" pt_clust_9="92.89205"></scales>
<clustering>
<clus scale="   74.604">  5  6 -1 -1</clus>
<clus scale="   90.927">  7  8 -1 -1</clus>
<clus scale="   92.892">  2  9  1 -1</clus>
<clus scale="   98.163">  1  5  2 -1</clus>
<clus scale="   92.892">  2  5  1 -1</clus>
</clustering>
</event>
<event>
 9    2  0.3745229E-005  0.1235575E+03  0.7546771E-02  0.1241598E+00
         21   -1    0    0  501  502  0.00000000000E+00  0.00000000000E+00  0.25497316583E+02  0.25497316583E+02  0.00000000000E+00 0. -1.
          2   -1    0    0  502    0 -0.00000000000E+00 -0.00000000000E+00 -0.15507409876E+04  0.15507409876E+04  0.00000000000E+00 0. -1.
         24    2    1    2    0    0 -0.12992071656E+02  0.85829158392E+02 -0.11323189886E+04  0.11382156334E+04  0.76505541914E+02 0.  0.
         23    2    1    2    0    0 -0.35082138508E+02 -0.75537019515E+02 -0.35533114380E+03  0.37613299510E+03  0.90990167016E+02 0.  0.
        -11    1    3    3    0    0  0.23410484283E+02  0.28738418114E+02 -0.19753242407E+03  0.20098011347E+03  0.00000000000E+00 0.  1.
         12    1    3    3    0    0 -0.36402555939E+02  0.57090740278E+02 -0.93478656450E+03  0.93723551996E+03  0.00000000000E+00 0. -1.
        -11    1    4    4    0    0 -0.65058025956E+02 -0.53916457420E+02 -0.27539869306E+03  0.28806938619E+03  0.00000000000E+00 0. -1.
         11    1    4    4    0    0  0.29975887448E+02 -0.21620562094E+02 -0.79932450739E+02  0.88063608912E+02  0.00000000000E+00 0.  1.
          1    1    1    2  501    0  0.48074210163E+02 -0.10292138878E+02 -0.37593538674E+02  0.61889675678E+02  0.00000000000E+00 0. -1.
<scales pt_clust_5="13000.00000" pt_clust_6="13000.00000" pt_clust_7="13000.00000" pt_clust_8="13000.00000" pt_clust_9="49.16358"></scales>
<clustering>
<clus scale="   49.164">  1  9  2 -1</clus>
<clus scale="   76.506">  5  6 -1 -1</clus>
<clus scale="   90.990">  7  8 -1 -1</clus>
<clus scale="  113.315">  2  5  1 -1</clus>
<clus scale="   49.164">  1  5  2 -1</clus>
</clustering>
</event>
<event>
 9    2  0.3745229E-005  0.9117946E+02  0.7546771E-02  0.1305828E+00
         -3   -1    0    0    0  501 -0.00000000000E+00  0.00000000000E+00  0.37001885124E+03  0.37001885124E+03  0.00000000000E+00 0.  1.
         21   -1    0    0  501  502  0.00000000000E+00 -0.00000000000E+00 -0.80555779984E+02  0.80555779984E+02  0.00000000000E+00 0.  1.
         23    2    1    2    0    0  0.34164447357E+01  0.14069380766E+02  0.28660935975E+03  0.30073741414E+03  0.89935797085E+02 0.  0.
         24    2    1    2    0    0 -0.41504314857E+02  0.37657407249E+01  0.34656145974E+02  0.97109878369E+02  0.80575995607E+02 0.  0.
        -11    1    4    4    0    0 -0.16332254472E+02  0.39810216961E+02  0.30920362214E+02  0.52987401427E+02  0.00000000000E+00 0.  1.
         12    1    4    4    0    0 -0.25172060385E+02 -0.36044476236E+02  0.37357837607E+01  0.44122476942E+02  0.00000000000E+00 0. -1.
        -11    1    3    3    0    0 -0.27118528021E+02 -0.17051260425E+02  0.45068102392E+02  0.55292801497E+02  0.00000000000E+00 0.  1.
         11    1    3    3    0    0  0.30534972757E+02  0.31120641191E+02  0.24154125736E+03  0.24544461265E+03  0.00000000000E+00 0. -1.
         -4    1    1    2    0  502  0.38087870122E+02 -0.17835121491E+02 -0.31802434474E+02  0.52727338710E+02  0.00000000000E+00 0.  1.
<scales pt_clust_5="13000.00000" pt_clust_6="13000.00000" pt_clust_7="13000.00000" pt_clust_8="13000.00000" pt_clust_9="42.05684"></scales>
<clustering>
<clus scale="   42.057">  2  9  1 -1</clus>
<clus scale="   80.576">  5  6 -1 -1</clus>
<clus scale="   81.962">  2  5  1 -1</clus>
<clus scale="   89.936">  7  8 -1 -1</clus>
<clus scale="   42.057">  2  5  1 -1</clus>
</clustering>
</event>
<event>
 9    2  0.3745229E-005  0.1304530E+03  0.7546771E-02  0.1228944E+00
         21   -1    0    0  501  502  0.00000000000E+00  0.00000000000E+00  0.80433120259E+02  0.80433120259E+02  0.00000000000E+00 0.  1.
          2   -1    0    0  502    0 -0.00000000000E+00 -0.00000000000E+00 -0.34241635867E+03  0.34241635867E+03  0.00000000000E+00 0. -1.
         24    2    1    2    0    0  0.96836561190E+02 -0.10763729369E+02 -0.13207402020E+03  0.18427812322E+03  0.83795599137E+02 0.  0.
         23    2    1    2    0    0 -0.83193631235E+02 -0.10133316622E+02 -0.20292715874E+02  0.12614985574E+03  0.92076747348E+02 0.  0.
        -11    1    3    3    0    0  0.49555300914E+02 -0.27941670322E+02 -0.11961287854E+03  0.13245265381E+03  0.00000000000E+00 0.  1.
         12    1    3    3    0    0  0.47281260276E+02  0.17177940953E+02 -0.12461141661E+02  0.51825469416E+02  0.00000000000E+00 0. -1.
        -13    1    4    4    0    0 -0.40435969492E+02 -0.27593212051E+02  0.30358943449E+02  0.57603111265E+02  0.00000000000E+00 0.  1.
         13    1    4    4    0    0 -0.42757661743E+02  0.17459895428E+02 -0.50651659323E+02  0.68546744476E+02  0.00000000000E+00 0. -1.
          1    1    1    2  501    0 -0.13642929955E+02  0.20897045991E+02 -0.10961650234E+03  0.11242149996E+03  0.00000000000E+00 0. -1.
<scales pt_clust_5="13000.00000" pt_clust_6="13000.00000" pt_clust_7="13000.00000" pt_clust_8="13000.00000" pt_clust_9="24.95630"></scales>
<clustering>
<clus scale="   24.956">  1  9  2 -1</clus>
<clus scale="   83.796">  5  6 -1 -1</clus>
<clus scale="   92.077">  7  8 -1 -1</clus>
<clus scale="  124.746">  2  5  1 -1</clus>
<clus scale="   24.956">  1  5  2 -1</clus>
</clustering>
</event>
<event>
 9    2  0.3745229E-005  0.1389902E+03  0.7546771E-02  0.1231154E+00
          2   -1    0    0  502    0 -0.00000000000E+00  0.00000000000E+00  0.12480021212E+04  0.12480021212E+04  0.00000000000E+00 0. -1.
         21   -1    0    0  501  502  0.00000000000E+00 -0.00000000000E+00 -0.48808741493E+02  0.48808741493E+02  0.00000000000E+00 0. -1.
         23    2    1    2    0    0  0.17849128355E+02 -0.36119776975E+02  0.10800014390E+03  0.14619954374E+03  0.89928003628E+02 0.  0.
         24    2    1    2    0    0 -0.30125733773E+02  0.14414772154E+03  0.98295454370E+03  0.99719565380E+03  0.80705709329E+02 0.  0.
        -13    1    4    4    0    0 -0.14994032577E+02  0.85705971365E+02  0.32392238273E+03  0.33540430017E+03  0.00000000000E+00 0.  1.
         14    1    4    4    0    0 -0.15131701196E+02  0.58441750173E+02  0.65903216097E+03  0.66179135363E+03  0.00000000000E+00 0. -1.
        -13    1    3    3    0    0  0.15659413829E+02 -0.62830635662E+02  0.48372260664E+02  0.80825624779E+02  0.00000000000E+00 0.  1.
         13    1    3    3    0    0  0.21897145256E+01  0.26710858687E+02  0.59627883238E+02  0.65373918966E+02  0.00000000000E+00 0. -1.
          1    1    1    2  501    0  0.12276605418E+02 -0.10802794456E+03  0.10823869214E+03  0.15341566518E+03  0.00000000000E+00 0. -1.
<scales pt_clust_5="13000.00000" pt_clust_6="13000.00000" pt_clust_7="13000.00000" pt_clust_8="13000.00000" pt_clust_9="113.15854"></scales>
<clustering>
<clus scale="   80.706">  5  6 -1 -1</clus>
<clus scale="   89.928">  7  8 -1 -1</clus>
<clus scale="   98.541">  1  7  2 -1</clus>
<clus scale="  113.159">  2  9  1 -1</clus>
<clus scale="  113.159">  2  5  1 -1</clus>
</clustering>
</event>
<event>
 9    2  0.3745229E-005  0.1969676E+03  0.7546771E-02  0.1162233E+00
         21   -1    0    0  501  502  0.00000000000E+00  0.00000000000E+00  0.36595762492E+03  0.36595762492E+03  0.00000000000E+00 0.  1.
         -3   -1    0    0    0  501 -0.00000000000E+00 -0.00000000000E+00 -0.31235556489E+03  0.31235556489E+03  0.00000000000E+00 0.  1.
         23    2    1    2    0    0  0.27314159731E+01 -0.12660339787E+03 -0.29197845143E+02  0.15891979657E+03  0.91471889650E+02 0.  0.
         24    2    1    2    0    0 -0.16037787004E+03  0.10618839115E+03  0.22458336751E+03  0.30638699152E+03  0.80238793591E+02 0.  0.
        -11    1    4    4    0    0 -0.15978944857E+03  0.88970627509E+02  0.17203484519E+03  0.25108649584E+03  0.00000000000E+00 0.  1.
         12    1    4    4    0    0 -0.58842147168E+00  0.17217763638E+02  0.52548522315E+02  0.55300495676E+02  0.00000000000E+00 0. -1.
        -13    1    3    3    0    0 -0.23626285773E+02 -0.83554522414E+02 -0.54437571600E+02  0.10248418803E+03  0.00000000000E+00 0.  1.
         13    1    3    3    0    0  0.26357701746E+02 -0.43048875455E+02  0.25239726458E+02  0.56435608537E+02  0.00000000000E+00 0. -1.
         -4    1    1    2    0  502  0.15764645407E+03  0.20415006722E+02 -0.14178346234E+03  0.21300640172E+03  0.00000000000E+00 0.  1.
<scales pt_clust_5="13000.00000" pt_clust_6="13000.00000" pt_clust_7="13000.00000" pt_clust_8="13000.00000" pt_clust_9="179.88330"></scales>
<clustering>
<clus scale="   80.239">  5  6 -1 -1</clus>
<clus scale="   91.472">  7  8 -1 -1</clus>
<clus scale="  156.215">  2  7  1 -1</clus>
<clus scale="  179.883">  1  9  2 -1</clus>
<clus scale="  179.883">  1  5  2 -1</clus>
</clustering>
</event>
<event>
 9    2  0.4041469E-005  0.1273461E+03  0.7546771E-02  0.1246430E+00
         21   -1    0    0  501  502  0.00000000000E+00  0.00000000000E+00  0.12255121005E+03  0.12255121005E+03  0.00000000000E+00 0. -1.
          2   -1    0    0  502    0 -0.00000000000E+00 -0.00000000000E+00 -0.10251167160E+04  0.10251167160E+04  0.00000000000E+00 0. -1.
         23    2    1    2    0    0  0.15139017025E+02 -0.15879242147E+02 -0.16931393886E+03  0.19360219209E+03  0.91286684273E+02 0.  0.
         24    2    1    2    0    0  0.55682918899E+02  0.85221350776E+02 -0.81522897338E+03  0.82544081499E+03  0.79943692196E+02 0.  0.
        -11    1    4    4    0    0  0.22159460500E+02  0.19874459977E+02 -0.63476443509E+02  0.70109162951E+02  0.00000000000E+00 0.  1.
         12    1    4    4    0    0  0.33523458398E+02  0.65346890799E+02 -0.75175252987E+03  0.75533165204E+03  0.00000000000E+00 0. -1.
        -13    1    3    3    0    0 -0.11967662647E+02  0.29619756264E+02 -0.10778119331E+03  0.11241592654E+03  0.00000000000E+00 0. -1.
         13    1    3    3    0    0  0.27106679671E+02 -0.45498998411E+02 -0.61532745549E+02  0.81186265550E+02  0.00000000000E+00 0.  1.
          1    1    1    2  501    0 -0.70821935923E+02 -0.69342108629E+02  0.81977406290E+02  0.12862491897E+03  0.00000000000E+00 0. -1.
<scales pt_clust_5="13000.00000" pt_clust_6="13000.00000" pt_clust_7="13000.00000" pt_clust_8="13000.00000" pt_clust_9="99.12639"></scales>
<clustering>
<clus scale="   79.944">  5  6 -1 -1</clus>
<clus scale="   91.287">  7  8 -1 -1</clus>
<clus scale="   93.886">  2  7  1 -1</clus>
<clus scale="   99.126">  1  9  2 -1</clus>
<clus scale="   99.126">  1  5  2 -1</clus>
</clustering>
</event>
<event>
 9    2  0.3745229E-005  0.3035845E+03  0.7546771E-02  0.1119725E+00
         21   -1    0    0  501  502  0.00000000000E+00  0.00000000000E+00  0.32616515281E+03  0.32616515281E+03  0.00000000000E+00 0. -1.
          2   -1    0    0  502    0 -0.00000000000E+00 -0.00000000000E+00 -0.84455549288E+03  0.84455549288E+03  0.00000000000E+00 0. -1.
         23    2    1    2    0    0  0.74507071802E+02  0.12238777849E+02  0.72229140211E+01  0.11899900169E+03  0.91692423273E+02 0.  0.
         24    2    1    2    0    0 -0.18937289205E+03 -0.27797060669E+03 -0.65083676748E+03  0.73630368346E+03  0.73653689317E+02 0.  0.
        -13    1    4    4    0    0 -0.67067854172E+02 -0.48324292398E+02 -0.18746737287E+03  0.20488374799E+03  0.00000000000E+00 0.  1.
         14    1    4    4    0    0 -0.12230503787E+03 -0.22964631429E+03 -0.46336939461E+03  0.53141993547E+03  0.00000000000E+00 0. -1.
        -13    1    3    3    0    0  0.55038845235E+02 -0.35933474235E+02  0.12020490491E+02  0.66820515166E+02  0.00000000000E+00 0. -1.
         13    1    3    3    0    0  0.19468226567E+02  0.48172252084E+02 -0.47975764695E+01  0.52178486529E+02  0.00000000000E+00 0.  1.
          1    1    1    2  501    0  0.11486582024E+03  0.26573182884E+03  0.12522351339E+03  0.31541796053E+03  0.00000000000E+00 0. -1.
<scales pt_clust_5="13000.00000" pt_clust_6="13000.00000" pt_clust_7="13000.00000" pt_clust_8="13000.00000" pt_clust_9="294.51430"></scales>
<clustering>
<clus scale="   73.654">  5  6 -1 -1</clus>
<clus scale="   91.692">  7  8 -1 -1</clus>
<clus scale="  118.780">  2  7  1 -1</clus>
<clus scale="  294.514">  1  9  2 -1</clus>
<clus scale="  294.514">  1  5  2 -1</clus>
</clustering>
</event>
<event>
 9    2  0.3745229E-005  0.1077980E+03  0.7546771E-02  0.1269458E+00
         21   -1    0    0  501  502  0.00000000000E+00  0.00000000000E+00  0.25218890089E+03  0.25218890089E+03  0.00000000000E+00 0. -1.
          2   -1    0    0  502    0 -0.00000000000E+00 -0.00000000000E+00 -0.18717806167E+03  0.18717806167E+03  0.00000000000E+00 0. -1.
         23    2    1    2    0    0  0.43270812310E+02  0.42675146246E+02 -0.12161637929E+03  0.16336705448E+03  0.90579906547E+02 0.  0.
         24    2    1    2    0    0 -0.82255168528E+02  0.30769854007E+02  0.89955266789E+02  0.14848749951E+03  0.79018294218E+02 0.  0.
        -11    1    4    4    0    0 -0.34181671843E+02  0.29726695185E+01 -0.85929185043E+01  0.35370350613E+02  0.00000000000E+00 0.  1.
         12    1    4    4    0    0 -0.48073496685E+02  0.27797184489E+02  0.98548185293E+02  0.11311714889E+03  0.00000000000E+00 0. -1.
        -13    1    3    3    0    0  0.31584314429E+02 -0.61144957484E+01 -0.39411104567E+00  0.32173145630E+02  0.00000000000E+00 0.  1.
         13    1    3    3    0    0  0.11686497881E+02  0.48789641994E+02 -0.12122226825E+03  0.13119390885E+03  0.00000000000E+00 0. -1.
          1    1    1    2  501    0  0.38984356218E+02 -0.73445000253E+02  0.96671951729E+02  0.12751240858E+03  0.00000000000E+00 0. -1.
<scales pt_clust_5="13000.00000" pt_clust_6="13000.00000" pt_clust_7="13000.00000" pt_clust_8="13000.00000" pt_clust_9="83.15015"></scales>
<clustering>
<clus scale="   79.018">  5  6 -1 -1</clus>
<clus scale="   83.150">  1  9  2 -1</clus>
<clus scale="   90.580">  7  8 -1 -1</clus>
<clus scale="   98.283">  1  5  2 -1</clus>
<clus scale="   83.150">  1  5  2 -1</clus>
</clustering>
</event>
<event>
 9    2  0.3745229E-005  0.1558465E+03  0.7546771E-02  0.1206898E+00
         -1   -1    0    0    0  501 -0.00000000000E+00  0.00000000000E+00  0.41025159941E+03  0.41025159941E+03  0.00000000000E+00 0.  1.
         21   -1    0    0  501  502  0.00000000000E+00 -0.00000000000E+00 -0.10790172985E+03  0.10790172985E+03  0.00000000000E+00 0. -1.
         23    2    1    2    0    0  0.48335912191E+02 -0.54032291304E+02  0.46678608297E+02  0.12543381165E+03  0.91098297026E+02 0.  0.
         24    2    1    2    0    0  0.78590710210E+02 -0.51330424357E+02  0.15864081868E+03  0.20133880774E+03  0.80988233444E+02 0.  0.
        -13    1    4    4    0    0  0.83471134933E+02 -0.49668657772E+02  0.16601456196E+03  0.19234146904E+03  0.00000000000E+00 0.  1.
         14    1    4    4    0    0 -0.48804247232E+01 -0.16617665850E+01 -0.73737432811E+01  0.89973386975E+01  0.00000000000E+00 0. -1.
        -11    1    3    3    0    0 -0.22521639850E+02 -0.17554688215E+02  0.34546051144E+02  0.44819872707E+02  0.00000000000E+00 0.  1.
         11    1    3    3    0    0  0.70857552041E+02 -0.36477603089E+02  0.12132557152E+02  0.80613938940E+02  0.00000000000E+00 0. -1.
         -2    1    1    2    0  502 -0.12692662240E+03  0.10536271566E+03  0.97030442585E+02  0.19138070988E+03  0.00000000000E+00 0.  1.
<scales pt_clust_5="13000.00000" pt_clust_6="13000.00000" pt_clust_7="13000.00000" pt_clust_8="13000.00000" pt_clust_9="133.15044"></scales>
<clustering>
<clus scale="   80.988">  5  6 -1 -1</clus>
<clus scale="   91.098">  7  8 -1 -1</clus>
<clus scale="  116.425">  1  7  2 -1</clus>
<clus scale="  133.150">  2  9  1 -1</clus>
<clus scale="  133.150">  2  5  1 -1</clus>
</clustering>
</event>
<event>
 9    2  0.3745229E-005  0.1011482E+03  0.7546771E-02  0.1282772E+00
         21   -1    0    0  501  502  0.00000000000E+00  0.00000000000E+00  0.12503826479E+03  0.12503826479E+03  0.00000000000E+00 0.  1.
         -1   -1    0    0    0  501 -0.00000000000E+00 -0.00000000000E+00 -0.98733926511E+02  0.98733926511E+02  0.00000000000E+00 0.  1.
         24    2    1    2    0    0  0.25991990087E+02  0.43462632617E+02 -0.29669701463E+01  0.95291633852E+02  0.80666651026E+02 0.  0.
         23    2    1    2    0    0 -0.34658822030E+02 -0.19299521839E+02  0.27234184349E+02  0.10272944538E+03  0.90763057810E+02 0.  0.
        -13    1    3    3    0    0 -0.16034327529E+02  0.15843965366E+02 -0.30525427906E+02  0.37946444454E+02  0.00000000000E+00 0.  1.
         14    1    3    3    0    0  0.42026317615E+02  0.27618667250E+02  0.27558457760E+02  0.57345189398E+02  0.00000000000E+00 0. -1.
        -11    1    4    4    0    0  0.16866908621E+02 -0.36705996883E+02 -0.29947131696E+01  0.40506679949E+02  0.00000000000E+00 0. -1.
         11    1    4    4    0    0 -0.51525730651E+02  0.17406475043E+02  0.30228897518E+02  0.62222765429E+02  0.00000000000E+00 0.  1.
         -2    1    1    2    0  502  0.86668319435E+01 -0.24163110778E+02  0.20371240774E+01  0.25751112071E+02  0.00000000000E+00 0.  1.
<scales pt_clust_5="13000.00000" pt_clust_6="13000.00000" pt_clust_7="13000.00000" pt_clust_8="13000.00000" pt_clust_9="25.67042"></scales>
<clustering>
<clus scale="   25.670">  1  9  2 -1</clus>
<clus scale="   80.667">  5  6 -1 -1</clus>
<clus scale="   90.763">  7  8 -1 -1</clus>
<clus scale="   92.196">  2  5  1 -1</clus>
<clus scale="   25.670">  1  5  2 -1</clus>
</clustering>
</event>
<event>
 9    2  0.3745229E-005  0.2473123E+03  0.7546771E-02  0.1144934E+00
         21   -1    0    0  501  502  0.00000000000E+00  0.00000000000E+00  0.46413362263E+02  0.46413362263E+02  0.00000000000E+00 0. -1.
          2   -1    0    0  502    0 -0.00000000000E+00 -0.00000000000E+00 -0.24251489985E+04  0.24251489985E+04  0.00000000000E+00 0. -1.
         23    2    1    2    0    0  0.77777776905E+02  0.12462829232E+01 -0.20098286770E+03  0.23336428749E+03  0.89520063473E+02 0.  0.
         24    2    1    2    0    0  0.13843855446E+03  0.13319251897E+03 -0.14959102468E+04  0.15103708150E+04  0.81037349036E+02 0.  0.
        -13    1    4    4    0    0  0.54217205921E+02  0.21302409681E+02 -0.25425121847E+03  0.26083899281E+03  0.00000000000E+00 0.  1.
         14    1    4    4    0    0  0.84221348536E+02  0.11189010929E+03 -0.12416590283E+04  0.12495318222E+04  0.00000000000E+00 0. -1.
        -13    1    3    3    0    0 -0.51172694110E+01 -0.24533332665E+02 -0.84196606327E+02  0.87847250240E+02  0.00000000000E+00 0.  1.
         13    1    3    3    0    0  0.82895046316E+02  0.25779615588E+02 -0.11678626138E+03  0.14551703725E+03  0.00000000000E+00 0. -1.
          1    1    1    2  501    0 -0.21621633136E+03 -0.13443880189E+03 -0.68184252176E+03  0.72782725827E+03  0.00000000000E+00 0. -1.
<scales pt_clust_5="13000.00000" pt_clust_6="13000.00000" pt_clust_7="13000.00000" pt_clust_8="13000.00000" pt_clust_9="233.65856"></scales>
<clustering>
<clus scale="   81.037">  5  6 -1 -1</clus>
<clus scale="   89.520">  7  8 -1 -1</clus>
<clus scale="  118.595">  2  7  1 -1</clus>
<clus scale="  233.659">  1  9  2 -1</clus>
<clus scale="  233.659">  1  5  2 -1</clus>
</clustering>
</event>
<event>
 9    2  0.3745229E-005  0.3577377E+03  0.7546771E-02  0.1106102E+00
         21   -1    0    0  501  502  0.00000000000E+00  0.00000000000E+00  0.21955754930E+03  0.21955754930E+03  0.00000000000E+00 0. -1.
          2   -1    0    0  502    0 -0.00000000000E+00 -0.00000000000E+00 -0.77437170490E+03  0.77437170490E+03  0.00000000000E+00 0. -1.
         23    2    1    2    0    0 -0.44109499430E+02  0.18369609780E+02 -0.10405144235E+02  0.10304089734E+03  0.90697679104E+02 0.  0.
         24    2    1    2    0    0  0.24071029590E+03 -0.27797430568E+03 -0.28420961008E+03  0.47405481726E+03  0.93497091577E+02 0.  0.
        -11    1    4    4    0    0  0.70881494195E+02 -0.14240857821E+03 -0.15004292311E+03  0.21867159885E+03  0.00000000000E+00 0.  1.
         12    1    4    4    0    0  0.16982880171E+03 -0.13556572747E+03 -0.13416668697E+03  0.25538321841E+03  0.00000000000E+00 0. -1.
        -13    1    3    3    0    0  0.26687026085E+01  0.24838632336E+02  0.31293687555E+02  0.40042159167E+02  0.00000000000E+00 0. -1.
         13    1    3    3    0    0 -0.46778202039E+02 -0.64690225565E+01 -0.41698831790E+02  0.62998738174E+02  0.00000000000E+00 0.  1.
          1    1    1    2  501    0 -0.19660079647E+03  0.25960469590E+03 -0.26019940129E+03  0.41683353960E+03  0.00000000000E+00 0. -1.
<scales pt_clust_5="13000.00000" pt_clust_6="13000.00000" pt_clust_7="13000.00000" pt_clust_8="13000.00000" pt_clust_9="345.30360"></scales>
<clustering>
<clus scale="   90.698">  7  8 -1 -1</clus>
<clus scale="   93.497">  5  6 -1 -1</clus>
<clus scale="  102.514">  2  7  1 -1</clus>
<clus scale="  345.304">  1  9  2 -1</clus>
<clus scale="  345.304">  1  5  2 -1</clus>
</clustering>
</event>
<event>
 9    2  0.3745229E-005  0.1637904E+03  0.7546771E-02  0.1185913E+00
         21   -1    0    0  501  502  0.00000000000E+00  0.00000000000E+00  0.49399735834E+02  0.49399735834E+02  0.00000000000E+00 0. -1.
          2   -1    0    0  502    0 -0.00000000000E+00 -0.00000000000E+00 -0.13804958815E+04  0.13804958815E+04  0.00000000000E+00 0. -1.
         24    2    1    2    0    0 -0.36643724045E+01  0.13140466923E+03 -0.10176201109E+04  0.10293214431E+04  0.81678199970E+02 0.  0.
         23    2    1    2    0    0  0.53345886265E+02 -0.15588350673E+03 -0.27429379957E+03  0.33273087052E+03  0.91253999675E+02 0.  0.
        -13    1    3    3    0    0 -0.41755521150E+02  0.67047147732E+02 -0.46435910697E+03  0.47102889910E+03  0.00000000000E+00 0.  1.
         14    1    3    3    0    0  0.38091148745E+02  0.64357521493E+02 -0.55326100398E+03  0.55829254402E+03  0.00000000000E+00 0. -1.
        -13    1    4    4    0    0  0.50809964682E+02 -0.10443992993E+03 -0.25025161161E+03  0.27588987040E+03  0.00000000000E+00 0. -1.
         13    1    4    4    0    0  0.25359215832E+01 -0.51443576802E+02 -0.24042187967E+02  0.56841000120E+02  0.00000000000E+00 0.  1.
          1    1    1    2  501    0 -0.49681513860E+02  0.24478837509E+02 -0.39182235146E+02  0.67843303695E+02  0.00000000000E+00 0. -1.
<scales pt_clust_5="13000.00000" pt_clust_6="13000.00000" pt_clust_7="13000.00000" pt_clust_8="13000.00000" pt_clust_9="55.38471"></scales>
<clustering>
<clus scale="   55.385">  1  9  2 -1</clus>
<clus scale="   81.678">  5  6 -1 -1</clus>
<clus scale="   91.254">  7  8 -1 -1</clus>
<clus scale="  158.655">  2  5  1 -1</clus>
<clus scale="   55.385">  1  5  2 -1</clus>
</clustering>
</event>
<event>
 9    2  0.3745229E-005  0.1951099E+03  0.7546771E-02  0.1188475E+00
          2   -1    0    0  502    0 -0.00000000000E+00  0.00000000000E+00  0.65806929000E+03  0.65806929000E+03  0.00000000000E+00 0. -1.
         21   -1    0    0  501  502  0.00000000000E+00 -0.00000000000E+00 -0.94068587592E+02  0.94068587592E+02  0.00000000000E+00 0. -1.
         24    2    1    2    0    0  0.29075253888E+02 -0.14271306026E+02  0.81295718640E+02  0.12029679675E+03  0.82542624596E+02 0.  0.
         23    2    1    2    0    0 -0.19293122477E+02 -0.16207698912E+03  0.38981899850E+03  0.43228603190E+03  0.90946065375E+02 0.  0.
        -13    1    3    3    0    0  0.16372469833E+02  0.19382736487E+02 -0.58334395728E+01  0.26034155631E+02  0.00000000000E+00 0.  1.
         14    1    3    3    0    0  0.12702784055E+02 -0.33654042514E+02  0.87129158213E+02  0.94262641121E+02  0.00000000000E+00 0. -1.
        -11    1    4    4    0    0  0.35211944632E+02 -0.51851353573E+02  0.10922176743E+03  0.12592790951E+03  0.00000000000E+00 0.  1.
         11    1    4    4    0    0 -0.54505067109E+02 -0.11022563555E+03  0.28059723107E+03  0.30635812240E+03  0.00000000000E+00 0. -1.
          1    1    1    2  501    0 -0.97821314109E+01  0.17634829515E+03  0.92885985265E+02  0.19955504894E+03  0.00000000000E+00 0. -1.
<scales pt_clust_5="13000.00000" pt_clust_6="13000.00000" pt_clust_7="13000.00000" pt_clust_8="13000.00000" pt_clust_9="172.61714"></scales>
<clustering>
<clus scale="   82.543">  5  6 -1 -1</clus>
<clus scale="   88.670">  1  5  2 -1</clus>
<clus scale="   90.946">  7  8 -1 -1</clus>
<clus scale="  172.617">  2  9  1 -1</clus>
<clus scale="  172.617">  2  5  1 -1</clus>
</clustering>
</event>
<event>
 9    2  0.3745229E-005  0.1035796E+03  0.7546771E-02  0.1275142E+00
         21   -1    0    0  501  502  0.00000000000E+00  0.00000000000E+00  0.61542967388E+03  0.61542967388E+03  0.00000000000E+00 0.  1.
         -3   -1    0    0    0  501 -0.00000000000E+00 -0.00000000000E+00 -0.25943052856E+02  0.25943052856E+02  0.00000000000E+00 0.  1.
         24    2    1    2    0    0  0.50901267648E+02 -0.17748204304E+02  0.12603216062E+03  0.16239538212E+03  0.87075925601E+02 0.  0.
         23    2    1    2    0    0 -0.30504728760E+02  0.12208184207E+02  0.34047586175E+03  0.35419575003E+03  0.91930618749E+02 0.  0.
        -13    1    3    3    0    0  0.72891572826E+02 -0.27840084701E+02  0.91884201426E+02  0.12054442408E+03  0.00000000000E+00 0.  1.
         14    1    3    3    0    0 -0.21990305178E+02  0.10091880397E+02  0.34147959190E+02  0.41850958037E+02  0.00000000000E+00 0. -1.
        -11    1    4    4    0    0  0.25855148756E+02 -0.19601235449E+02  0.97959069642E+02  0.10319242450E+03  0.00000000000E+00 0.  1.
         11    1    4    4    0    0 -0.56359877516E+02  0.31809419656E+02  0.24251679211E+03  0.25100332553E+03  0.00000000000E+00 0. -1.
         -4    1    1    2    0  502 -0.20396538888E+02  0.55400200974E+01  0.12297859865E+03  0.12478159459E+03  0.00000000000E+00 0.  1.
<scales pt_clust_5="13000.00000" pt_clust_6="13000.00000" pt_clust_7="13000.00000" pt_clust_8="13000.00000" pt_clust_9="21.13553"></scales>
<clustering>
<clus scale="   21.136">  1  9  2 -1</clus>
<clus scale="   87.076">  5  6 -1 -1</clus>
<clus scale="   91.931">  7  8 -1 -1</clus>
<clus scale="   99.296">  2  5  1 -1</clus>
<clus scale="   21.136">  1  5  2 -1</clus>
</clustering>
</event>
<event>
 9    2  0.3745229E-005  0.2573540E+03  0.7546771E-02  0.1140516E+00
         21   -1    0    0  501  502  0.00000000000E+00  0.00000000000E+00  0.39079513550E+03  0.39079513550E+03  0.00000000000E+00 0. -1.
          2   -1    0    0  502    0 -0.00000000000E+00 -0.00000000000E+00 -0.29789880640E+03  0.29789880640E+03  0.00000000000E+00 0. -1.
         23    2    1    2    0    0  0.19237719204E+02 -0.70471606402E+02  0.29924608722E+02  0.12078632896E+03  0.91419461320E+02 0.  0.
         24    2    1    2    0    0  0.93803784378E+02  0.24380494268E+03  0.18280790629E+03  0.32877681515E+03  0.80221340908E+02 0.  0.
        -13    1    4    4    0    0  0.68623451696E+02  0.73130506846E+02  0.76481550087E+02  0.12612167402E+03  0.00000000000E+00 0.  1.
         14    1    4    4    0    0  0.25180332682E+02  0.17067443583E+03  0.10632635620E+03  0.20265514112E+03  0.00000000000E+00 0. -1.
        -11    1    3    3    0    0 -0.17017570426E+02 -0.14998245464E+02  0.47142467829E+02  0.52315937755E+02  0.00000000000E+00 0. -1.
         11    1    3    3    0    0  0.36255289630E+02 -0.55473360939E+02 -0.17217859107E+02  0.68470391208E+02  0.00000000000E+00 0.  1.
          1    1    1    2  501    0 -0.11304150358E+03 -0.17333333628E+03 -0.11983618591E+03  0.23913079779E+03  0.00000000000E+00 0. -1.
<scales pt_clust_5="13000.00000" pt_clust_6="13000.00000" pt_clust_7="13000.00000" pt_clust_8="13000.00000" pt_clust_9="244.53152"></scales>
<clustering>
<clus scale="   80.221">  5  6 -1 -1</clus>
<clus scale="   91.419">  7  8 -1 -1</clus>
<clus scale="  117.021">  2  7  1 -1</clus>
<clus scale="  244.532">  1  9  2 -1</clus>
<clus scale="  244.532">  1  5  2 -1</clus>
</clustering>
</event>
<event>
 9    2  0.3745229E-005  0.1319288E+03  0.7546771E-02  0.1248680E+00
          2   -1    0    0  502    0 -0.00000000000E+00  0.00000000000E+00  0.10484201849E+04  0.10484201849E+04  0.00000000000E+00 0. -1.
         21   -1    0    0  501  502  0.00000000000E+00 -0.00000000000E+00 -0.24606479026E+02  0.24606479026E+02  0.00000000000E+00 0.  1.
         24    2    1    2    0    0 -0.13834882432E+02  0.11206162483E+02  0.23746370675E+03  0.25080554866E+03  0.78723752257E+02 0.  0.
         23    2    1    2    0    0  0.21494907932E+02  0.90549746073E+02  0.32695561387E+03  0.35162984662E+03  0.89901546214E+02 0.  0.
        -13    1    3    3    0    0 -0.13654501258E+02  0.37822415520E+02  0.20460485245E+03  0.20851888683E+03  0.00000000000E+00 0.  1.
         14    1    3    3    0    0 -0.18038117419E+00 -0.26616253037E+02  0.32858854300E+02  0.42286661833E+02  0.00000000000E+00 0. -1.
        -11    1    4    4    0    0  0.51907217051E+02  0.79901295780E+02  0.26814293579E+03  0.28456846323E+03  0.00000000000E+00 0. -1.
         11    1    4    4    0    0 -0.30412309118E+02  0.10648450293E+02  0.58812678074E+02  0.67061383387E+02  0.00000000000E+00 0.  1.
          1    1    1    2  501    0 -0.76600255006E+01 -0.10175590856E+03  0.45939438531E+03  0.47059126869E+03  0.00000000000E+00 0. -1.
<scales pt_clust_5="13000.00000" pt_clust_6="13000.00000" pt_clust_7="13000.00000" pt_clust_8="13000.00000" pt_clust_9="96.55533"></scales>
<clustering>
<clus scale="   78.724">  5  6 -1 -1</clus>
<clus scale="   80.712">  1  5  2 -1</clus>
<clus scale="   89.902">  7  8 -1 -1</clus>
<clus scale="   96.555">  2  9  1 -1</clus>
<clus scale="   96.555">  2  5  1 -1</clus>
</clustering>
</event>
<event>
 9    2  0.3745229E-005  0.1167200E+03  0.7546771E-02  0.1252791E+00
         -1   -1    0    0    0  501 -0.00000000000E+00  0.00000000000E+00  0.13183756619E+03  0.13183756619E+03  0.00000000000E+00 0.  1.
         21   -1    0    0  501  502  0.00000000000E+00 -0.00000000000E+00 -0.41073643410E+03  0.41073643410E+03  0.00000000000E+00 0.  1.
         24    2    1    2    0    0 -0.17921174400E+02  0.93669624116E+02  0.61318985800E+02  0.13821895329E+03  0.79052476597E+02 0.  0.
         23    2    1    2    0    0  0.14113390546E+02 -0.21969677984E+02 -0.54020377856E+02  0.10928831442E+03  0.91344840583E+02 0.  0.
        -11    1    3    3    0    0 -0.52575164590E+00  0.95598358724E+02  0.70187263292E+02  0.11859837492E+03  0.00000000000E+00 0.  1.
         12    1    3    3    0    0 -0.17395422755E+02 -0.19287346081E+01 -0.88682774918E+01  0.19620578372E+02  0.00000000000E+00 0. -1.
        -11    1    4    4    0    0  0.45434554494E+02  0.12033798949E+02 -0.16720063775E+02  0.49886587294E+02  0.00000000000E+00 0.  1.
         11    1    4    4    0    0 -0.31321163948E+02 -0.34003476934E+02 -0.37300314081E+02  0.59401727123E+02  0.00000000000E+00 0. -1.
         -2    1    1    2    0  502  0.38077838547E+01 -0.71699946132E+02 -0.28619747586E+03  0.29506673259E+03  0.00000000000E+00 0.  1.
<scales pt_clust_5="13000.00000" pt_clust_6="13000.00000" pt_clust_7="13000.00000" pt_clust_8="13000.00000" pt_clust_9="71.80099"></scales>
<clustering>
<clus scale="   71.801">  2  9  1 -1</clus>
<clus scale="   79.052">  5  6 -1 -1</clus>
<clus scale="   91.345">  7  8 -1 -1</clus>
<clus scale="  107.373">  1  5  2 -1</clus>
<clus scale="   71.801">  2  5  1 -1</clus>
</clustering>
</event>
<event>
 9    2  0.3745229E-005  0.1052426E+03  0.7546771E-02  0.1273102E+00
          2   -1    0    0  502    0 -0.00000000000E+00  0.00000000000E+00  0.83127741897E+03  0.83127741897E+03  0.00000000000E+00 0. -1.
         21   -1    0    0  501  502  0.00000000000E+00 -0.00000000000E+00 -0.57495243105E+02  0.57495243105E+02  0.00000000000E+00 0. -1.
         23    2    1    2    0    0  0.23317369219E+02 -0.34897985557E+02  0.42363483716E+03  0.43540312240E+03  0.91366485331E+02 0.  0.
         24    2    1    2    0    0 -0.11562566363E+03  0.69116090366E+02  0.10505436261E+03  0.18924406410E+03  0.81428303780E+02 0.  0.
        -11    1    4    4    0    0 -0.23588590659E+02 -0.18681911309E+02  0.17258475859E+02  0.34688476594E+02  0.00000000000E+00 0.  1.
         12    1    4    4    0    0 -0.92037072971E+02  0.87798001675E+02  0.87795886748E+02  0.15455558751E+03  0.00000000000E+00 0. -1.
        -13    1    3    3    0    0  0.55568927729E+02 -0.16383679880E+02  0.32218254297E+03  0.32734984602E+03  0.00000000000E+00 0.  1.
         13    1    3    3    0    0 -0.32251558509E+02 -0.18514305677E+02  0.10145229418E+03  0.10805327638E+03  0.00000000000E+00 0. -1.
          1    1    1    2  501    0  0.92308294410E+02 -0.34218104809E+02  0.24509297610E+03  0.26412547558E+03  0.00000000000E+00 0. -1.
<scales pt_clust_5="13000.00000" pt_clust_6="13000.00000" pt_clust_7="13000.00000" pt_clust_8="13000.00000" pt_clust_9="98.44648"></scales>
<clustering>
<clus scale="   81.428">  5  6 -1 -1</clus>
<clus scale="   91.366">  7  8 -1 -1</clus>
<clus scale="   98.446">  2  9  1 -1</clus>
<clus scale="   98.446">  2  5  1 -1</clus>
<clus scale="   98.446">  2  5  1 -1</clus>
</clustering>
</event>
<event>
 9    2  0.3745229E-005  0.9602422E+02  0.7546771E-02  0.1294593E+00
         -3   -1    0    0    0  501 -0.00000000000E+00  0.00000000000E+00  0.60269138512E+03  0.60269138512E+03  0.00000000000E+00 0.  1.
         21   -1    0    0  501  502  0.00000000000E+00 -0.00000000000E+00 -0.23889938606E+02  0.23889938606E+02  0.00000000000E+00 0.  1.
         24    2    1    2    0    0  0.27147974583E+02 -0.24823670066E+02  0.39883503765E+03  0.40851220188E+03  0.80371666102E+02 0.  0.
         23    2    1    2    0    0 -0.19719156145E+02 -0.21783480354E+01  0.11873295214E+03  0.15073538180E+03  0.90719628994E+02 0.  0.
        -13    1    3    3    0    0  0.49875194585E+02 -0.34326757249E+02  0.22765757131E+03  0.23557128660E+03  0.00000000000E+00 0.  1.
         14    1    3    3    0    0 -0.22727220003E+02  0.95030871830E+01  0.17117746634E+03  0.17294091528E+03  0.00000000000E+00 0. -1.
        -13    1    4    4    0    0 -0.50271947709E+02 -0.27379374839E+01  0.10653587936E+03  0.11783318131E+03  0.00000000000E+00 0. -1.
         13    1    4    4    0    0  0.30552791564E+02  0.55958944847E+00  0.12197072783E+02  0.32902200492E+02  0.00000000000E+00 0.  1.
         -4    1    1    2    0  502 -0.74288184382E+01  0.27002018101E+02  0.61233456729E+02  0.67333740041E+02  0.00000000000E+00 0.  1.
<scales pt_clust_5="13000.00000" pt_clust_6="13000.00000" pt_clust_7="13000.00000" pt_clust_8="13000.00000" pt_clust_9="28.00529"></scales>
<clustering>
<clus scale="   28.005">  2  9  1 -1</clus>
<clus scale="   80.372">  5  6 -1 -1</clus>
<clus scale="   86.315">  1  5  2 -1</clus>
<clus scale="   90.720">  7  8 -1 -1</clus>
<clus scale="   28.005">  2  5  1 -1</clus>
</clustering>
</event>
<event>
 9    2  0.3745229E-005  0.1045107E+03  0.7546771E-02  0.1279979E+00
         21   -1    0    0  501  502  0.00000000000E+00  0.00000000000E+00  0.32716299814E+03  0.32716299814E+03  0.00000000000E+00 0.  1.
         -1   -1    0    0    0  501 -0.00000000000E+00 -0.00000000000E+00 -0.78366483518E+02  0.78366483518E+02  0.00000000000E+00 0.  1.
         24    2    1    2    0    0 -0.15789459943E+00 -0.67902685347E+02  0.10071654173E+02  0.10325769813E+03  0.77135688214E+02 0.  0.
         23    2    1    2    0    0 -0.58730901712E+01  0.32484123874E+01  0.61990768363E+02  0.11398613061E+03  0.95419794796E+02 0.  0.
        -11    1    3    3    0    0  0.23086776020E+02 -0.48691423478E+02 -0.22921177093E+02  0.58559664502E+02  0.00000000000E+00 0.  1.
         12    1    3    3    0    0 -0.23244670619E+02 -0.19211261869E+02  0.32992831266E+02  0.44698033623E+02  0.00000000000E+00 0. -1.
        -13    1    4    4    0    0 -0.45886007275E+02 -0.15236114793E+02  0.17662681330E+02  0.51474607035E+02  0.00000000000E+00 0.  1.
         13    1    4    4    0    0  0.40012917104E+02  0.18484527180E+02  0.44328087034E+02  0.62511523580E+02  0.00000000000E+00 0. -1.
         -2    1    1    2    0  502  0.60309847706E+01  0.64654272959E+02  0.17673409208E+03  0.18828565291E+03  0.00000000000E+00 0.  1.
<scales pt_clust_5="13000.00000" pt_clust_6="13000.00000" pt_clust_7="13000.00000" pt_clust_8="13000.00000" pt_clust_9="64.93495"></scales>
<clustering>
<clus scale="   64.935">  1  9  2 -1</clus>
<clus scale="   77.136">  5  6 -1 -1</clus>
<clus scale="   88.133">  2  5  1 -1</clus>
<clus scale="   95.420">  7  8 -1 -1</clus>
<clus scale="   64.935">  1  5  2 -1</clus>
</clustering>
</event>
<event>
 9    2  0.3745229E-005  0.9206314E+02  0.7546771E-02  0.1304180E+00
          2   -1    0    0  502    0 -0.00000000000E+00  0.00000000000E+00  0.42205699228E+03  0.42205699228E+03  0.00000000000E+00 0. -1.
         21   -1    0    0  501  502  0.00000000000E+00 -0.00000000000E+00 -0.10242991447E+03  0.10242991447E+03  0.00000000000E+00 0.  1.
         23    2    1    2    0    0  0.59732494891E+01  0.68520360135E+00  0.38213882982E+03  0.39304213456E+03  0.91738133143E+02 0.  0.
         24    2    1    2    0    0 -0.26170176627E+02 -0.18369898577E+02 -0.40039877140E+02  0.96435495379E+02  0.81696277083E+02 0.  0.
        -13    1    4    4    0    0 -0.34785774850E+02 -0.33441819776E+01 -0.60353073896E+02  0.69740427398E+02  0.00000000000E+00 0.  1.
         14    1    4    4    0    0  0.86155982228E+01 -0.15025716599E+02  0.20313196756E+02  0.26695067981E+02  0.00000000000E+00 0. -1.
        -13    1    3    3    0    0 -0.35906379887E+02  0.21641977638E+02  0.23239454074E+03  0.23614585721E+03  0.00000000000E+00 0.  1.
         13    1    3    3    0    0  0.41879629376E+02 -0.20956774037E+02  0.14974428908E+03  0.15689627735E+03  0.00000000000E+00 0. -1.
          1    1    1    2  501    0  0.20196927138E+02  0.17684694975E+02 -0.22471874866E+02  0.35009276802E+02  0.00000000000E+00 0. -1.
<scales pt_clust_5="13000.00000" pt_clust_6="13000.00000" pt_clust_7="13000.00000" pt_clust_8="13000.00000" pt_clust_9="26.84519"></scales>
<clustering>
<clus scale="   26.845">  2  9  1 -1</clus>
<clus scale="   81.696">  5  6 -1 -1</clus>
<clus scale="   82.061">  2  5  1 -1</clus>
<clus scale="   91.738">  7  8 -1 -1</clus>
<clus scale="   26.845">  2  5  1 -1</clus>
</clustering>
</event>
<event>
 9    2  0.3745229E-005  0.1383518E+03  0.7546771E-02  0.1219304E+00
         21   -1    0    0  501  502  0.00000000000E+00  0.00000000000E+00  0.29643801937E+03  0.29643801937E+03  0.00000000000E+00 0. -1.
         -1   -1    0    0    0  501 -0.00000000000E+00 -0.00000000000E+00 -0.15461793253E+03  0.15461793253E+03  0.00000000000E+00 0.  1.
         24    2    1    2    0    0 -0.92871741241E+02 -0.71565790165E+02 -0.55798474172E+02  0.15279620697E+03  0.80538118321E+02 0.  0.
         23    2    1    2    0    0  0.18320720903E+02  0.21387621725E+02  0.18086835605E+03  0.20684709488E+03  0.96329015678E+02 0.  0.
        -13    1    3    3    0    0 -0.87008729651E+01 -0.29892568330E+02  0.15594279255E+02  0.34820286862E+02  0.00000000000E+00 0.  1.
         14    1    3    3    0    0 -0.84170868276E+02 -0.41673221835E+02 -0.71392753427E+02  0.11797592011E+03  0.00000000000E+00 0. -1.
        -13    1    4    4    0    0  0.46847786682E+02  0.39467753016E+01  0.38977632653E+02  0.61070025377E+02  0.00000000000E+00 0.  1.
         13    1    4    4    0    0 -0.28527065779E+02  0.17440846423E+02  0.14189072340E+03  0.14577706950E+03  0.00000000000E+00 0. -1.
         -2    1    1    2    0  502  0.74551020338E+02  0.50178168440E+02  0.16750204959E+02  0.91412650041E+02  0.00000000000E+00 0.  1.
<scales pt_clust_5="13000.00000" pt_clust_6="13000.00000" pt_clust_7="13000.00000" pt_clust_8="13000.00000" pt_clust_9="89.86496"></scales>
<clustering>
<clus scale="   80.538">  5  6 -1 -1</clus>
<clus scale="   89.865">  1  9  2 -1</clus>
<clus scale="   96.329">  7  8 -1 -1</clus>
<clus scale="  127.861">  2  5  1 -1</clus>
<clus scale="   89.865">  1  5  2 -1</clus>
</clustering>
</event>
<event>
 9    2  0.3745229E-005  0.1375800E+03  0.7546771E-02  0.1218236E+00
         21   -1    0    0  501  502  0.00000000000E+00  0.00000000000E+00  0.99477991634E+02  0.99477991634E+02  0.00000000000E+00 0. -1.
          2   -1    0    0  502    0 -0.00000000000E+00 -0.00000000000E+00 -0.33435200953E+03  0.33435200953E+03  0.00000000000E+00 0. -1.
         23    2    1    2    0    0 -0.84482434782E+02  0.65050998745E+02 -0.19691135071E+03  0.24186905967E+03  0.91420171521E+02 0.  0.
         24    2    1    2    0    0  0.59689278802E+02 -0.69653236235E+02  0.22342302265E+02  0.12659603873E+03  0.84338574979E+02 0.  0.
        -13    1    4    4    0    0  0.24892062471E+01 -0.59164006151E+02 -0.99981951893E+01  0.60054472595E+02  0.00000000000E+00 0.  1.
         14    1    4    4    0    0  0.57200072555E+02 -0.10489230083E+02  0.32340497454E+02  0.66541566134E+02  0.00000000000E+00 0. -1.
        -11    1    3    3    0    0 -0.10237382528E+03  0.40697664392E+02 -0.15143367677E+03  0.18726681086E+03  0.00000000000E+00 0. -1.
         11    1    3    3    0    0  0.17891390495E+02  0.24353334353E+02 -0.45477673940E+02  0.54602248809E+02  0.00000000000E+00 0.  1.
          1    1    1    2  501    0  0.24793155980E+02  0.46022374898E+01 -0.60304969445E+02  0.65364902762E+02  0.00000000000E+00 0. -1.
<scales pt_clust_5="13000.00000" pt_clust_6="13000.00000" pt_clust_7="13000.00000" pt_clust_8="13000.00000" pt_clust_9="25.21670"></scales>
<clustering>
<clus scale="   25.217">  1  9  2 -1</clus>
<clus scale="   84.339">  5  6 -1 -1</clus>
<clus scale="   91.420">  7  8 -1 -1</clus>
<clus scale="  132.980">  1  5  2 -1</clus>
<clus scale="   25.217">  1  5  2 -1</clus>
</clustering>
</event>
<event>
 9    2  0.3745229E-005  0.1755412E+03  0.7546771E-02  0.1206181E+00
         21   -1    0    0  501  502  0.00000000000E+00  0.00000000000E+00  0.17632857567E+03  0.17632857567E+03  0.00000000000E+00 0.  1.
         -3   -1    0    0    0  501 -0.00000000000E+00 -0.00000000000E+00 -0.40185133090E+03  0.40185133090E+03  0.00000000000E+00 0.  1.
         24    2    1    2    0    0  0.41706920445E+01  0.21667593187E+02 -0.19431009154E+03  0.21119050056E+03  0.79737924383E+02 0.  0.
         23    2    1    2    0    0  0.40354778416E+02  0.12777896057E+03 -0.10682021898E+03  0.19368824512E+03  0.90269630601E+02 0.  0.
        -13    1    3    3    0    0  0.14725070455E+02  0.42235772804E+02 -0.17629845119E+03  0.18188411722E+03  0.00000000000E+00 0.  1.
         14    1    3    3    0    0 -0.10554378410E+02 -0.20568179617E+02 -0.18011640351E+02  0.29306383341E+02  0.00000000000E+00 0. -1.
        -13    1    4    4    0    0  0.55895772648E+02  0.85932413371E+02 -0.33497690867E+02  0.10784624408E+03  0.00000000000E+00 0.  1.
         13    1    4    4    0    0 -0.15540994232E+02  0.41846547197E+02 -0.73322528113E+02  0.85842001042E+02  0.00000000000E+00 0. -1.
         -4    1    1    2    0  502 -0.44525470460E+02 -0.14944655375E+03  0.75607555297E+02  0.17330116089E+03  0.00000000000E+00 0.  1.
<scales pt_clust_5="13000.00000" pt_clust_6="13000.00000" pt_clust_7="13000.00000" pt_clust_8="13000.00000" pt_clust_9="150.55266"></scales>
<clustering>
<clus scale="   79.738">  5  6 -1 -1</clus>
<clus scale="   82.735">  2  5  1 -1</clus>
<clus scale="   90.270">  7  8 -1 -1</clus>
<clus scale="  150.553">  1  9  2 -1</clus>
<clus scale="  150.553">  1  5  2 -1</clus>
</clustering>
</event>
<event>
 9    2  0.3745229E-005  0.1139772E+03  0.7546771E-02  0.1257421E+00
          2   -1    0    0  502    0 -0.00000000000E+00  0.00000000000E+00  0.11633154019E+03  0.11633154019E+03  0.00000000000E+00 0. -1.
         21   -1    0    0  501  502  0.00000000000E+00 -0.00000000000E+00 -0.15157804490E+03  0.15157804490E+03  0.00000000000E+00 0.  1.
         24    2    1    2    0    0 -0.94743305767E+01 -0.76453171936E+02  0.12129754515E+02  0.11158293235E+03  0.79804570102E+02 0.  0.
         23    2    1    2    0    0 -0.88956471566E+00  0.59246944104E+02 -0.42152432362E+01  0.10872058271E+03  0.91057153034E+02 0.  0.
        -11    1    3    3    0    0  0.24503309678E+02 -0.87626834273E+01  0.23415817756E+02  0.35007103953E+02  0.00000000000E+00 0.  1.
         12    1    3    3    0    0 -0.33977640254E+02 -0.67690488508E+02 -0.11286063241E+02  0.76575828401E+02  0.00000000000E+00 0. -1.
        -13    1    4    4    0    0 -0.16195639011E+02  0.72969668751E+02 -0.25647565236E+02  0.79023217367E+02  0.00000000000E+00 0.  1.
         13    1    4    4    0    0  0.15306074296E+02 -0.13722724647E+02  0.21432322000E+02  0.29697365344E+02  0.00000000000E+00 0. -1.
          1    1    1    2  501    0  0.10363895292E+02  0.17206227832E+02 -0.43161015988E+02  0.47606070022E+02  0.00000000000E+00 0. -1.
<scales pt_clust_5="13000.00000" pt_clust_6="13000.00000" pt_clust_7="13000.00000" pt_clust_8="13000.00000" pt_clust_9="20.08643"></scales>
<clustering>
<clus scale="   20.086">  2  9  1 -1</clus>
<clus scale="   79.805">  5  6 -1 -1</clus>
<clus scale="   91.057">  7  8 -1 -1</clus>
<clus scale="  105.205">  1  5  2 -1</clus>
<clus scale="   20.086">  2  5  1 -1</clus>
</clustering>
</event>
<event>
 9    2  0.3745229E-005  0.9413544E+02  0.7546771E-02  0.1297562E+00
         21   -1    0    0  501  502  0.00000000000E+00  0.00000000000E+00  0.32430079100E+02  0.32430079100E+02  0.00000000000E+00 0.  1.
         -1   -1    0    0    0  501 -0.00000000000E+00 -0.00000000000E+00 -0.60439035571E+03  0.60439035571E+03  0.00000000000E+00 0.  1.
         24    2    1    2    0    0 -0.22506959622E+02 -0.44792490641E+01 -0.26148690315E+03  0.27427708512E+03  0.79535476350E+02 0.  0.
         23    2    1    2    0    0  0.22758117493E+02  0.71346568972E+02 -0.23485909072E+03  0.26160365826E+03  0.87575205998E+02 0.  0.
        -13    1    3    3    0    0 -0.35354561854E+02  0.21891994820E+02 -0.21727603793E+03  0.22121953155E+03  0.00000000000E+00 0.  1.
         14    1    3    3    0    0  0.12847602231E+02 -0.26371243884E+02 -0.44210865225E+02  0.53057553572E+02  0.00000000000E+00 0. -1.
        -11    1    4    4    0    0  0.49193758805E+02  0.41980577162E+02 -0.86077989360E+02  0.10766529161E+03  0.00000000000E+00 0. -1.
         11    1    4    4    0    0 -0.26435641312E+02  0.29365991810E+02 -0.14878110136E+03  0.15393836665E+03  0.00000000000E+00 0.  1.
         -2    1    1    2    0  502 -0.25115787089E+00 -0.66867319908E+02 -0.75614282737E+02  0.10093969143E+03  0.00000000000E+00 0.  1.
<scales pt_clust_5="13000.00000" pt_clust_6="13000.00000" pt_clust_7="13000.00000" pt_clust_8="13000.00000" pt_clust_9="66.86779"></scales>
<clustering>
<clus scale="   66.868">  1  9  2 -1</clus>
<clus scale="   79.535">  5  6 -1 -1</clus>
<clus scale="   86.706">  2  5  1 -1</clus>
<clus scale="   87.575">  7  8 -1 -1</clus>
<clus scale="   66.868">  1  5  2 -1</clus>
</clustering>
</event>
<event>
 9    2  0.3745229E-005  0.1093139E+03  0.7546771E-02  0.1266371E+00
         21   -1    0    0  501  502  0.00000000000E+00  0.00000000000E+00  0.15527393002E+03  0.15527393002E+03  0.00000000000E+00 0.  1.
         -1   -1    0    0    0  501 -0.00000000000E+00 -0.00000000000E+00 -0.12439947570E+03  0.12439947570E+03  0.00000000000E+00 0.  1.
         23    2    1    2    0    0  0.57123812221E+02 -0.10059311957E+02 -0.25105737241E+02  0.11077307871E+03  0.90972837945E+02 0.  0.
         24    2    1    2    0    0 -0.64610809177E+02 -0.20135399042E+02 -0.40598158001E+00  0.10450175392E+03  0.79627010456E+02 0.  0.
        -13    1    4    4    0    0 -0.79644517738E+02 -0.13648697749E+02  0.14807847869E+02  0.82151132156E+02  0.00000000000E+00 0.  1.
         14    1    4    4    0    0  0.15033708560E+02 -0.64867012934E+01 -0.15213829449E+02  0.22350621765E+02  0.00000000000E+00 0. -1.
        -13    1    3    3    0    0  0.70605665431E+01  0.25269432479E+02 -0.39886184142E+02  0.47742051728E+02  0.00000000000E+00 0. -1.
         13    1    3    3    0    0  0.50063245678E+02 -0.35328744436E+02  0.14780446902E+02  0.63031026978E+02  0.00000000000E+00 0.  1.
         -2    1    1    2    0  502  0.74869969559E+01  0.30194710999E+02  0.56386173135E+02  0.64398573094E+02  0.00000000000E+00 0.  1.
<scales pt_clust_5="13000.00000" pt_clust_6="13000.00000" pt_clust_7="13000.00000" pt_clust_8="13000.00000" pt_clust_9="31.10909"></scales>
<clustering>
<clus scale="   31.109">  1  9  2 -1</clus>
<clus scale="   79.627">  5  6 -1 -1</clus>
<clus scale="   90.973">  7  8 -1 -1</clus>
<clus scale="  100.070">  1  5  2 -1</clus>
<clus scale="   31.109">  1  5  2 -1</clus>
</clustering>
</event>
<event>
 9    2  0.3745229E-005  0.1041454E+03  0.7546771E-02  0.1277853E+00
         21   -1    0    0  501  502  0.00000000000E+00  0.00000000000E+00  0.27749348436E+03  0.27749348436E+03  0.00000000000E+00 0.  1.
         -1   -1    0    0    0  501 -0.00000000000E+00 -0.00000000000E+00 -0.58166003995E+02  0.58166003995E+02  0.00000000000E+00 0.  1.
         24    2    1    2    0    0 -0.53464908248E+02 -0.37572160079E+02  0.59938122284E+02  0.11983662798E+03  0.80610639973E+02 0.  0.
         23    2    1    2    0    0  0.24509559925E+02  0.47014695915E+01  0.81761951605E+02  0.12668864289E+03  0.93499589107E+02 0.  0.
        -13    1    3    3    0    0 -0.61938293719E+01  0.23825095993E+02  0.57425131322E+01  0.25277958352E+02  0.00000000000E+00 0.  1.
         14    1    3    3    0    0 -0.47271078876E+02 -0.61397256072E+02  0.54195609152E+02  0.94558669632E+02  0.00000000000E+00 0. -1.
        -13    1    4    4    0    0 -0.13779542831E+02 -0.22101131134E+02 -0.64750847715E+01  0.26837707071E+02  0.00000000000E+00 0. -1.
         13    1    4    4    0    0  0.38289102756E+02  0.26802600725E+02  0.88237036376E+02  0.99850935820E+02  0.00000000000E+00 0.  1.
         -2    1    1    2    0  502  0.28955348322E+02  0.32870690488E+02  0.77627406480E+02  0.89134217484E+02  0.00000000000E+00 0.  1.
<scales pt_clust_5="13000.00000" pt_clust_6="13000.00000" pt_clust_7="13000.00000" pt_clust_8="13000.00000" pt_clust_9="43.80519"></scales>
<clustering>
<clus scale="   43.805">  1  9  2 -1</clus>
<clus scale="   80.611">  5  6 -1 -1</clus>
<clus scale="   92.748">  2  5  1 -1</clus>
<clus scale="   93.500">  7  8 -1 -1</clus>
<clus scale="   43.805">  1  5  2 -1</clus>
</clustering>
</event>
<event>
 9    2  0.3745229E-005  0.9649817E+02  0.7546771E-02  0.1292224E+00
         -1   -1    0    0    0  501 -0.00000000000E+00  0.00000000000E+00  0.16255283262E+03  0.16255283262E+03  0.00000000000E+00 0.  1.
         21   -1    0    0  501  502  0.00000000000E+00 -0.00000000000E+00 -0.11979343751E+03  0.11979343751E+03  0.00000000000E+00 0. -1.
         23    2    1    2    0    0  0.17950782817E+02 -0.39995457076E+02  0.10332501813E+03  0.14399686421E+03  0.90206265518E+02 0.  0.
         24    2    1    2    0    0  0.85740737279E+01  0.86664943578E+01 -0.35058347929E+02  0.90020398042E+02  0.82011959124E+02 0.  0.
        -11    1    4    4    0    0  0.14876986429E+02  0.15183085862E+02  0.22965119158E+02  0.31292930822E+02  0.00000000000E+00 0.  1.
         12    1    4    4    0    0 -0.63029127011E+01 -0.65165915040E+01 -0.58023467087E+02  0.58727467220E+02  0.00000000000E+00 0. -1.
        -13    1    3    3    0    0 -0.15587493687E+02 -0.53875507821E+02  0.33572491890E+02  0.65365530015E+02  0.00000000000E+00 0.  1.
         13    1    3    3    0    0  0.33538276504E+02  0.13880050745E+02  0.69752526243E+02  0.78631334192E+02  0.00000000000E+00 0. -1.
         -2    1    1    2    0  502 -0.26524856545E+02  0.31328962718E+02 -0.25507275100E+02  0.48329007881E+02  0.00000000000E+00 0.  1.
<scales pt_clust_5="13000.00000" pt_clust_6="13000.00000" pt_clust_7="13000.00000" pt_clust_8="13000.00000" pt_clust_9="41.04963"></scales>
<clustering>
<clus scale="   41.050">  2  9  1 -1</clus>
<clus scale="   82.012">  5  6 -1 -1</clus>
<clus scale="   88.886">  2  5  1 -1</clus>
<clus scale="   90.206">  7  8 -1 -1</clus>
<clus scale="   41.050">  2  5  1 -1</clus>
</clustering>
</event>
<event>
 9    2  0.3745229E-005  0.1016257E+03  0.7546771E-02  0.1281469E+00
          2   -1    0    0  502    0 -0.00000000000E+00  0.00000000000E+00  0.51003582141E+03  0.51003582141E+03  0.00000000000E+00 0. -1.
         21   -1    0    0  501  502  0.00000000000E+00 -0.00000000000E+00 -0.24989332065E+02  0.24989332065E+02  0.00000000000E+00 0.  1.
         24    2    1    2    0    0  0.29944863121E+02  0.33269223502E+02  0.25030634161E+03  0.26706691399E+03  0.81657429785E+02 0.  0.
         23    2    1    2    0    0 -0.13372100699E+02 -0.45825150624E+02  0.21867085871E+03  0.24168030559E+03  0.91179318661E+02 0.  0.
        -11    1    3    3    0    0  0.45465992147E+02  0.31000325055E+02  0.86560246008E+02  0.10257120836E+03  0.00000000000E+00 0.  1.
         12    1    3    3    0    0 -0.15521129026E+02  0.22688984472E+01  0.16374609560E+03  0.16449570563E+03  0.00000000000E+00 0. -1.
        -13    1    4    4    0    0  0.61380719764E+00  0.25330066729E+02  0.28404742579E+02  0.38063347735E+02  0.00000000000E+00 0.  1.
         13    1    4    4    0    0 -0.13985907897E+02 -0.71155217354E+02  0.19026611613E+03  0.20361695785E+03  0.00000000000E+00 0. -1.
          1    1    1    2  501    0 -0.16572762422E+02  0.12555927122E+02  0.16069289021E+02  0.26277933895E+02  0.00000000000E+00 0. -1.
<scales pt_clust_5="13000.00000" pt_clust_6="13000.00000" pt_clust_7="13000.00000" pt_clust_8="13000.00000" pt_clust_9="20.79201"></scales>
<clustering>
<clus scale="   20.792">  2  9  1 -1</clus>
<clus scale="   81.657">  5  6 -1 -1</clus>
<clus scale="   91.179">  7  8 -1 -1</clus>
<clus scale="   93.178">  1  5  2 -1</clus>
<clus scale="   20.792">  2  5  1 -1</clus>
</clustering>
</event>
<event>
 9    2  0.3745229E-005  0.2159564E+03  0.7546771E-02  0.1155176E+00
         21   -1    0    0  501  502  0.00000000000E+00  0.00000000000E+00  0.27297506653E+03  0.27297506653E+03  0.00000000000E+00 0. -1.
         -1   -1    0    0    0  501 -0.00000000000E+00 -0.00000000000E+00 -0.54055421502E+03  0.54055421502E+03  0.00000000000E+00 0.  1.
         23    2    1    2    0    0  0.81962695291E+02  0.22505251714E+01 -0.15768551779E+03  0.21069240533E+03  0.11315307710E+03 0.  0.
         24    2    1    2    0    0  0.14177050117E+03 -0.12802092619E+03  0.13566988642E+03  0.24762401341E+03  0.80144253620E+02 0.  0.
        -13    1    4    4    0    0  0.10582738761E+02 -0.19442436386E+02  0.54805884037E+02  0.59107424384E+02  0.00000000000E+00 0.  1.
         14    1    4    4    0    0  0.13118776241E+03 -0.10857848981E+03  0.80864002384E+02  0.18851658902E+03  0.00000000000E+00 0. -1.
        -13    1    3    3    0    0 -0.68073153528E+01  0.29581015820E+02 -0.33169024062E+01  0.30534863367E+02  0.00000000000E+00 0. -1.
         13    1    3    3    0    0  0.88770010644E+02 -0.27330490649E+02 -0.15436861539E+03  0.18015754196E+03  0.00000000000E+00 0.  1.
         -2    1    1    2    0  502 -0.22373319646E+03  0.12577040102E+03 -0.24556351712E+03  0.35521286282E+03  0.00000000000E+00 0.  1.
<scales pt_clust_5="13000.00000" pt_clust_6="13000.00000" pt_clust_7="13000.00000" pt_clust_8="13000.00000" pt_clust_9="200.53452"></scales>
<clustering>
<clus scale="   80.144">  5  6 -1 -1</clus>
<clus scale="  113.153">  7  8 -1 -1</clus>
<clus scale="  139.737">  2  7  1 -1</clus>
<clus scale="  200.535">  1  9  2 -1</clus>
<clus scale="  200.535">  1  5  2 -1</clus>
</clustering>
</event>
<event>
 9    2  0.3745229E-005  0.1216532E+03  0.7546771E-02  0.1241410E+00
         21   -1    0    0  501  502  0.00000000000E+00  0.00000000000E+00  0.40182893906E+03  0.40182893906E+03  0.00000000000E+00 0.  1.
         -1   -1    0    0    0  501 -0.00000000000E+00 -0.00000000000E+00 -0.80674891549E+02  0.80674891549E+02  0.00000000000E+00 0.  1.
         23    2    1    2    0    0 -0.73068175054E+02 -0.64545551626E+02 -0.11126456439E+00  0.12872386077E+03  0.84051969117E+02 0.  0.
         24    2    1    2    0    0  0.48325142926E+02  0.37547620492E+02  0.16674119284E+03  0.19497565834E+03  0.80422252587E+02 0.  0.
        -11    1    4    4    0    0  0.53440011482E+02  0.13327298819E+02  0.46108523978E+02  0.71829295586E+02  0.00000000000E+00 0.  1.
         12    1    4    4    0    0 -0.51148685554E+01  0.24220321673E+02  0.12063266886E+03  0.12314636275E+03  0.00000000000E+00 0. -1.
        -11    1    3    3    0    0 -0.50111178596E+02  0.44142282046E+01 -0.18759084738E+02  0.53689094713E+02  0.00000000000E+00 0. -1.
         11    1    3    3    0    0 -0.22956996458E+02 -0.68959779830E+02  0.18647820174E+02  0.75034766061E+02  0.00000000000E+00 0.  1.
         -2    1    1    2    0  502  0.24743032128E+02  0.26997931134E+02  0.15452411923E+03  0.15880431149E+03  0.00000000000E+00 0.  1.
<scales pt_clust_5="13000.00000" pt_clust_6="13000.00000" pt_clust_7="13000.00000" pt_clust_8="13000.00000" pt_clust_9="36.62111"></scales>
<clustering>
<clus scale="   36.621">  1  9  2 -1</clus>
<clus scale="   80.422">  5  6 -1 -1</clus>
<clus scale="   84.052">  7  8 -1 -1</clus>
<clus scale="  119.174">  1  5  2 -1</clus>
<clus scale="   36.621">  1  5  2 -1</clus>
</clustering>
</event>
<event>
 9    2  0.3745229E-005  0.8487228E+02  0.7546771E-02  0.1316293E+00
         21   -1    0    0  501  502  0.00000000000E+00  0.00000000000E+00  0.12356909697E+03  0.12356909697E+03  0.00000000000E+00 0. -1.
          2   -1    0    0  502    0 -0.00000000000E+00 -0.00000000000E+00 -0.13049836900E+03  0.13049836900E+03  0.00000000000E+00 0. -1.
         23    2    1    2    0    0 -0.24006896239E+02 -0.16802696223E+02 -0.78826740087E+02  0.11640422014E+03  0.80483699263E+02 0.  0.
         24    2    1    2    0    0 -0.27901759214E+01  0.30809407663E+02  0.42237680015E+02  0.95307914781E+02  0.79640268236E+02 0.  0.
        -11    1    4    4    0    0 -0.26090686643E+02  0.24545118085E+01 -0.12793127893E+02  0.29161836002E+02  0.00000000000E+00 0.  1.
         12    1    4    4    0    0  0.23300510722E+02  0.28354895854E+02  0.55030807908E+02  0.66146078779E+02  0.00000000000E+00 0. -1.
        -11    1    3    3    0    0 -0.49535079703E+02 -0.28684380848E+02 -0.56964761941E+02  0.80755816687E+02  0.00000000000E+00 0. -1.
         11    1    3    3    0    0  0.25528183465E+02  0.11881684625E+02 -0.21861978146E+02  0.35648403456E+02  0.00000000000E+00 0.  1.
          1    1    1    2  501    0  0.26797072160E+02 -0.14006711440E+02  0.29659788039E+02  0.42355331049E+02  0.00000000000E+00 0. -1.
<scales pt_clust_5="13000.00000" pt_clust_6="13000.00000" pt_clust_7="13000.00000" pt_clust_8="13000.00000" pt_clust_9="30.23692"></scales>
<clustering>
<clus scale="   30.237">  1  9  2 -1</clus>
<clus scale="   79.640">  5  6 -1 -1</clus>
<clus scale="   80.484">  7  8 -1 -1</clus>
<clus scale="   84.073">  1  5  2 -1</clus>
<clus scale="   30.237">  1  5  2 -1</clus>
</clustering>
</event>
<event>
 9    2  0.7410002E-005  0.1540149E+03  0.7546771E-02  0.1219396E+00
         21   -1    0    0  501  502  0.00000000000E+00  0.00000000000E+00  0.20517637980E+03  0.20517637980E+03  0.00000000000E+00 0. -1.
          2   -1    0    0  502    0 -0.00000000000E+00 -0.00000000000E+00 -0.19232841554E+04  0.19232841554E+04  0.00000000000E+00 0. -1.
         23    2    1    2    0    0 -0.23341819529E+02 -0.42781262393E+01 -0.12870252675E+03  0.15849709499E+03  0.89408309598E+02 0.  0.
         24    2    1    2    0    0  0.79214800746E+02 -0.11449648827E+03 -0.17529215052E+04  0.17602809060E+04  0.80440252379E+02 0.  0.
        -11    1    4    4    0    0  0.22598953314E+02 -0.43131698174E+02 -0.25597752422E+03  0.26056774356E+03  0.00000000000E+00 0.  1.
         12    1    4    4    0    0  0.56615847432E+02 -0.71364790092E+02 -0.14969439810E+04  0.14997131624E+04  0.00000000000E+00 0. -1.
        -13    1    3    3    0    0  0.22278400378E+01 -0.43805154521E+02 -0.47642343507E+02  0.64758379602E+02  0.00000000000E+00 0. -1.
         13    1    3    3    0    0 -0.25569659567E+02  0.39527028281E+02 -0.81060183242E+02  0.93738715387E+02  0.00000000000E+00 0.  1.
          1    1    1    2  501    0 -0.55872981216E+02  0.11877461451E+03  0.16351625631E+03  0.20968253423E+03  0.00000000000E+00 0. -1.
<scales pt_clust_5="13000.00000" pt_clust_6="13000.00000" pt_clust_7="13000.00000" pt_clust_8="13000.00000" pt_clust_9="131.33904"></scales>
<clustering>
<clus scale="   80.440">  5  6 -1 -1</clus>
<clus scale="   89.408">  7  8 -1 -1</clus>
<clus scale="   92.504">  2  7  1 -1</clus>
<clus scale="  131.339">  1  9  2 -1</clus>
<clus scale="  131.339">  1  5  2 -1</clus>
</clustering>
</event>
<event>
 9    2  0.3745229E-005  0.8823208E+02  0.7546771E-02  0.1312348E+00
         -3   -1    0    0    0  501 -0.00000000000E+00  0.00000000000E+00  0.34022308244E+03  0.34022308244E+03  0.00000000000E+00 0.  1.
         21   -1    0    0  501  502  0.00000000000E+00 -0.00000000000E+00 -0.54123352882E+02  0.54123352882E+02  0.00000000000E+00 0.  1.
         24    2    1    2    0    0 -0.64149239521E+01 -0.58139260058E+01  0.23061287202E+03  0.24403986471E+03  0.79361236393E+02 0.  0.
         23    2    1    2    0    0 -0.61254229145E+01  0.33769661631E+02  0.69342680932E+02  0.11667968707E+03  0.87337455450E+02 0.  0.
        -13    1    3    3    0    0  0.32947215672E+02 -0.11265182721E+02  0.15220584192E+03  0.15613789314E+03  0.00000000000E+00 0.  1.
         14    1    3    3    0    0 -0.39362139624E+02  0.54512567153E+01  0.78407030108E+02  0.87901971570E+02  0.00000000000E+00 0. -1.
        -13    1    4    4    0    0  0.33909108247E+02  0.38214457339E+02  0.25355201998E+02  0.57035590995E+02  0.00000000000E+00 0.  1.
         13    1    4    4    0    0 -0.40034531162E+02 -0.44447957080E+01  0.43987478934E+02  0.59644096080E+02  0.00000000000E+00 0. -1.
         -4    1    1    2    0  502  0.12540346867E+02 -0.27955735625E+02 -0.13855823400E+02  0.33626883530E+02  0.00000000000E+00 0.  1.
<scales pt_clust_5="13000.00000" pt_clust_6="13000.00000" pt_clust_7="13000.00000" pt_clust_8="13000.00000" pt_clust_9="30.63957"></scales>
<clustering>
<clus scale="   30.640">  2  9  1 -1</clus>
<clus scale="   79.361">  5  6 -1 -1</clus>
<clus scale="   80.345">  1  5  2 -1</clus>
<clus scale="   87.337">  7  8 -1 -1</clus>
<clus scale="   30.640">  2  5  1 -1</clus>
</clustering>
</event>
<event>
 9    2  0.3745229E-005  0.1034833E+03  0.7546771E-02  0.1277047E+00
         21   -1    0    0  501  502  0.00000000000E+00  0.00000000000E+00  0.70224592378E+02  0.70224592378E+02  0.00000000000E+00 0.  1.
          2   -1    0    0  502    0 -0.00000000000E+00 -0.00000000000E+00 -0.58428946773E+03  0.58428946773E+03  0.00000000000E+00 0. -1.
         24    2    1    2    0    0  0.44558822151E+02 -0.18578226334E+02 -0.42381390549E+03  0.43432450223E+03  0.81785742167E+02 0.  0.
         23    2    1    2    0    0 -0.44734361006E+02  0.40336486003E+02 -0.13328361322E+03  0.17196859696E+03  0.90446015002E+02 0.  0.
        -13    1    3    3    0    0  0.20528102316E+02 -0.42985931231E+02 -0.12876187733E+03  0.13729098413E+03  0.00000000000E+00 0.  1.
         14    1    3    3    0    0  0.24030719835E+02  0.24407704897E+02 -0.29505202816E+03  0.29703351810E+03  0.00000000000E+00 0. -1.
        -13    1    4    4    0    0 -0.65547036141E+02  0.50864783740E+02 -0.11736703445E+03  0.14373121077E+03  0.00000000000E+00 0.  1.
         13    1    4    4    0    0  0.20812675135E+02 -0.10528297737E+02 -0.15916578770E+02  0.28237386197E+02  0.00000000000E+00 0. -1.
          1    1    1    2  501    0  0.17553885499E+00 -0.21758259669E+02  0.43032643359E+02  0.48220960921E+02  0.00000000000E+00 0. -1.
<scales pt_clust_5="13000.00000" pt_clust_6="13000.00000" pt_clust_7="13000.00000" pt_clust_8="13000.00000" pt_clust_9="21.75897"></scales>
<clustering>
<clus scale="   21.759">  1  9  2 -1</clus>
<clus scale="   81.786">  5  6 -1 -1</clus>
<clus scale="   90.446">  7  8 -1 -1</clus>
<clus scale="   96.006">  2  5  1 -1</clus>
<clus scale="   21.759">  1  5  2 -1</clus>
</clustering>
</event>
<event>
 9    2  0.3745229E-005  0.1657699E+03  0.7546771E-02  0.1183146E+00
         21   -1    0    0  501  502  0.00000000000E+00  0.00000000000E+00  0.58215155898E+03  0.58215155898E+03  0.00000000000E+00 0.  1.
         -1   -1    0    0    0  501 -0.00000000000E+00 -0.00000000000E+00 -0.10102912976E+03  0.10102912976E+03  0.00000000000E+00 0.  1.
         23    2    1    2    0    0 -0.10008617478E+03 -0.61069058427E+02  0.19904335542E+03  0.24589240206E+03  0.84250482336E+02 0.  0.
         24    2    1    2    0    0  0.73170429695E+02  0.17508539202E+03  0.23235743037E+03  0.31002311672E+03  0.78201989567E+02 0.  0.
        -13    1    4    4    0    0  0.14966236840E+02  0.88036427133E+02  0.57505820924E+02  0.10621355934E+03  0.00000000000E+00 0.  1.
         14    1    4    4    0    0  0.58204192855E+02  0.87048964890E+02  0.17485160945E+03  0.20380955738E+03  0.00000000000E+00 0. -1.
        -13    1    3    3    0    0  0.16648169192E+01 -0.24733935104E+02  0.86077509450E+02  0.89576094993E+02  0.00000000000E+00 0. -1.
         13    1    3    3    0    0 -0.10175099170E+03 -0.36335123323E+02  0.11296584597E+03  0.15631630706E+03  0.00000000000E+00 0.  1.
         -2    1    1    2    0  502  0.26915745085E+02 -0.11401633360E+03  0.49721643435E+02  0.12726516996E+03  0.00000000000E+00 0.  1.
<scales pt_clust_5="13000.00000" pt_clust_6="13000.00000" pt_clust_7="13000.00000" pt_clust_8="13000.00000" pt_clust_9="117.15031"></scales>
<clustering>
<clus scale="   78.202">  5  6 -1 -1</clus>
<clus scale="   84.250">  7  8 -1 -1</clus>
<clus scale="  117.150">  1  9  2 -1</clus>
<clus scale="  162.779">  1  5  2 -1</clus>
<clus scale="  117.150">  1  5  2 -1</clus>
</clustering>
</event>
<event>
 9    2  0.3745229E-005  0.9198688E+02  0.7546771E-02  0.1304270E+00
          4   -1    0    0  502    0 -0.00000000000E+00  0.00000000000E+00  0.10335943921E+03  0.10335943921E+03  0.00000000000E+00 0. -1.
         21   -1    0    0  501  502  0.00000000000E+00 -0.00000000000E+00 -0.28745312904E+03  0.28745312904E+03  0.00000000000E+00 0. -1.
         23    2    1    2    0    0 -0.13030703714E+02 -0.16716428355E+02  0.65373189000E+02  0.11309660781E+03  0.89821771538E+02 0.  0.
         24    2    1    2    0    0 -0.97546005341E+01  0.21170942029E+02 -0.11844019750E+03  0.14464829343E+03  0.79697474177E+02 0.  0.
        -11    1    4    4    0    0  0.22305069755E+02  0.28605264293E+02 -0.10118153502E+03  0.10748711695E+03  0.00000000000E+00 0.  1.
         12    1    4    4    0    0 -0.32059670289E+02 -0.74343222636E+01 -0.17258662483E+02  0.37161176479E+02  0.00000000000E+00 0. -1.
        -11    1    3    3    0    0 -0.11129826178E+02  0.26671798631E+02 -0.60297124386E+01  0.29523131695E+02  0.00000000000E+00 0.  1.
         11    1    3    3    0    0 -0.19008775359E+01 -0.43388226986E+02  0.71402901438E+02  0.83573476117E+02  0.00000000000E+00 0. -1.
          3    1    1    2  501    0  0.22785304248E+02 -0.44545136740E+01 -0.13102668134E+03  0.13306766701E+03  0.00000000000E+00 0. -1.
<scales pt_clust_5="13000.00000" pt_clust_6="13000.00000" pt_clust_7="13000.00000" pt_clust_8="13000.00000" pt_clust_9="23.21665"></scales>
<clustering>
<clus scale="   23.217">  2  9  1 -1</clus>
<clus scale="   79.697">  5  6 -1 -1</clus>
<clus scale="   82.130">  2  5  1 -1</clus>
<clus scale="   89.822">  7  8 -1 -1</clus>
<clus scale="   23.217">  2  5  1 -1</clus>
</clustering>
</event>
<event>
 9    2  0.3745229E-005  0.9562354E+02  0.7546771E-02  0.1296821E+00
         -1   -1    0    0    0  501 -0.00000000000E+00  0.00000000000E+00  0.17136363185E+03  0.17136363185E+03  0.00000000000E+00 0.  1.
         21   -1    0    0  501  502  0.00000000000E+00 -0.00000000000E+00 -0.15146057154E+03  0.15146057154E+03  0.00000000000E+00 0.  1.
         24    2    1    2    0    0  0.23902045485E+02 -0.17338788023E+02  0.11488071243E+03  0.14323600125E+03  0.80293415778E+02 0.  0.
         23    2    1    2    0    0 -0.12912693323E+02 -0.18220167246E+02 -0.22012309408E+02  0.97678822953E+02  0.92508910623E+02 0.  0.
        -11    1    3    3    0    0  0.25587611612E+02 -0.43451158341E+02  0.41426105180E+02  0.65259874499E+02  0.00000000000E+00 0.  1.
         12    1    3    3    0    0 -0.16855661277E+01  0.26112370319E+02  0.73454607254E+02  0.77976126755E+02  0.00000000000E+00 0. -1.
        -13    1    4    4    0    0  0.28774116023E+02  0.22463118127E+02 -0.12929613693E+02  0.38726171243E+02  0.00000000000E+00 0.  1.
         13    1    4    4    0    0 -0.41686809346E+02 -0.40683285373E+02 -0.90826957149E+01  0.58952651710E+02  0.00000000000E+00 0. -1.
         -2    1    1    2    0  502 -0.10989352161E+02  0.35558955268E+02 -0.72965342718E+02  0.81909379186E+02  0.00000000000E+00 0.  1.
<scales pt_clust_5="13000.00000" pt_clust_6="13000.00000" pt_clust_7="13000.00000" pt_clust_8="13000.00000" pt_clust_9="37.21834"></scales>
<clustering>
<clus scale="   37.218">  2  9  1 -1</clus>
<clus scale="   80.293">  5  6 -1 -1</clus>
<clus scale="   83.863">  1  5  2 -1</clus>
<clus scale="   92.509">  7  8 -1 -1</clus>
<clus scale="   37.218">  2  5  1 -1</clus>
</clustering>
</event>
<event>
 9    2  0.3745229E-005  0.1209949E+03  0.7546771E-02  0.1244832E+00
         -1   -1    0    0    0  501 -0.00000000000E+00  0.00000000000E+00  0.60076333635E+02  0.60076333635E+02  0.00000000000E+00 0.  1.
         21   -1    0    0  501  502  0.00000000000E+00 -0.00000000000E+00 -0.32023256702E+03  0.32023256702E+03  0.00000000000E+00 0. -1.
         23    2    1    2    0    0  0.27158254743E+02 -0.79558212967E+02 -0.51226867945E+02  0.13468692667E+03  0.91920053117E+02 0.  0.
         24    2    1    2    0    0 -0.89337616083E+01  0.67503287847E+02 -0.18523576025E+03  0.21339092844E+03  0.81159691360E+02 0.  0.
        -13    1    4    4    0    0 -0.21471795151E+02  0.28067673666E+02 -0.15333620383E+02  0.38522100229E+02  0.00000000000E+00 0.  1.
         14    1    4    4    0    0  0.12538033543E+02  0.39435614181E+02 -0.16990213986E+03  0.17486882821E+03  0.00000000000E+00 0. -1.
        -13    1    3    3    0    0  0.58675599073E+02 -0.69139626454E+02 -0.31095364792E+02  0.95864673286E+02  0.00000000000E+00 0.  1.
         13    1    3    3    0    0 -0.31517344330E+02 -0.10418586514E+02 -0.20131503153E+02  0.38822253384E+02  0.00000000000E+00 0. -1.
         -2    1    1    2    0  502 -0.18224493135E+02  0.12054925120E+02 -0.23693605197E+02  0.32231045545E+02  0.00000000000E+00 0.  1.
<scales pt_clust_5="13000.00000" pt_clust_6="13000.00000" pt_clust_7="13000.00000" pt_clust_8="13000.00000" pt_clust_9="21.85071"></scales>
<clustering>
<clus scale="   21.851">  2  9  1 -1</clus>
<clus scale="   81.160">  5  6 -1 -1</clus>
<clus scale="   91.920">  7  8 -1 -1</clus>
<clus scale="  113.037">  2  5  1 -1</clus>
<clus scale="   21.851">  2  5  1 -1</clus>
</clustering>
</event>
<event>
 9    2  0.3745229E-005  0.1415946E+03  0.7546771E-02  0.1213736E+00
         -1   -1    0    0    0  501 -0.00000000000E+00  0.00000000000E+00  0.19440392231E+03  0.19440392231E+03  0.00000000000E+00 0.  1.
         21   -1    0    0  501  502  0.00000000000E+00 -0.00000000000E+00 -0.58905855048E+03  0.58905855048E+03  0.00000000000E+00 0.  1.
         24    2    1    2    0    0  0.11169975858E+03  0.62690835424E+02  0.12032308015E+03  0.19432754271E+03  0.82937164932E+02 0.  0.
         23    2    1    2    0    0 -0.58305988168E+02  0.14661535816E+02 -0.65101280348E+02  0.12954480346E+03  0.94494076593E+02 0.  0.
        -11    1    3    3    0    0  0.12459236110E+03  0.49702556439E+02  0.10293400074E+03  0.16908284676E+03  0.00000000000E+00 0.  1.
         12    1    3    3    0    0 -0.12892602523E+02  0.12988278985E+02  0.17389079407E+02  0.25244695946E+02  0.00000000000E+00 0. -1.
        -11    1    4    4    0    0  0.19881442322E+02  0.16931778494E+02 -0.39287886630E+02  0.47175151379E+02  0.00000000000E+00 0.  1.
         11    1    4    4    0    0 -0.78187430489E+02 -0.22702426780E+01 -0.25813393718E+02  0.82369652079E+02  0.00000000000E+00 0. -1.
         -2    1    1    2    0  502 -0.53393770409E+02 -0.77352371240E+02 -0.44987642797E+03  0.45959012663E+03  0.00000000000E+00 0.  1.
<scales pt_clust_5="13000.00000" pt_clust_6="13000.00000" pt_clust_7="13000.00000" pt_clust_8="13000.00000" pt_clust_9="93.99087"></scales>
<clustering>
<clus scale="   82.937">  5  6 -1 -1</clus>
<clus scale="   93.991">  2  9  1 -1</clus>
<clus scale="   94.494">  7  8 -1 -1</clus>
<clus scale="  134.158">  1  5  2 -1</clus>
<clus scale="   93.991">  2  5  1 -1</clus>
</clustering>
</event>
<event>
 9    2  0.3745229E-005  0.1932593E+03  0.7546771E-02  0.1156042E+00
         21   -1    0    0  501  502  0.00000000000E+00  0.00000000000E+00  0.61004799014E+02  0.61004799014E+02  0.00000000000E+00 0.  1.
          2   -1    0    0  502    0 -0.00000000000E+00 -0.00000000000E+00 -0.12311342170E+04  0.12311342170E+04  0.00000000000E+00 0. -1.
         24    2    1    2    0    0 -0.12572581582E+03 -0.11595163800E+03 -0.78518014338E+03  0.80789110059E+03  0.83237069490E+02 0.  0.
         23    2    1    2    0    0  0.73500554622E+02  0.17333348798E+03 -0.22421269520E+03  0.30576429552E+03  0.88168260402E+02 0.  0.
        -11    1    3    3    0    0 -0.37747427609E+02  0.42391005432E+01 -0.10687368680E+03  0.11342320395E+03  0.00000000000E+00 0.  1.
         12    1    3    3    0    0 -0.87978388211E+02 -0.12019073855E+03 -0.67830645658E+03  0.69446789664E+03  0.00000000000E+00 0. -1.
        -13    1    4    4    0    0  0.23860499648E+02  0.58443812443E+02 -0.19942484884E+02  0.66202004197E+02  0.00000000000E+00 0. -1.
         13    1    4    4    0    0  0.49640054974E+02  0.11488967554E+03 -0.20427021031E+03  0.23956229132E+03  0.00000000000E+00 0.  1.
          1    1    1    2  501    0  0.52225261199E+02 -0.57381849978E+02 -0.16073657944E+03  0.17848361993E+03  0.00000000000E+00 0. -1.
<scales pt_clust_5="13000.00000" pt_clust_6="13000.00000" pt_clust_7="13000.00000" pt_clust_8="13000.00000" pt_clust_9="77.58966"></scales>
<clustering>
<clus scale="   77.590">  1  9  2 -1</clus>
<clus scale="   83.237">  5  6 -1 -1</clus>
<clus scale="   88.168">  7  8 -1 -1</clus>
<clus scale="  191.060">  2  5  1 -1</clus>
<clus scale="   77.590">  1  5  2 -1</clus>
</clustering>
</event>
<event>
 9    2  0.3745229E-005  0.9994857E+02  0.7546771E-02  0.1284540E+00
          2   -1    0    0  502    0 -0.00000000000E+00  0.00000000000E+00  0.48232361288E+03  0.48232361288E+03  0.00000000000E+00 0. -1.
         21   -1    0    0  501  502  0.00000000000E+00 -0.00000000000E+00 -0.46816678393E+02  0.46816678393E+02  0.00000000000E+00 0. -1.
         23    2    1    2    0    0  0.13894876847E+02  0.33640725856E+02  0.30856871944E+03  0.32418067509E+03  0.92486158127E+02 0.  0.
         24    2    1    2    0    0 -0.55745040888E+02 -0.12284694456E+02  0.12016995898E+03  0.15749040936E+03  0.84285151098E+02 0.  0.
        -11    1    4    4    0    0  0.16545914074E+02 -0.16534856799E+02  0.56171942482E+02  0.60847809197E+02  0.00000000000E+00 0.  1.
         12    1    4    4    0    0 -0.72290954962E+02  0.42501623430E+01  0.63998016500E+02  0.96642600158E+02  0.00000000000E+00 0. -1.
        -11    1    3    3    0    0  0.27405872641E+01 -0.31607076762E+02  0.12762415629E+03  0.13150833962E+03  0.00000000000E+00 0.  1.
         11    1    3    3    0    0  0.11154289582E+02  0.65247802617E+02  0.18094456315E+03  0.19267233547E+03  0.00000000000E+00 0. -1.
          1    1    1    2  501    0  0.41850164041E+02 -0.21356031399E+02  0.67682560700E+01  0.47469206836E+02  0.00000000000E+00 0. -1.
<scales pt_clust_5="13000.00000" pt_clust_6="13000.00000" pt_clust_7="13000.00000" pt_clust_8="13000.00000" pt_clust_9="46.98421"></scales>
<clustering>
<clus scale="   46.984">  2  9  1 -1</clus>
<clus scale="   84.285">  5  6 -1 -1</clus>
<clus scale="   92.412">  2  5  1 -1</clus>
<clus scale="   92.486">  7  8 -1 -1</clus>
<clus scale="   46.984">  2  5  1 -1</clus>
</clustering>
</event>
<event>
 9    2  0.3745229E-005  0.1337298E+03  0.7546771E-02  0.1231400E+00
         21   -1    0    0  501  502  0.00000000000E+00  0.00000000000E+00  0.69674136072E+02  0.69674136072E+02  0.00000000000E+00 0.  1.
         -1   -1    0    0    0  501 -0.00000000000E+00 -0.00000000000E+00 -0.56372758367E+03  0.56372758367E+03  0.00000000000E+00 0.  1.
         23    2    1    2    0    0  0.34245198583E+02  0.53984851844E+02 -0.12661353025E+03  0.16777131967E+03  0.89605422867E+02 0.  0.
         24    2    1    2    0    0 -0.65532569187E+02  0.61847467176E+02 -0.31235118743E+03  0.33360466829E+03  0.74894483057E+02 0.  0.
        -13    1    4    4    0    0 -0.10558925094E+02  0.50732010855E+02 -0.21590248600E+03  0.22203403182E+03  0.00000000000E+00 0.  1.
         14    1    4    4    0    0 -0.54973644093E+02  0.11115456321E+02 -0.96448701431E+02  0.11157063647E+03  0.00000000000E+00 0. -1.
        -11    1    3    3    0    0  0.19311406565E+02  0.70629992725E+02 -0.51814472512E+02  0.89700980249E+02  0.00000000000E+00 0.  1.
         11    1    3    3    0    0  0.14933792018E+02 -0.16645140881E+02 -0.74799057740E+02  0.78070339424E+02  0.00000000000E+00 0. -1.
         -2    1    1    2    0  502  0.31287370604E+02 -0.11583231902E+03 -0.55088729913E+02  0.13202573178E+03  0.00000000000E+00 0.  1.
<scales pt_clust_5="13000.00000" pt_clust_6="13000.00000" pt_clust_7="13000.00000" pt_clust_8="13000.00000" pt_clust_9="110.79029"></scales>
<clustering>
<clus scale="   74.894">  5  6 -1 -1</clus>
<clus scale="   89.605">  7  8 -1 -1</clus>
<clus scale="  110.074">  2  7  1 -1</clus>
<clus scale="  110.790">  1  9  2 -1</clus>
<clus scale="  110.790">  1  5  2 -1</clus>
</clustering>
</event>
<event>
 9    2  0.3745229E-005  0.9133645E+02  0.7546771E-02  0.1303686E+00
         21   -1    0    0  501  502  0.00000000000E+00  0.00000000000E+00  0.23668990512E+03  0.23668990512E+03  0.00000000000E+00 0.  1.
         -1   -1    0    0    0  501 -0.00000000000E+00 -0.00000000000E+00 -0.95813455251E+02  0.95813455251E+02  0.00000000000E+00 0.  1.
         23    2    1    2    0    0 -0.98915537778E+01  0.38811070209E+02 -0.23271362201E+02  0.98330093448E+02  0.86735857475E+02 0.  0.
         24    2    1    2    0    0  0.20475573638E+02  0.25894057343E+02  0.13960007579E+03  0.16416350786E+03  0.79823084572E+02 0.  0.
        -11    1    4    4    0    0  0.50755733937E+02  0.85818225062E+01  0.85101427313E+02  0.99458760980E+02  0.00000000000E+00 0.  1.
         12    1    4    4    0    0 -0.30280160300E+02  0.17312234837E+02  0.54498648480E+02  0.64704746881E+02  0.00000000000E+00 0. -1.
        -13    1    3    3    0    0  0.25624775660E+02  0.43106939384E+02 -0.34459229729E+02  0.60846329916E+02  0.00000000000E+00 0.  1.
         13    1    3    3    0    0 -0.35516329438E+02 -0.42958691751E+01  0.11187867528E+02  0.37483763532E+02  0.00000000000E+00 0. -1.
         -2    1    1    2    0  502 -0.10584019860E+02 -0.64705127552E+02  0.24547736281E+02  0.70009759066E+02  0.00000000000E+00 0.  1.
<scales pt_clust_5="13000.00000" pt_clust_6="13000.00000" pt_clust_7="13000.00000" pt_clust_8="13000.00000" pt_clust_9="65.56508"></scales>
<clustering>
<clus scale="   65.565">  1  9  2 -1</clus>
<clus scale="   79.823">  5  6 -1 -1</clus>
<clus scale="   84.800">  1  5  2 -1</clus>
<clus scale="   86.736">  7  8 -1 -1</clus>
<clus scale="   65.565">  1  5  2 -1</clus>
</clustering>
</event>
<event>
 9    2  0.3745229E-005  0.1338349E+03  0.7546771E-02  0.1235583E+00
         21   -1    0    0  501  502  0.00000000000E+00  0.00000000000E+00  0.43345034549E+03  0.43345034549E+03  0.00000000000E+00 0. -1.
          4   -1    0    0  502    0 -0.00000000000E+00 -0.00000000000E+00 -0.94384738747E+02  0.94384738747E+02  0.00000000000E+00 0. -1.
         23    2    1    2    0    0 -0.35073785093E+02  0.24748572461E+02  0.10423816357E+03  0.14498880745E+03  0.91178381764E+02 0.  0.
         24    2    1    2    0    0  0.63430244151E+02  0.81627182454E+02  0.78266084896E+01  0.13055820939E+03  0.79358663361E+02 0.  0.
        -11    1    4    4    0    0 -0.17757558132E+02  0.26607197587E+02 -0.16193548549E+01  0.32029613553E+02  0.00000000000E+00 0.  1.
         12    1    4    4    0    0  0.81187802283E+02  0.55019984867E+02  0.94459633446E+01  0.98528595838E+02  0.00000000000E+00 0. -1.
        -11    1    3    3    0    0 -0.45385708936E+02  0.48377460687E+02  0.98208239528E+02  0.11851202297E+03  0.00000000000E+00 0. -1.
         11    1    3    3    0    0  0.10311923843E+02 -0.23628888226E+02  0.60299240426E+01  0.26476784475E+02  0.00000000000E+00 0.  1.
          3    1    1    2  501    0 -0.28356459058E+02 -0.10637575492E+03  0.22700083468E+03  0.25228806740E+03  0.00000000000E+00 0. -1.
<scales pt_clust_5="13000.00000" pt_clust_6="13000.00000" pt_clust_7="13000.00000" pt_clust_8="13000.00000" pt_clust_9="107.76816"></scales>
<clustering>
<clus scale="   79.359">  5  6 -1 -1</clus>
<clus scale="   91.178">  7  8 -1 -1</clus>
<clus scale="  100.778">  2  7  1 -1</clus>
<clus scale="  107.768">  1  9  2 -1</clus>
<clus scale="  107.768">  1  5  2 -1</clus>
</clustering>
</event>
<event>
 9    2  0.3745229E-005  0.1077183E+03  0.7546771E-02  0.1267847E+00
          2   -1    0    0  502    0 -0.00000000000E+00  0.00000000000E+00  0.26955822170E+03  0.26955822170E+03  0.00000000000E+00 0. -1.
         21   -1    0    0  501  502  0.00000000000E+00 -0.00000000000E+00 -0.78248506351E+02  0.78248506351E+02  0.00000000000E+00 0.  1.
         23    2    1    2    0    0 -0.46308800357E+02  0.18992470771E+02  0.98247038330E+02  0.14099229828E+03  0.87869953316E+02 0.  0.
         24    2    1    2    0    0  0.86077931634E+02 -0.31690175430E+02  0.21235442381E+02  0.12373635119E+03  0.80287377956E+02 0.  0.
        -13    1    4    4    0    0  0.52135919266E+02 -0.47856158110E+02 -0.14078504938E+02  0.72156567601E+02  0.00000000000E+00 0.  1.
         14    1    4    4    0    0  0.33942012369E+02  0.16165982679E+02  0.35313947319E+02  0.51579783587E+02  0.00000000000E+00 0. -1.
        -11    1    3    3    0    0 -0.28238063649E+02  0.54211669258E+02  0.65782010276E+02  0.89797361868E+02  0.00000000000E+00 0.  1.
         11    1    3    3    0    0 -0.18070736708E+02 -0.35219198487E+02  0.32465028055E+02  0.51194936408E+02  0.00000000000E+00 0. -1.
          1    1    1    2  501    0 -0.39769131277E+02  0.12697704659E+02  0.71827234637E+02  0.83078078587E+02  0.00000000000E+00 0. -1.
<scales pt_clust_5="13000.00000" pt_clust_6="13000.00000" pt_clust_7="13000.00000" pt_clust_8="13000.00000" pt_clust_9="41.74706"></scales>
<clustering>
<clus scale="   41.747">  2  9  1 -1</clus>
<clus scale="   80.287">  5  6 -1 -1</clus>
<clus scale="   87.870">  7  8 -1 -1</clus>
<clus scale="  101.628">  2  5  1 -1</clus>
<clus scale="   41.747">  2  5  1 -1</clus>
</clustering>
</event>
<event>
 9    2  0.3745229E-005  0.1046035E+03  0.7546771E-02  0.1271950E+00
         21   -1    0    0  501  502  0.00000000000E+00  0.00000000000E+00  0.11132108471E+03  0.11132108471E+03  0.00000000000E+00 0. -1.
         -1   -1    0    0    0  501 -0.00000000000E+00 -0.00000000000E+00 -0.27691682482E+03  0.27691682482E+03  0.00000000000E+00 0.  1.
         23    2    1    2    0    0 -0.41563357198E+02 -0.45362420878E+02 -0.14369972994E+03  0.17751821344E+03  0.84129910440E+02 0.  0.
         24    2    1    2    0    0 -0.28564353407E+01  0.84597565167E+02  0.40847614134E+02  0.12441050244E+03  0.81514037332E+02 0.  0.
        -11    1    4    4    0    0  0.31068249220E+02  0.61935145436E+01  0.65245468189E+01  0.32344480877E+02  0.00000000000E+00 0.  1.
         12    1    4    4    0    0 -0.33924684561E+02  0.78404050623E+02  0.34323067315E+02  0.92066021564E+02  0.00000000000E+00 0. -1.
        -11    1    3    3    0    0 -0.41828093840E+02 -0.68404298206E+02 -0.10058231972E+03  0.12862946975E+03  0.00000000000E+00 0.  1.
         11    1    3    3    0    0  0.26473664219E+00  0.23041877328E+02 -0.43117410213E+02  0.48888743692E+02  0.00000000000E+00 0. -1.
         -2    1    1    2    0  502  0.44419792539E+02 -0.39235144289E+02 -0.62743624305E+02  0.86309193644E+02  0.00000000000E+00 0.  1.
<scales pt_clust_5="13000.00000" pt_clust_6="13000.00000" pt_clust_7="13000.00000" pt_clust_8="13000.00000" pt_clust_9="59.26650"></scales>
<clustering>
<clus scale="   59.267">  1  9  2 -1</clus>
<clus scale="   81.514">  5  6 -1 -1</clus>
<clus scale="   84.130">  7  8 -1 -1</clus>
<clus scale="  102.511">  1  5  2 -1</clus>
<clus scale="   59.267">  1  5  2 -1</clus>
</clustering>
</event>
<event>
 9    2  0.3745229E-005  0.2152502E+03  0.7546771E-02  0.1137475E+00
         21   -1    0    0  501  502  0.00000000000E+00  0.00000000000E+00  0.31630396011E+02  0.31630396011E+02  0.00000000000E+00 0.  1.
          2   -1    0    0  502    0 -0.00000000000E+00 -0.00000000000E+00 -0.10225937405E+04  0.10225937405E+04  0.00000000000E+00 0. -1.
         24    2    1    2    0    0  0.11251623963E+02  0.78433458565E+02 -0.18454925327E+03  0.21658523934E+03  0.81069923832E+02 0.  0.
         23    2    1    2    0    0  0.21311419071E+02  0.15727028124E+02 -0.20908579365E+03  0.23205847799E+03  0.97122356360E+02 0.  0.
        -11    1    3    3    0    0  0.16022663054E+02  0.92136735089E+02 -0.17709788783E+03  0.20027372658E+03  0.00000000000E+00 0.  1.
         12    1    3    3    0    0 -0.47710390906E+01 -0.13703276524E+02 -0.74513654467E+01  0.16311512760E+02  0.00000000000E+00 0. -1.
        -11    1    4    4    0    0  0.42289982856E+02 -0.29063200683E+01 -0.19699720288E+03  0.20150629591E+03  0.00000000000E+00 0. -1.
         11    1    4    4    0    0 -0.20978563785E+02  0.18633348192E+02 -0.12088590765E+02  0.30552182083E+02  0.00000000000E+00 0.  1.
          1    1    1    2  501    0 -0.32563043034E+02 -0.94160486689E+02 -0.59732829755E+03  0.60558041917E+03  0.00000000000E+00 0. -1.
<scales pt_clust_5="13000.00000" pt_clust_6="13000.00000" pt_clust_7="13000.00000" pt_clust_8="13000.00000" pt_clust_9="99.63212"></scales>
<clustering>
<clus scale="   81.070">  5  6 -1 -1</clus>
<clus scale="   97.122">  7  8 -1 -1</clus>
<clus scale="   99.433">  5  7 -1 -1</clus>
<clus scale="   99.632">  1  9  2 -1</clus>
<clus scale="   99.632">  1  5  2 -1</clus>
</clustering>
</event>
<event>
 9    2  0.3745229E-005  0.1717905E+03  0.7546771E-02  0.1193443E+00
         -3   -1    0    0    0  501 -0.00000000000E+00  0.00000000000E+00  0.12820741606E+03  0.12820741606E+03  0.00000000000E+00 0.  1.
         21   -1    0    0  501  502  0.00000000000E+00 -0.00000000000E+00 -0.38306234375E+03  0.38306234375E+03  0.00000000000E+00 0.  1.
         24    2    1    2    0    0 -0.68144682008E+02  0.33673738856E+02 -0.71979367166E+02  0.13687451402E+03  0.88181545218E+02 0.  0.
         23    2    1    2    0    0  0.15306092387E+02  0.12600568922E+03 -0.64827538661E+02  0.16890857526E+03  0.90640977743E+02 0.  0.
        -13    1    3    3    0    0 -0.34064885428E+02  0.21201238193E+02  0.14836508245E+02  0.42778860399E+02  0.00000000000E+00 0.  1.
         14    1    3    3    0    0 -0.34079796581E+02  0.12472500663E+02 -0.86815875410E+02  0.94095653625E+02  0.00000000000E+00 0. -1.
        -13    1    4    4    0    0  0.40407192960E+02  0.18407860511E+02 -0.97754785556E+01  0.45465927379E+02  0.00000000000E+00 0. -1.
         13    1    4    4    0    0 -0.25101100573E+02  0.10759782871E+03 -0.55052060106E+02  0.12344264788E+03  0.00000000000E+00 0.  1.
         -4    1    1    2    0  502  0.52838589622E+02 -0.15967942808E+03 -0.11804802186E+03  0.20548667054E+03  0.00000000000E+00 0.  1.
<scales pt_clust_5="13000.00000" pt_clust_6="13000.00000" pt_clust_7="13000.00000" pt_clust_8="13000.00000" pt_clust_9="145.93209"></scales>
<clustering>
<clus scale="   88.182">  5  6 -1 -1</clus>
<clus scale="   90.641">  7  8 -1 -1</clus>
<clus scale="  116.420">  1  5  2 -1</clus>
<clus scale="  145.932">  2  9  1 -1</clus>
<clus scale="  145.932">  2  5  1 -1</clus>
</clustering>
</event>
<event>
 9    2  0.3745229E-005  0.1232706E+03  0.7546771E-02  0.1240300E+00
         21   -1    0    0  501  502  0.00000000000E+00  0.00000000000E+00  0.49177307401E+03  0.49177307401E+03  0.00000000000E+00 0.  1.
         -1   -1    0    0    0  501 -0.00000000000E+00 -0.00000000000E+00 -0.16978305968E+03  0.16978305968E+03  0.00000000000E+00 0.  1.
         23    2    1    2    0    0 -0.14012253508E+02  0.91432549582E+02 -0.12719197377E+03  0.18071483588E+03  0.89015725267E+02 0.  0.
         24    2    1    2    0    0  0.38548065467E+02 -0.13808308698E+02  0.23242188773E+03  0.24929763033E+03  0.80329022462E+02 0.  0.
        -11    1    4    4    0    0  0.44988367038E+02 -0.36675942051E+02  0.20479040074E+03  0.21285719656E+03  0.00000000000E+00 0.  1.
         12    1    4    4    0    0 -0.64403015708E+01  0.22867633353E+02  0.27631486996E+02  0.36440433767E+02  0.00000000000E+00 0. -1.
        -11    1    3    3    0    0  0.21823930813E+02  0.53568134055E+02 -0.19455609321E+02  0.61027450186E+02  0.00000000000E+00 0.  1.
         11    1    3    3    0    0 -0.35836184320E+02  0.37864415527E+02 -0.10773636445E+03  0.11968738569E+03  0.00000000000E+00 0. -1.
         -2    1    1    2    0  502 -0.24535811959E+02 -0.77624240884E+02  0.21676010036E+03  0.23154366748E+03  0.00000000000E+00 0.  1.
<scales pt_clust_5="13000.00000" pt_clust_6="13000.00000" pt_clust_7="13000.00000" pt_clust_8="13000.00000" pt_clust_9="81.40964"></scales>
<clustering>
<clus scale="   80.329">  5  6 -1 -1</clus>
<clus scale="   81.410">  1  9  2 -1</clus>
<clus scale="   89.016">  7  8 -1 -1</clus>
<clus scale="  117.152">  1  5  2 -1</clus>
<clus scale="   81.410">  1  5  2 -1</clus>
</clustering>
</event>
<event>
 9    2  0.3745229E-005  0.2205639E+03  0.7546771E-02  0.1134116E+00
          2   -1    0    0  502    0 -0.00000000000E+00  0.00000000000E+00  0.28353895749E+03  0.28353895749E+03  0.00000000000E+00 0. -1.
         21   -1    0    0  501  502  0.00000000000E+00 -0.00000000000E+00 -0.25190805159E+03  0.25190805159E+03  0.00000000000E+00 0.  1.
         23    2    1    2    0    0 -0.14731913845E+03 -0.13586894031E+03  0.12906374581E+03  0.25476445926E+03  0.89912077745E+02 0.  0.
         24    2    1    2    0    0  0.16583236380E+03  0.12105114962E+03 -0.11712030245E+03  0.24986205964E+03  0.80994628784E+02 0.  0.
        -13    1    4    4    0    0  0.85761802297E+02  0.34883563426E+02 -0.14402449413E+02  0.93698347262E+02  0.00000000000E+00 0.  1.
         14    1    4    4    0    0  0.80070561507E+02  0.86167586197E+02 -0.10271785304E+03  0.15616371238E+03  0.00000000000E+00 0. -1.
        -11    1    3    3    0    0 -0.13627327614E+03 -0.11893747168E+03  0.72797907908E+02  0.19497708418E+03  0.00000000000E+00 0.  1.
         11    1    3    3    0    0 -0.11045862312E+02 -0.16931468629E+02  0.56265837901E+02  0.59787375079E+02  0.00000000000E+00 0. -1.
          1    1    1    2  501    0 -0.18513225351E+02  0.14817790687E+02  0.19687462543E+02  0.30820490183E+02  0.00000000000E+00 0. -1.
<scales pt_clust_5="13000.00000" pt_clust_6="13000.00000" pt_clust_7="13000.00000" pt_clust_8="13000.00000" pt_clust_9="23.71301"></scales>
<clustering>
<clus scale="   23.713">  2  9  1 -1</clus>
<clus scale="   80.995">  5  6 -1 -1</clus>
<clus scale="   89.912">  7  8 -1 -1</clus>
<clus scale="  217.082">  2  5  1 -1</clus>
<clus scale="   23.713">  2  5  1 -1</clus>
</clustering>
</event>
<event>
 9    2  0.3745229E-005  0.1322452E+03  0.7546771E-02  0.1237691E+00
          2   -1    0    0  502    0 -0.00000000000E+00  0.00000000000E+00  0.51967558130E+03  0.51967558130E+03  0.00000000000E+00 0. -1.
         21   -1    0    0  501  502  0.00000000000E+00 -0.00000000000E+00 -0.14974184977E+03  0.14974184977E+03  0.00000000000E+00 0. -1.
         23    2    1    2    0    0  0.16268478715E+02 -0.37426960225E+02  0.91978932002E+02  0.13590805085E+03  0.91353344772E+02 0.  0.
         24    2    1    2    0    0  0.88881330206E+02  0.21627881060E+02  0.37209213453E+03  0.39149553915E+03  0.80302829922E+02 0.  0.
        -11    1    4    4    0    0  0.80055558954E+01 -0.26385793642E+02  0.90956041958E+02  0.95043677328E+02  0.00000000000E+00 0.  1.
         12    1    4    4    0    0  0.80875774311E+02  0.48013674702E+02  0.28113609257E+03  0.29645186182E+03  0.00000000000E+00 0. -1.
        -13    1    3    3    0    0  0.47687155233E+02 -0.46928692523E+02  0.66746972544E+02  0.94506747378E+02  0.00000000000E+00 0. -1.
         13    1    3    3    0    0 -0.31418676518E+02  0.95017322981E+01  0.25231959459E+02  0.41401303469E+02  0.00000000000E+00 0.  1.
          1    1    1    2  501    0 -0.10514980892E+03  0.15799079165E+02 -0.94137334997E+02  0.14201384108E+03  0.00000000000E+00 0. -1.
<scales pt_clust_5="13000.00000" pt_clust_6="13000.00000" pt_clust_7="13000.00000" pt_clust_8="13000.00000" pt_clust_9="105.07265"></scales>
<clustering>
<clus scale="   80.303">  5  6 -1 -1</clus>
<clus scale="   91.353">  7  8 -1 -1</clus>
<clus scale="  100.054">  1  7  2 -1</clus>
<clus scale="  105.073">  2  9  1 -1</clus>
<clus scale="  105.073">  2  5  1 -1</clus>
</clustering>
</event>
<event>
 9    2  0.3745229E-005  0.1392588E+03  0.7546771E-02  0.1216161E+00
         21   -1    0    0  501  502  0.00000000000E+00  0.00000000000E+00  0.72320848953E+02  0.72320848953E+02  0.00000000000E+00 0.  1.
          2   -1    0    0  502    0 -0.00000000000E+00 -0.00000000000E+00 -0.41241974911E+03  0.41241974911E+03  0.00000000000E+00 0. -1.
         24    2    1    2    0    0 -0.88716058460E+02  0.30594696933E+02 -0.17325100744E+03  0.21315914589E+03  0.81328564410E+02 0.  0.
         23    2    1    2    0    0  0.10601079659E+03 -0.77038718822E+02 -0.15196397950E+03  0.21983508990E+03  0.89783976818E+02 0.  0.
        -13    1    3    3    0    0 -0.30270108344E+02  0.18413166285E+02 -0.64725578916E+01  0.36016914880E+02  0.00000000000E+00 0.  1.
         14    1    3    3    0    0 -0.58445950115E+02  0.12181530648E+02 -0.16677844955E+03  0.17714223101E+03  0.00000000000E+00 0. -1.
        -13    1    4    4    0    0  0.65864906270E+02 -0.93866157752E+02 -0.10095843449E+03  0.15277973342E+03  0.00000000000E+00 0.  1.
         13    1    4    4    0    0  0.40145890321E+02  0.16827438930E+02 -0.51005545007E+02  0.67055356476E+02  0.00000000000E+00 0. -1.
          1    1    1    2  501    0 -0.17294738132E+02  0.46444021889E+02 -0.14883913223E+02  0.51746362279E+02  0.00000000000E+00 0. -1.
<scales pt_clust_5="13000.00000" pt_clust_6="13000.00000" pt_clust_7="13000.00000" pt_clust_8="13000.00000" pt_clust_9="49.55961"></scales>
<clustering>
<clus scale="   49.560">  1  9  2 -1</clus>
<clus scale="   81.329">  5  6 -1 -1</clus>
<clus scale="   89.784">  7  8 -1 -1</clus>
<clus scale="  133.963">  2  5  1 -1</clus>
<clus scale="   49.560">  1  5  2 -1</clus>
</clustering>
</event>
<event>
 9    2  0.3745229E-005  0.1201020E+03  0.7546771E-02  0.1248316E+00
          2   -1    0    0  502    0 -0.00000000000E+00  0.00000000000E+00  0.19335911232E+03  0.19335911232E+03  0.00000000000E+00 0. -1.
         21   -1    0    0  501  502  0.00000000000E+00 -0.00000000000E+00 -0.10650831662E+03  0.10650831662E+03  0.00000000000E+00 0. -1.
         23    2    1    2    0    0  0.92226631994E+02 -0.12395405910E+02  0.85132980261E+02  0.15883475930E+03  0.96547701674E+02 0.  0.
         24    2    1    2    0    0 -0.45946796649E+02  0.97154833029E+01  0.10174788304E+02  0.93910217082E+02  0.80685214366E+02 0.  0.
        -13    1    4    4    0    0 -0.52223997933E+02 -0.48560049138E+01 -0.22897112652E+02  0.57229402510E+02  0.00000000000E+00 0.  1.
         14    1    4    4    0    0  0.62772012846E+01  0.14571488217E+02  0.33071900956E+02  0.36680814572E+02  0.00000000000E+00 0. -1.
        -13    1    3    3    0    0  0.89407828527E+01 -0.32475486738E+02  0.61241348346E+02  0.69893473116E+02  0.00000000000E+00 0.  1.
         13    1    3    3    0    0  0.83285849142E+02  0.20080080828E+02  0.23891631914E+02  0.88941286188E+02  0.00000000000E+00 0. -1.
          1    1    1    2  501    0 -0.46279835346E+02  0.26799226073E+01 -0.84569728567E+01  0.47122452554E+02  0.00000000000E+00 0. -1.
<scales pt_clust_5="13000.00000" pt_clust_6="13000.00000" pt_clust_7="13000.00000" pt_clust_8="13000.00000" pt_clust_9="46.35736"></scales>
<clustering>
<clus scale="   46.357">  2  9  1 -1</clus>
<clus scale="   80.685">  5  6 -1 -1</clus>
<clus scale="   96.548">  7  8 -1 -1</clus>
<clus scale="  107.764">  2  5  1 -1</clus>
<clus scale="   46.357">  2  5  1 -1</clus>
</clustering>
</event>
<event>
 9    2  0.3745229E-005  0.9938892E+02  0.7546771E-02  0.1288455E+00
          2   -1    0    0  502    0 -0.00000000000E+00  0.00000000000E+00  0.21481775540E+02  0.21481775540E+02  0.00000000000E+00 0. -1.
         21   -1    0    0  501  502  0.00000000000E+00 -0.00000000000E+00 -0.10248258673E+04  0.10248258673E+04  0.00000000000E+00 0.  1.
         24    2    1    2    0    0  0.33357825907E+02  0.17557880108E+02 -0.12210202504E+03  0.15030173395E+03  0.79124477924E+02 0.  0.
         23    2    1    2    0    0 -0.18020544405E+01 -0.54836824017E+02 -0.48358629838E+03  0.49536193169E+03  0.92289819143E+02 0.  0.
        -13    1    3    3    0    0  0.26619076124E+02 -0.29309824343E+02 -0.65148282221E+02  0.76236078684E+02  0.00000000000E+00 0.  1.
         14    1    3    3    0    0  0.67387497829E+01  0.46867704451E+02 -0.56953742819E+02  0.74065655268E+02  0.00000000000E+00 0. -1.
        -13    1    4    4    0    0  0.36760436318E+02 -0.56036953706E+02 -0.26161943423E+03  0.27006702544E+03  0.00000000000E+00 0.  1.
         13    1    4    4    0    0 -0.38562490759E+02  0.12001296891E+01 -0.22196686415E+03  0.22529490625E+03  0.00000000000E+00 0. -1.
          1    1    1    2  501    0 -0.31555771466E+02  0.37278943909E+02 -0.39765576832E+03  0.40064397718E+03  0.00000000000E+00 0. -1.
<scales pt_clust_5="13000.00000" pt_clust_6="13000.00000" pt_clust_7="13000.00000" pt_clust_8="13000.00000" pt_clust_9="48.84144"></scales>
<clustering>
<clus scale="   48.841">  2  9  1 -1</clus>
<clus scale="   79.124">  5  6 -1 -1</clus>
<clus scale="   87.301">  1  5  2 -1</clus>
<clus scale="   92.290">  7  8 -1 -1</clus>
<clus scale="   48.841">  2  5  1 -1</clus>
</clustering>
</event>
<event>
 9    2  0.3745229E-005  0.1062827E+03  0.7546771E-02  0.1271682E+00
         -3   -1    0    0    0  501 -0.00000000000E+00  0.00000000000E+00  0.39099589609E+03  0.39099589609E+03  0.00000000000E+00 0.  1.
         21   -1    0    0  501  502  0.00000000000E+00 -0.00000000000E+00 -0.66739434827E+02  0.66739434827E+02  0.00000000000E+00 0. -1.
         23    2    1    2    0    0 -0.41392445227E+02  0.20602047877E+02  0.24515433932E+03  0.26531185282E+03  0.90288151276E+02 0.  0.
         24    2    1    2    0    0  0.68767111122E+02 -0.46001813518E+02  0.97137413161E+02  0.15095310123E+03  0.80660270987E+02 0.  0.
        -11    1    4    4    0    0  0.31780220153E+02 -0.61071459206E+02  0.35374657792E+02  0.77402015067E+02  0.00000000000E+00 0.  1.
         12    1    4    4    0    0  0.36986890969E+02  0.15069645688E+02  0.61762755369E+02  0.73551086161E+02  0.00000000000E+00 0. -1.
        -13    1    3    3    0    0  0.21957684290E+02  0.30682713255E+00  0.17329771486E+02  0.27974184922E+02  0.00000000000E+00 0. -1.
         13    1    3    3    0    0 -0.63350129517E+02  0.20295220745E+02  0.22782456784E+03  0.23733766790E+03  0.00000000000E+00 0.  1.
         -4    1    1    2    0  502 -0.27374665895E+02  0.25399765641E+02 -0.18035291226E+02  0.41470376862E+02  0.00000000000E+00 0.  1.
<scales pt_clust_5="13000.00000" pt_clust_6="13000.00000" pt_clust_7="13000.00000" pt_clust_8="13000.00000" pt_clust_9="37.34328"></scales>
<clustering>
<clus scale="   37.343">  2  9  1 -1</clus>
<clus scale="   80.660">  5  6 -1 -1</clus>
<clus scale="   90.288">  7  8 -1 -1</clus>
<clus scale="   98.235">  2  5  1 -1</clus>
<clus scale="   37.343">  2  5  1 -1</clus>
</clustering>
</event>
<event>
 9    2  0.3745229E-005  0.1389520E+03  0.7546771E-02  0.1217053E+00
         21   -1    0    0  501  502  0.00000000000E+00  0.00000000000E+00  0.94549957023E+02  0.94549957023E+02  0.00000000000E+00 0. -1.
         -3   -1    0    0    0  501 -0.00000000000E+00 -0.00000000000E+00 -0.31168882077E+03  0.31168882077E+03  0.00000000000E+00 0.  1.
         24    2    1    2    0    0 -0.10298729504E+03  0.55293579147E+01 -0.11998170077E+03  0.17726756320E+03  0.79945129345E+02 0.  0.
         23    2    1    2    0    0  0.10217174341E+03 -0.47276522648E+02 -0.11394768528E+03  0.18396663120E+03  0.90473817577E+02 0.  0.
        -13    1    3    3    0    0 -0.74963267299E+02  0.18117795324E+01 -0.12758903528E+03  0.14799235086E+03  0.00000000000E+00 0.  1.
         14    1    3    3    0    0 -0.28024027739E+02  0.37175783823E+01  0.76073345044E+01  0.29275212348E+02  0.00000000000E+00 0. -1.
        -11    1    4    4    0    0  0.28257458239E+02  0.13171670441E+02 -0.74303681539E+02  0.80579240122E+02  0.00000000000E+00 0.  1.
         11    1    4    4    0    0  0.73914285172E+02 -0.60448193089E+02 -0.39644003742E+02  0.10338739107E+03  0.00000000000E+00 0. -1.
         -4    1    1    2    0  502  0.81555162729E+00  0.41747164733E+02  0.16790522302E+02  0.45004583399E+02  0.00000000000E+00 0.  1.
<scales pt_clust_5="13000.00000" pt_clust_6="13000.00000" pt_clust_7="13000.00000" pt_clust_8="13000.00000" pt_clust_9="41.75513"></scales>
<clustering>
<clus scale="   41.755">  1  9  2 -1</clus>
<clus scale="   79.945">  5  6 -1 -1</clus>
<clus scale="   90.474">  7  8 -1 -1</clus>
<clus scale="  132.338">  2  5  1 -1</clus>
<clus scale="   41.755">  1  5  2 -1</clus>
</clustering>
</event>
<event>
 9    2  0.3745229E-005  0.1081769E+03  0.7546771E-02  0.1269389E+00
         21   -1    0    0  501  502  0.00000000000E+00  0.00000000000E+00  0.35651861274E+02  0.35651861274E+02  0.00000000000E+00 0. -1.
          2   -1    0    0  502    0 -0.00000000000E+00 -0.00000000000E+00 -0.96565241136E+03  0.96565241136E+03  0.00000000000E+00 0. -1.
         23    2    1    2    0    0 -0.26243554102E+02 -0.49968317204E+02 -0.52373878162E+03  0.53466310782E+03  0.91524699602E+02 0.  0.
         24    2    1    2    0    0  0.10110943921E+03 -0.10220997275E+02 -0.27960746288E+03  0.30767900751E+03  0.78475798083E+02 0.  0.
        -13    1    4    4    0    0  0.45198054513E+02  0.23711128073E+02 -0.19003893158E+03  0.19677367009E+03  0.00000000000E+00 0.  1.
         14    1    4    4    0    0  0.55911384694E+02 -0.33932125348E+02 -0.89568531298E+02  0.11090533742E+03  0.00000000000E+00 0. -1.
        -13    1    3    3    0    0 -0.29617113732E+02 -0.75032080256E+02 -0.43380537870E+03  0.44124153599E+03  0.00000000000E+00 0. -1.
         13    1    3    3    0    0  0.33735596301E+01  0.25063763052E+02 -0.89933402915E+02  0.93421571828E+02  0.00000000000E+00 0.  1.
          1    1    1    2  501    0 -0.74865885104E+02  0.60189314479E+02 -0.12665430559E+03  0.15896215731E+03  0.00000000000E+00 0. -1.
<scales pt_clust_5="13000.00000" pt_clust_6="13000.00000" pt_clust_7="13000.00000" pt_clust_8="13000.00000" pt_clust_9="96.06068"></scales>
<clustering>
<clus scale="   78.476">  5  6 -1 -1</clus>
<clus scale="   91.525">  7  8 -1 -1</clus>
<clus scale="   96.061">  1  9  2 -1</clus>
<clus scale="   97.385">  1  5  2 -1</clus>
<clus scale="   96.061">  1  5  2 -1</clus>
</clustering>
</event>
<event>
 9    2  0.3745229E-005  0.1466044E+03  0.7546771E-02  0.1223029E+00
          2   -1    0    0  502    0 -0.00000000000E+00  0.00000000000E+00  0.62704934822E+03  0.62704934822E+03  0.00000000000E+00 0. -1.
         21   -1    0    0  501  502  0.00000000000E+00 -0.00000000000E+00 -0.59799516082E+02  0.59799516082E+02  0.00000000000E+00 0. -1.
         23    2    1    2    0    0  0.38963288806E+02 -0.16591178791E+01  0.81232379588E+02  0.12836288387E+03  0.91419034757E+02 0.  0.
         24    2    1    2    0    0 -0.13779079687E+03  0.23465546179E+02  0.21398523944E+03  0.26823794575E+03  0.81393963418E+02 0.  0.
        -11    1    4    4    0    0 -0.11562731748E+03 -0.15573972911E+02  0.14870617160E+03  0.18901256744E+03  0.00000000000E+00 0.  1.
         12    1    4    4    0    0 -0.22163479396E+02  0.39039519090E+02  0.65279067841E+02  0.79225378307E+02  0.00000000000E+00 0. -1.
        -11    1    3    3    0    0 -0.44328530841E+01 -0.40287878525E+02  0.25692325483E+02  0.47988112395E+02  0.00000000000E+00 0. -1.
         11    1    3    3    0    0  0.43396141890E+02  0.38628760646E+02  0.55540054105E+02  0.80374771477E+02  0.00000000000E+00 0.  1.
          1    1    1    2  501    0  0.98827508068E+02 -0.21806428300E+02  0.27203221311E+03  0.29024803468E+03  0.00000000000E+00 0. -1.
<scales pt_clust_5="13000.00000" pt_clust_6="13000.00000" pt_clust_7="13000.00000" pt_clust_8="13000.00000" pt_clust_9="121.93394"></scales>
<clustering>
<clus scale="   81.394">  5  6 -1 -1</clus>
<clus scale="   91.419">  7  8 -1 -1</clus>
<clus scale="   99.390">  1  7  2 -1</clus>
<clus scale="  121.934">  2  9  1 -1</clus>
<clus scale="  121.934">  2  5  1 -1</clus>
</clustering>
</event>
<event>
 9    2  0.3745229E-005  0.1324346E+03  0.7546771E-02  0.1243818E+00
         21   -1    0    0  501  502  0.00000000000E+00  0.00000000000E+00  0.11942293613E+04  0.11942293613E+04  0.00000000000E+00 0. -1.
          2   -1    0    0  502    0 -0.00000000000E+00 -0.00000000000E+00 -0.27892246473E+02  0.27892246473E+02  0.00000000000E+00 0. -1.
         24    2    1    2    0    0  0.33379722938E+02  0.17689042159E+02  0.11320036239E+03  0.14337112325E+03  0.79459730811E+02 0.  0.
         23    2    1    2    0    0 -0.10619232329E+03  0.35693310741E+02  0.65092721636E+03  0.66653226406E+03  0.89488524842E+02 0.  0.
        -11    1    3    3    0    0  0.20050410921E+02  0.24460169278E+02  0.12199331444E+03  0.12602653541E+03  0.00000000000E+00 0.  1.
         12    1    3    3    0    0  0.13329312017E+02 -0.67711271193E+01 -0.87929520556E+01  0.17344587835E+02  0.00000000000E+00 0. -1.
        -11    1    4    4    0    0  0.69169739376E+01  0.26470353175E+02  0.83500485620E+02  0.87868397188E+02  0.00000000000E+00 0. -1.
         11    1    4    4    0    0 -0.11310929723E+03  0.92229575661E+01  0.56742673074E+03  0.57866386687E+03  0.00000000000E+00 0.  1.
          1    1    1    2  501    0  0.72812600350E+02 -0.53382352900E+02  0.40220953609E+03  0.41221822048E+03  0.00000000000E+00 0. -1.
<scales pt_clust_5="13000.00000" pt_clust_6="13000.00000" pt_clust_7="13000.00000" pt_clust_8="13000.00000" pt_clust_9="97.62540"></scales>
<clustering>
<clus scale="   79.460">  5  6 -1 -1</clus>
<clus scale="   87.983">  2  5  1 -1</clus>
<clus scale="   89.489">  7  8 -1 -1</clus>
<clus scale="   97.625">  1  9  2 -1</clus>
<clus scale="   97.625">  1  5  2 -1</clus>
</clustering>
</event>
<event>
 9    2  0.3745229E-005  0.1504805E+03  0.7546771E-02  0.1217461E+00
         21   -1    0    0  501  502  0.00000000000E+00  0.00000000000E+00  0.17432453790E+03  0.17432453790E+03  0.00000000000E+00 0.  1.
          2   -1    0    0  502    0 -0.00000000000E+00 -0.00000000000E+00 -0.49896119547E+03  0.49896119547E+03  0.00000000000E+00 0. -1.
         24    2    1    2    0    0  0.22111308361E+02  0.62021757675E+02 -0.78814518781E+02  0.12993311124E+03  0.79594451085E+02 0.  0.
         23    2    1    2    0    0  0.10509304075E+03 -0.59900295783E+02  0.95620628338E+02  0.17897834991E+03  0.90869975921E+02 0.  0.
        -13    1    3    3    0    0 -0.11374862448E+02  0.51346956235E+02 -0.11261484675E+02  0.53783998060E+02  0.00000000000E+00 0.  1.
         14    1    3    3    0    0  0.33486170809E+02  0.10674801441E+02 -0.67553034106E+02  0.76149113180E+02  0.00000000000E+00 0. -1.
        -13    1    4    4    0    0  0.16494505541E+02 -0.11648104492E+02  0.72793252951E+02  0.75542072559E+02  0.00000000000E+00 0. -1.
         13    1    4    4    0    0  0.88598535205E+02 -0.48252191290E+02  0.22827375387E+02  0.10343627735E+03  0.00000000000E+00 0.  1.
          1    1    1    2  501    0 -0.12720434911E+03 -0.21214618928E+01 -0.34144276712E+03  0.36437427222E+03  0.00000000000E+00 0. -1.
<scales pt_clust_5="13000.00000" pt_clust_6="13000.00000" pt_clust_7="13000.00000" pt_clust_8="13000.00000" pt_clust_9="119.94602"></scales>
<clustering>
<clus scale="   79.594">  5  6 -1 -1</clus>
<clus scale="   90.870">  7  8 -1 -1</clus>
<clus scale="  103.300">  2  5  1 -1</clus>
<clus scale="  119.946">  1  9  2 -1</clus>
<clus scale="  119.946">  1  5  2 -1</clus>
</clustering>
</event>
<event>
 9    2  0.3745229E-005  0.1184438E+03  0.7546771E-02  0.1249450E+00
         -3   -1    0    0    0  501 -0.00000000000E+00  0.00000000000E+00  0.50126615826E+03  0.50126615826E+03  0.00000000000E+00 0.  1.
         21   -1    0    0  501  502  0.00000000000E+00 -0.00000000000E+00 -0.60823255130E+02  0.60823255130E+02  0.00000000000E+00 0. -1.
         24    2    1    2    0    0 -0.18360456979E+02  0.75665206302E+02  0.25090196324E+03  0.27436114962E+03  0.79119627367E+02 0.  0.
         23    2    1    2    0    0  0.40256982961E+02 -0.60708995986E+02  0.22359300709E+02  0.11845674651E+03  0.90696502666E+02 0.  0.
        -11    1    3    3    0    0  0.26075399997E+02  0.55479121655E+02  0.15676367725E+03  0.16832323051E+03  0.00000000000E+00 0.  1.
         12    1    3    3    0    0 -0.44435856977E+02  0.20186084647E+02  0.94138285989E+02  0.10603791910E+03  0.00000000000E+00 0. -1.
        -11    1    4    4    0    0 -0.73628663296E+01 -0.37020904817E+02 -0.26592089920E+02  0.46172485751E+02  0.00000000000E+00 0. -1.
         11    1    4    4    0    0  0.47619849290E+02 -0.23688091168E+02  0.48951390629E+02  0.72284260763E+02  0.00000000000E+00 0.  1.
         -4    1    1    2    0  502 -0.21896525981E+02 -0.14956210317E+02  0.16718163918E+03  0.16927151727E+03  0.00000000000E+00 0.  1.
<scales pt_clust_5="13000.00000" pt_clust_6="13000.00000" pt_clust_7="13000.00000" pt_clust_8="13000.00000" pt_clust_9="26.51691"></scales>
<clustering>
<clus scale="   26.517">  2  9  1 -1</clus>
<clus scale="   79.120">  5  6 -1 -1</clus>
<clus scale="   90.697">  7  8 -1 -1</clus>
<clus scale="  109.832">  1  5  2 -1</clus>
<clus scale="   26.517">  2  5  1 -1</clus>
</clustering>
</event>
<event>
 9    2  0.3745229E-005  0.1005071E+03  0.7546771E-02  0.1287640E+00
         21   -1    0    0  501  502  0.00000000000E+00  0.00000000000E+00  0.45724140596E+03  0.45724140596E+03  0.00000000000E+00 0. -1.
          2   -1    0    0  502    0 -0.00000000000E+00 -0.00000000000E+00 -0.46607273451E+02  0.46607273451E+02  0.00000000000E+00 0. -1.
         24    2    1    2    0    0 -0.80345843344E+01  0.39308075791E+02  0.12936098642E+03  0.15808967090E+03  0.81537720536E+02 0.  0.
         23    2    1    2    0    0 -0.54445903001E+02  0.81036694593E+01  0.21848286076E+03  0.24528859089E+03  0.96962397669E+02 0.  0.
        -13    1    3    3    0    0 -0.18303618987E+02 -0.17597951544E+02  0.13873098403E+02  0.28933945909E+02  0.00000000000E+00 0.  1.
         14    1    3    3    0    0  0.10269034652E+02  0.56906027335E+02  0.11548788801E+03  0.12915572499E+03  0.00000000000E+00 0. -1.
        -13    1    4    4    0    0  0.14466261857E+02 -0.22793561744E+02  0.10894096808E+03  0.11223615155E+03  0.00000000000E+00 0.  1.
         13    1    4    4    0    0 -0.68912164858E+02  0.30897231203E+02  0.10954189268E+03  0.13305243934E+03  0.00000000000E+00 0. -1.
          1    1    1    2  501    0  0.62480487335E+02 -0.47411745251E+02  0.62790285329E+02  0.10047041762E+03  0.00000000000E+00 0. -1.
<scales pt_clust_5="13000.00000" pt_clust_6="13000.00000" pt_clust_7="13000.00000" pt_clust_8="13000.00000" pt_clust_9="78.43272"></scales>
<clustering>
<clus scale="   78.433">  1  9  2 -1</clus>
<clus scale="   81.538">  5  6 -1 -1</clus>
<clus scale="   85.723">  2  5  1 -1</clus>
<clus scale="   96.962">  7  8 -1 -1</clus>
<clus scale="   78.433">  1  5  2 -1</clus>
</clustering>
</event>
<event>
 9    2  0.3745229E-005  0.9316551E+02  0.7546771E-02  0.1302978E+00
         21   -1    0    0  501  502  0.00000000000E+00  0.00000000000E+00  0.28837487995E+03  0.28837487995E+03  0.00000000000E+00 0.  1.
         -1   -1    0    0    0  501 -0.00000000000E+00 -0.00000000000E+00 -0.65773884210E+02  0.65773884210E+02  0.00000000000E+00 0.  1.
         23    2    1    2    0    0  0.32469207138E+02 -0.43566959273E+02  0.10789226267E+03  0.14924111588E+03  0.87634701870E+02 0.  0.
         24    2    1    2    0    0 -0.22064287824E+02 -0.13332652304E+02  0.12337566602E+03  0.14641881285E+03  0.74513900549E+02 0.  0.
        -11    1    4    4    0    0 -0.24777154826E+02  0.22863446105E+02  0.93548355947E+02  0.99438118795E+02  0.00000000000E+00 0.  1.
         12    1    4    4    0    0  0.27128670026E+01 -0.36196098409E+02  0.29827310070E+02  0.46980694050E+02  0.00000000000E+00 0. -1.
        -13    1    3    3    0    0  0.30178044303E+02 -0.69896886654E+02  0.86552942886E+02  0.11527229088E+03  0.00000000000E+00 0.  1.
         13    1    3    3    0    0  0.22911628348E+01  0.26329927381E+02  0.21339319785E+02  0.33968825001E+02  0.00000000000E+00 0. -1.
         -2    1    1    2    0  502 -0.10404919314E+02  0.56899611577E+02 -0.86669329527E+01  0.58488835434E+02  0.00000000000E+00 0.  1.
<scales pt_clust_5="13000.00000" pt_clust_6="13000.00000" pt_clust_7="13000.00000" pt_clust_8="13000.00000" pt_clust_9="57.84316"></scales>
<clustering>
<clus scale="   57.843">  1  9  2 -1</clus>
<clus scale="   74.514">  5  6 -1 -1</clus>
<clus scale="   80.946">  1  5  2 -1</clus>
<clus scale="   87.635">  7  8 -1 -1</clus>
<clus scale="   57.843">  1  5  2 -1</clus>
</clustering>
</event>
<event>
 9    2  0.3745229E-005  0.1850704E+03  0.7546771E-02  0.1197406E+00
         21   -1    0    0  501  502  0.00000000000E+00  0.00000000000E+00  0.19014235785E+03  0.19014235785E+03  0.00000000000E+00 0.  1.
         -1   -1    0    0    0  501 -0.00000000000E+00 -0.00000000000E+00 -0.33982424856E+03  0.33982424856E+03  0.00000000000E+00 0.  1.
         24    2    1    2    0    0  0.28234966784E+02  0.53702110711E+01 -0.10146198555E+03  0.13260372728E+03  0.80393789939E+02 0.  0.
         23    2    1    2    0    0  0.12155276385E+03  0.38328481982E+01 -0.14263500807E+03  0.22006292931E+03  0.11529606326E+03 0.  0.
        -13    1    3    3    0    0  0.33951614807E+02 -0.25134874263E+02 -0.90174655573E+02  0.99578825861E+02  0.00000000000E+00 0.  1.
         14    1    3    3    0    0 -0.57166480228E+01  0.30505085334E+02 -0.11287329982E+02  0.33024901423E+02  0.00000000000E+00 0. -1.
        -13    1    4    4    0    0  0.21424927513E+02 -0.46628227231E+02 -0.68728410270E+02  0.85771868768E+02  0.00000000000E+00 0. -1.
         13    1    4    4    0    0  0.10012783633E+03  0.50461075429E+02 -0.73906597799E+02  0.13429106054E+03  0.00000000000E+00 0.  1.
         -2    1    1    2    0  502 -0.14978773063E+03 -0.92030592693E+01  0.94415102916E+02  0.17729994982E+03  0.00000000000E+00 0.  1.
<scales pt_clust_5="13000.00000" pt_clust_6="13000.00000" pt_clust_7="13000.00000" pt_clust_8="13000.00000" pt_clust_9="144.76827"></scales>
<clustering>
<clus scale="   80.394">  5  6 -1 -1</clus>
<clus scale="   85.377">  2  5  1 -1</clus>
<clus scale="  115.296">  7  8 -1 -1</clus>
<clus scale="  144.768">  1  9  2 -1</clus>
<clus scale="  144.768">  1  5  2 -1</clus>
</clustering>
</event>
<event>
 9    2  0.3745229E-005  0.1235568E+03  0.7546771E-02  0.1240796E+00
          2   -1    0    0  502    0 -0.00000000000E+00  0.00000000000E+00  0.11685535200E+03  0.11685535200E+03  0.00000000000E+00 0. -1.
         21   -1    0    0  501  502  0.00000000000E+00 -0.00000000000E+00 -0.31754284647E+03  0.31754284647E+03  0.00000000000E+00 0.  1.
         24    2    1    2    0    0 -0.49771521926E+02 -0.63949306418E+02  0.58863689153E+02  0.12786764056E+03  0.79488876048E+02 0.  0.
         23    2    1    2    0    0  0.46841930762E+02  0.89792696784E+02 -0.22809591023E+03  0.26571514962E+03  0.91213494609E+02 0.  0.
        -11    1    3    3    0    0 -0.12304793461E+02  0.16577207628E+02  0.25924128826E+02  0.33140190257E+02  0.00000000000E+00 0.  1.
         12    1    3    3    0    0 -0.37466728465E+02 -0.80526514046E+02  0.32939560327E+02  0.94727450303E+02  0.00000000000E+00 0. -1.
        -13    1    4    4    0    0  0.67958361893E+02  0.73380587631E+02 -0.21223713185E+03  0.23462235556E+03  0.00000000000E+00 0.  1.
         13    1    4    4    0    0 -0.21116431131E+02  0.16412109154E+02 -0.15858778381E+02  0.31092794058E+02  0.00000000000E+00 0. -1.
          1    1    1    2  501    0  0.29295911647E+01 -0.25843390366E+02 -0.31455273393E+02  0.40815408294E+02  0.00000000000E+00 0. -1.
<scales pt_clust_5="13000.00000" pt_clust_6="13000.00000" pt_clust_7="13000.00000" pt_clust_8="13000.00000" pt_clust_9="26.00891"></scales>
<clustering>
<clus scale="   26.009">  2  9  1 -1</clus>
<clus scale="   79.489">  5  6 -1 -1</clus>
<clus scale="   91.213">  7  8 -1 -1</clus>
<clus scale="  115.173">  1  5  2 -1</clus>
<clus scale="   26.009">  2  5  1 -1</clus>
</clustering>
</event>
<event>
 9    2  0.3745229E-005  0.1068872E+03  0.7546771E-02  0.1270868E+00
         21   -1    0    0  501  502  0.00000000000E+00  0.00000000000E+00  0.57326420499E+02  0.57326420499E+02  0.00000000000E+00 0.  1.
          2   -1    0    0  502    0 -0.00000000000E+00 -0.00000000000E+00 -0.39779569090E+03  0.39779569090E+03  0.00000000000E+00 0. -1.
         23    2    1    2    0    0  0.47233267551E+02  0.21181392641E+02 -0.29289297125E+03  0.31101854512E+03  0.90920898808E+02 0.  0.
         24    2    1    2    0    0 -0.62503603743E+02 -0.38995440413E+02 -0.50995078267E+02  0.12039256638E+03  0.80414719907E+02 0.  0.
        -13    1    4    4    0    0 -0.12977619751E+02 -0.55388167848E+02 -0.26201941352E+02  0.62632335759E+02  0.00000000000E+00 0.  1.
         14    1    4    4    0    0 -0.49525983992E+02  0.16392727434E+02 -0.24793136915E+02  0.57760230619E+02  0.00000000000E+00 0. -1.
        -11    1    3    3    0    0  0.29628455859E+02 -0.24056834428E+02 -0.47812612405E+02  0.61176977567E+02  0.00000000000E+00 0.  1.
         11    1    3    3    0    0  0.17604811692E+02  0.45238227069E+02 -0.24508035885E+03  0.24984156755E+03  0.00000000000E+00 0. -1.
          1    1    1    2  501    0  0.15270336193E+02  0.17814047772E+02  0.34187791236E+01  0.23710999898E+02  0.00000000000E+00 0. -1.
<scales pt_clust_5="13000.00000" pt_clust_6="13000.00000" pt_clust_7="13000.00000" pt_clust_8="13000.00000" pt_clust_9="23.46324"></scales>
<clustering>
<clus scale="   23.463">  1  9  2 -1</clus>
<clus scale="   80.415">  5  6 -1 -1</clus>
<clus scale="   90.921">  7  8 -1 -1</clus>
<clus scale="   98.106">  1  5  2 -1</clus>
<clus scale="   23.463">  1  5  2 -1</clus>
</clustering>
</event>
<event>
 9    2  0.3745229E-005  0.9077252E+02  0.7546771E-02  0.1306142E+00
         -3   -1    0    0    0  501 -0.00000000000E+00  0.00000000000E+00  0.48823875245E+03  0.48823875245E+03  0.00000000000E+00 0.  1.
         21   -1    0    0  501  502  0.00000000000E+00 -0.00000000000E+00 -0.40343994695E+02  0.40343994695E+02  0.00000000000E+00 0. -1.
         24    2    1    2    0    0  0.18631633062E+02  0.22863515427E+02  0.29745970417E+03  0.30937495439E+03  0.79754051391E+02 0.  0.
         23    2    1    2    0    0 -0.49322720618E+01  0.27540392607E+02  0.48030389671E+02  0.10425153312E+03  0.88196730627E+02 0.  0.
        -11    1    3    3    0    0  0.41433687054E+02  0.45350961172E+01  0.25124431562E+03  0.25467827479E+03  0.00000000000E+00 0.  1.
         12    1    3    3    0    0 -0.22802053991E+02  0.18328419310E+02  0.46215388545E+02  0.54696679597E+02  0.00000000000E+00 0. -1.
        -11    1    4    4    0    0 -0.43717440574E+02  0.30133422948E+02  0.33342590376E+02  0.62697417187E+02  0.00000000000E+00 0. -1.
         11    1    4    4    0    0  0.38785168512E+02 -0.25930303410E+01  0.14687799295E+02  0.41554115934E+02  0.00000000000E+00 0.  1.
         -4    1    1    2    0  502 -0.13699361000E+02 -0.50403908034E+02  0.10240466392E+03  0.11495625964E+03  0.00000000000E+00 0.  1.
<scales pt_clust_5="13000.00000" pt_clust_6="13000.00000" pt_clust_7="13000.00000" pt_clust_8="13000.00000" pt_clust_9="52.23245"></scales>
<clustering>
<clus scale="   52.232">  2  9  1 -1</clus>
<clus scale="   79.754">  5  6 -1 -1</clus>
<clus scale="   82.594">  1  5  2 -1</clus>
<clus scale="   88.197">  7  8 -1 -1</clus>
<clus scale="   52.232">  2  5  1 -1</clus>
</clustering>
</event>
<event>
 9    2  0.3745229E-005  0.1454994E+03  0.7546771E-02  0.1224831E+00
         21   -1    0    0  501  502  0.00000000000E+00  0.00000000000E+00  0.36399418920E+03  0.36399418920E+03  0.00000000000E+00 0.  1.
         -3   -1    0    0    0  501 -0.00000000000E+00 -0.00000000000E+00 -0.20038617728E+03  0.20038617728E+03  0.00000000000E+00 0.  1.
         23    2    1    2    0    0 -0.31653307061E+02  0.23485564715E+02  0.43218050065E+01  0.98016477727E+02  0.89638430986E+02 0.  0.
         24    2    1    2    0    0  0.33977523347E+02  0.11539016520E+03  0.25832817474E+03  0.29577320398E+03  0.79240015223E+02 0.  0.
        -11    1    4    4    0    0  0.44566332828E+02  0.22154425518E+02  0.78792277024E+02  0.93194417807E+02  0.00000000000E+00 0.  1.
         12    1    4    4    0    0 -0.10588809480E+02  0.93235739680E+02  0.17953589771E+03  0.20257878617E+03  0.00000000000E+00 0. -1.
        -11    1    3    3    0    0 -0.46255944758E+02 -0.12456127813E+02  0.25021337591E+02  0.54044748870E+02  0.00000000000E+00 0. -1.
         11    1    3    3    0    0  0.14602637697E+02  0.35941692528E+02 -0.20699532585E+02  0.43971728858E+02  0.00000000000E+00 0.  1.
         -4    1    1    2    0  502 -0.23242162865E+01 -0.13887572991E+03 -0.99041967824E+02  0.17059068477E+03  0.00000000000E+00 0.  1.
<scales pt_clust_5="13000.00000" pt_clust_6="13000.00000" pt_clust_7="13000.00000" pt_clust_8="13000.00000" pt_clust_9="122.02909"></scales>
<clustering>
<clus scale="   79.240">  5  6 -1 -1</clus>
<clus scale="   89.638">  7  8 -1 -1</clus>
<clus scale="   97.921">  2  7  1 -1</clus>
<clus scale="  122.029">  1  9  2 -1</clus>
<clus scale="  122.029">  1  5  2 -1</clus>
</clustering>
</event>
<event>
 9    2  0.3745229E-005  0.9743650E+02  0.7546771E-02  0.1292557E+00
         21   -1    0    0  501  502  0.00000000000E+00  0.00000000000E+00  0.93529886469E+02  0.93529886469E+02  0.00000000000E+00 0.  1.
          2   -1    0    0  502    0 -0.00000000000E+00 -0.00000000000E+00 -0.20251104882E+03  0.20251104882E+03  0.00000000000E+00 0. -1.
         24    2    1    2    0    0 -0.81056819063E+01 -0.16529773274E+02 -0.79822585217E+02  0.11410414962E+03  0.79430323967E+02 0.  0.
         23    2    1    2    0    0  0.34079225155E+02  0.69261617286E+02 -0.11416952320E+02  0.12053615397E+03  0.91869757799E+02 0.  0.
        -13    1    3    3    0    0  0.28329252524E+02  0.16119072806E+02 -0.30713475912E+02  0.44784915533E+02  0.00000000000E+00 0.  1.
         14    1    3    3    0    0 -0.36434934431E+02 -0.32648846080E+02 -0.49109109305E+02  0.69319234084E+02  0.00000000000E+00 0. -1.
        -13    1    4    4    0    0  0.62447225849E+02  0.32253920253E+02 -0.20105506195E+02  0.73104054383E+02  0.00000000000E+00 0.  1.
         13    1    4    4    0    0 -0.28368000694E+02  0.37007697033E+02  0.86885538753E+01  0.47432099590E+02  0.00000000000E+00 0. -1.
          1    1    1    2  501    0 -0.25973543248E+02 -0.52731844012E+02 -0.17741624811E+02  0.61400631696E+02  0.00000000000E+00 0. -1.
<scales pt_clust_5="13000.00000" pt_clust_6="13000.00000" pt_clust_7="13000.00000" pt_clust_8="13000.00000" pt_clust_9="58.78156"></scales>
<clustering>
<clus scale="   58.782">  1  9  2 -1</clus>
<clus scale="   79.430">  5  6 -1 -1</clus>
<clus scale="   85.808">  2  5  1 -1</clus>
<clus scale="   91.870">  7  8 -1 -1</clus>
<clus scale="   58.782">  1  5  2 -1</clus>
</clustering>
</event>
<event>
 9    2  0.3745229E-005  0.1315201E+03  0.7546771E-02  0.1247742E+00
          2   -1    0    0  502    0 -0.00000000000E+00  0.00000000000E+00  0.15626416771E+03  0.15626416771E+03  0.00000000000E+00 0. -1.
         21   -1    0    0  501  502  0.00000000000E+00 -0.00000000000E+00 -0.26852268881E+03  0.26852268881E+03  0.00000000000E+00 0.  1.
         24    2    1    2    0    0  0.29719864449E+02 -0.13650214202E+02 -0.88317612672E+02  0.12120702560E+03  0.76299040999E+02 0.  0.
         23    2    1    2    0    0  0.85682611654E+02 -0.16641661826E+02 -0.10063405668E+03  0.16174482737E+03  0.91737238725E+02 0.  0.
        -13    1    3    3    0    0  0.34386525916E+02  0.24785738434E+02 -0.58967039151E+02  0.72621468593E+02  0.00000000000E+00 0.  1.
         14    1    3    3    0    0 -0.46666614672E+01 -0.38435952635E+02 -0.29350573520E+02  0.48585557012E+02  0.00000000000E+00 0. -1.
        -13    1    4    4    0    0  0.35775005864E+02  0.34875003528E+02 -0.19973680678E+02  0.53805806707E+02  0.00000000000E+00 0. -1.
         13    1    4    4    0    0  0.49907605790E+02 -0.51516665353E+02 -0.80660376002E+02  0.10793902066E+03  0.00000000000E+00 0.  1.
          1    1    1    2  501    0 -0.11540247610E+03  0.30291876028E+02  0.76693148247E+02  0.14183500355E+03  0.00000000000E+00 0. -1.
<scales pt_clust_5="13000.00000" pt_clust_6="13000.00000" pt_clust_7="13000.00000" pt_clust_8="13000.00000" pt_clust_9="94.24339"></scales>
<clustering>
<clus scale="   76.299">  5  6 -1 -1</clus>
<clus scale="   83.013">  1  5  2 -1</clus>
<clus scale="   91.737">  7  8 -1 -1</clus>
<clus scale="   94.243">  2  9  1 -1</clus>
<clus scale="   94.243">  2  5  1 -1</clus>
</clustering>
</event>
<event>
 9    2  0.3745229E-005  0.9029920E+02  0.7546771E-02  0.1308769E+00
         21   -1    0    0  501  502  0.00000000000E+00  0.00000000000E+00  0.29616558375E+02  0.29616558375E+02  0.00000000000E+00 0. -1.
          2   -1    0    0  502    0 -0.00000000000E+00 -0.00000000000E+00 -0.50131069343E+03  0.50131069343E+03  0.00000000000E+00 0. -1.
         24    2    1    2    0    0  0.11511291578E+02  0.29902589307E+01 -0.15644274654E+03  0.17597644830E+03  0.79698970680E+02 0.  0.
         23    2    1    2    0    0  0.87834897450E+01  0.19989084746E+02 -0.95477873225E+02  0.13304918926E+03  0.90051925495E+02 0.  0.
        -13    1    3    3    0    0  0.28512808215E+02  0.32313838879E+02 -0.11255672306E+03  0.12052460463E+03  0.00000000000E+00 0.  1.
         14    1    3    3    0    0 -0.17001516637E+02 -0.29323579948E+02 -0.43886023482E+02  0.55451843666E+02  0.00000000000E+00 0. -1.
        -13    1    4    4    0    0  0.27007290838E+02  0.10980278432E+02 -0.10615589640E+03  0.11008648697E+03  0.00000000000E+00 0.  1.
         13    1    4    4    0    0 -0.18223801093E+02  0.90088063137E+01  0.10678023175E+02  0.22962702288E+02  0.00000000000E+00 0. -1.
          1    1    1    2  501    0 -0.20294781323E+02 -0.22979343676E+02 -0.21977351529E+03  0.22190161425E+03  0.00000000000E+00 0. -1.
<scales pt_clust_5="13000.00000" pt_clust_6="13000.00000" pt_clust_7="13000.00000" pt_clust_8="13000.00000" pt_clust_9="30.65827"></scales>
<clustering>
<clus scale="   30.658">  1  9  2 -1</clus>
<clus scale="   79.699">  5  6 -1 -1</clus>
<clus scale="   79.978">  2  5  1 -1</clus>
<clus scale="   90.052">  7  8 -1 -1</clus>
<clus scale="   30.658">  1  5  2 -1</clus>
</clustering>
</event>
<event>
 9    2  0.3745229E-005  0.1502889E+03  0.7546771E-02  0.1211932E+00
         21   -1    0    0  501  502  0.00000000000E+00  0.00000000000E+00  0.79274298080E+03  0.79274298080E+03  0.00000000000E+00 0.  1.
         -3   -1    0    0    0  501 -0.00000000000E+00 -0.00000000000E+00 -0.98069958866E+02  0.98069958866E+02  0.00000000000E+00 0.  1.
         23    2    1    2    0    0  0.11434018764E+02 -0.71934287933E+02  0.30726328792E+02  0.12056253956E+03  0.91027139350E+02 0.  0.
         24    2    1    2    0    0  0.10792168748E+03  0.10975564978E+03  0.11752545349E+03  0.20966819278E+03  0.80343796015E+02 0.  0.
        -13    1    4    4    0    0  0.11944277242E+03  0.93003629840E+02  0.92422255115E+02  0.17736438281E+03  0.00000000000E+00 0.  1.
         14    1    4    4    0    0 -0.11521084941E+02  0.16752019942E+02  0.25103198371E+02  0.32303809974E+02  0.00000000000E+00 0. -1.
        -13    1    3    3    0    0 -0.10689639145E+02 -0.61326259525E+02  0.57148635735E+02  0.84505296039E+02  0.00000000000E+00 0. -1.
         13    1    3    3    0    0  0.22123657909E+02 -0.10608028409E+02 -0.26422306943E+02  0.36057243519E+02  0.00000000000E+00 0.  1.
         -4    1    1    2    0  502 -0.11935570625E+03 -0.37821361848E+02  0.54642123966E+03  0.56058220733E+03  0.00000000000E+00 0.  1.
<scales pt_clust_5="13000.00000" pt_clust_6="13000.00000" pt_clust_7="13000.00000" pt_clust_8="13000.00000" pt_clust_9="127.01039"></scales>
<clustering>
<clus scale="   80.344">  5  6 -1 -1</clus>
<clus scale="   91.027">  7  8 -1 -1</clus>
<clus scale="  116.581">  2  7  1 -1</clus>
<clus scale="  127.010">  1  9  2 -1</clus>
<clus scale="  127.010">  1  5  2 -1</clus>
</clustering>
</event>
<event>
 9    2  0.3745229E-005  0.1025546E+03  0.7546771E-02  0.1280980E+00
         21   -1    0    0  501  502  0.00000000000E+00  0.00000000000E+00  0.57328807071E+02  0.57328807071E+02  0.00000000000E+00 0.  1.
          2   -1    0    0  502    0 -0.00000000000E+00 -0.00000000000E+00 -0.28306078710E+03  0.28306078710E+03  0.00000000000E+00 0. -1.
         24    2    1    2    0    0  0.53202533126E+02 -0.16745728043E+02 -0.13387328955E+03  0.16494524237E+03  0.78574463958E+02 0.  0.
         23    2    1    2    0    0 -0.25979288646E+02  0.14957155833E+00 -0.20112324439E+02  0.96932706235E+02  0.91194836112E+02 0.  0.
        -11    1    3    3    0    0  0.12167980541E+02 -0.24472233674E+02 -0.29081213604E+01  0.27484671024E+02  0.00000000000E+00 0.  1.
         12    1    3    3    0    0  0.41034552584E+02  0.77265056314E+01 -0.13096516819E+03  0.13746057135E+03  0.00000000000E+00 0. -1.
        -13    1    4    4    0    0 -0.33045920852E+02 -0.24265524256E+02  0.22908600045E+02  0.46964374886E+02  0.00000000000E+00 0. -1.
         13    1    4    4    0    0  0.70666322057E+01  0.24415095815E+02 -0.43020924484E+02  0.49968331349E+02  0.00000000000E+00 0.  1.
          1    1    1    2  501    0 -0.27223244480E+02  0.16596156485E+02 -0.71746366039E+02  0.78511645568E+02  0.00000000000E+00 0. -1.
<scales pt_clust_5="13000.00000" pt_clust_6="13000.00000" pt_clust_7="13000.00000" pt_clust_8="13000.00000" pt_clust_9="31.88320"></scales>
<clustering>
<clus scale="   31.883">  1  9  2 -1</clus>
<clus scale="   78.574">  5  6 -1 -1</clus>
<clus scale="   91.195">  7  8 -1 -1</clus>
<clus scale="   91.514">  2  5  1 -1</clus>
<clus scale="   31.883">  1  5  2 -1</clus>
</clustering>
</event>
<event>
 9    2  0.3745229E-005  0.1127597E+03  0.7546771E-02  0.1259599E+00
          2   -1    0    0  502    0 -0.00000000000E+00  0.00000000000E+00  0.59320788988E+03  0.59320788988E+03  0.00000000000E+00 0. -1.
         21   -1    0    0  501  502  0.00000000000E+00 -0.00000000000E+00 -0.36363288779E+02  0.36363288779E+02  0.00000000000E+00 0. -1.
         23    2    1    2    0    0 -0.29366047073E+01  0.77233012032E+02  0.26734423420E+03  0.29268176024E+03  0.90642768188E+02 0.  0.
         24    2    1    2    0    0 -0.52730206007E+02 -0.45831217634E+02  0.15195819322E+03  0.18522295525E+03  0.79594444098E+02 0.  0.
        -11    1    4    4    0    0 -0.26950056750E+02  0.17909285692E+02  0.76913102515E+02  0.83442635453E+02  0.00000000000E+00 0.  1.
         12    1    4    4    0    0 -0.25780149257E+02 -0.63740503327E+02  0.75045090701E+02  0.10178031980E+03  0.00000000000E+00 0. -1.
        -13    1    3    3    0    0  0.31362402392E+02 -0.33190409889E+01  0.73854316159E+02  0.80306141311E+02  0.00000000000E+00 0.  1.
         13    1    3    3    0    0 -0.34299007099E+02  0.80552053020E+02  0.19348991804E+03  0.21237561893E+03  0.00000000000E+00 0. -1.
          1    1    1    2  501    0  0.55666810714E+02 -0.31401794397E+02  0.13754217369E+03  0.15166646317E+03  0.00000000000E+00 0. -1.
<scales pt_clust_5="13000.00000" pt_clust_6="13000.00000" pt_clust_7="13000.00000" pt_clust_8="13000.00000" pt_clust_9="63.91299"></scales>
<clustering>
<clus scale="   63.913">  2  9  1 -1</clus>
<clus scale="   79.594">  5  6 -1 -1</clus>
<clus scale="   90.643">  7  8 -1 -1</clus>
<clus scale="  104.086">  2  5  1 -1</clus>
<clus scale="   63.913">  2  5  1 -1</clus>
</clustering>
</event>
<event>
 9    2  0.3745229E-005  0.1647979E+03  0.7546771E-02  0.1184641E+00
         -1   -1    0    0    0  501 -0.00000000000E+00  0.00000000000E+00  0.96455690195E+03  0.96455690195E+03  0.00000000000E+00 0.  1.
         21   -1    0    0  501  502  0.00000000000E+00 -0.00000000000E+00 -0.68395245380E+02  0.68395245380E+02  0.00000000000E+00 0.  1.
         23    2    1    2    0    0  0.15120294500E+03  0.24625989815E+02  0.60397851711E+03  0.62941818847E+03  0.88929392810E+02 0.  0.
         24    2    1    2    0    0 -0.86748678441E+02 -0.10388820242E+03  0.24464918619E+03  0.29085597725E+03  0.80161607922E+02 0.  0.
        -13    1    4    4    0    0 -0.83569729564E+02 -0.50704917913E+02  0.11652119950E+03  0.15209233489E+03  0.00000000000E+00 0.  1.
         14    1    4    4    0    0 -0.31789488771E+01 -0.53183284509E+02  0.12812798669E+03  0.13876364236E+03  0.00000000000E+00 0. -1.
        -13    1    3    3    0    0  0.14373775682E+03 -0.56108809338E+01  0.52946556003E+03  0.54865818501E+03  0.00000000000E+00 0.  1.
         13    1    3    3    0    0  0.74651881772E+01  0.30236870749E+02  0.74512957074E+02  0.80760003462E+02  0.00000000000E+00 0. -1.
         -2    1    1    2    0  502 -0.64454266558E+02  0.79262212607E+02  0.47533953271E+02  0.11267798160E+03  0.00000000000E+00 0.  1.
<scales pt_clust_5="13000.00000" pt_clust_6="13000.00000" pt_clust_7="13000.00000" pt_clust_8="13000.00000" pt_clust_9="102.16091"></scales>
<clustering>
<clus scale="   80.162">  5  6 -1 -1</clus>
<clus scale="   88.929">  7  8 -1 -1</clus>
<clus scale="  102.161">  2  9  1 -1</clus>
<clus scale="  160.237">  2  5  1 -1</clus>
<clus scale="  102.161">  2  5  1 -1</clus>
</clustering>
</event>
<event>
 9    2  0.3745229E-005  0.1101956E+03  0.7546771E-02  0.1266746E+00
         -3   -1    0    0    0  501 -0.00000000000E+00  0.00000000000E+00  0.78381995535E+03  0.78381995535E+03  0.00000000000E+00 0.  1.
         21   -1    0    0  501  502  0.00000000000E+00 -0.00000000000E+00 -0.53984470534E+02  0.53984470534E+02  0.00000000000E+00 0.  1.
         23    2    1    2    0    0  0.48177667148E+02  0.10992955172E+02  0.32698453412E+03  0.34395747983E+03  0.94582924974E+02 0.  0.
         24    2    1    2    0    0 -0.42835475515E+02  0.85791058907E+02  0.37195112225E+03  0.39210961863E+03  0.78786622820E+02 0.  0.
        -13    1    4    4    0    0 -0.75619036661E+01  0.77532759025E+02  0.31595192734E+03  0.32541378504E+03  0.00000000000E+00 0.  1.
         14    1    4    4    0    0 -0.35273571849E+02  0.82582998819E+01  0.55999194910E+02  0.66695833591E+02  0.00000000000E+00 0. -1.
        -13    1    3    3    0    0  0.67841392591E+02  0.15269596900E+02  0.30975870240E+03  0.31746821707E+03  0.00000000000E+00 0.  1.
         13    1    3    3    0    0 -0.19663725443E+02 -0.42766417279E+01  0.17225831729E+02  0.26489262759E+02  0.00000000000E+00 0. -1.
         -4    1    1    2    0  502 -0.53421916325E+01 -0.96784014079E+02  0.30899828442E+02  0.10173732742E+03  0.00000000000E+00 0.  1.
<scales pt_clust_5="13000.00000" pt_clust_6="13000.00000" pt_clust_7="13000.00000" pt_clust_8="13000.00000" pt_clust_9="96.93134"></scales>
<clustering>
<clus scale="   78.787">  5  6 -1 -1</clus>
<clus scale="   94.583">  7  8 -1 -1</clus>
<clus scale="   96.931">  2  9  1 -1</clus>
<clus scale="   96.977">  2  5  1 -1</clus>
<clus scale="   96.931">  2  5  1 -1</clus>
</clustering>
</event>
<event>
 9    2  0.3745229E-005  0.1183613E+03  0.7546771E-02  0.1247187E+00
         21   -1    0    0  501  502  0.00000000000E+00  0.00000000000E+00  0.14219965779E+03  0.14219965779E+03  0.00000000000E+00 0. -1.
         -3   -1    0    0    0  501 -0.00000000000E+00 -0.00000000000E+00 -0.31956884019E+03  0.31956884019E+03  0.00000000000E+00 0.  1.
         24    2    1    2    0    0  0.44975598282E+02  0.77664338020E+02 -0.25376985152E+03  0.28104168162E+03  0.80812965718E+02 0.  0.
         23    2    1    2    0    0 -0.51655030556E+02 -0.17180245648E+02  0.34789107541E+02  0.10700801074E+03  0.85305505895E+02 0.  0.
        -13    1    3    3    0    0  0.26372803192E+02  0.92507617110E+02 -0.21519567040E+03  0.23571669549E+03  0.00000000000E+00 0.  1.
         14    1    3    3    0    0  0.18602795090E+02 -0.14843279090E+02 -0.38574181115E+02  0.45324986133E+02  0.00000000000E+00 0. -1.
        -13    1    4    4    0    0 -0.57260484562E+01 -0.37573712930E+02 -0.10422084743E+02  0.39410549155E+02  0.00000000000E+00 0.  1.
         13    1    4    4    0    0 -0.45928982100E+02  0.20393467282E+02  0.45211192285E+02  0.67597461582E+02  0.00000000000E+00 0. -1.
         -4    1    1    2    0  502  0.66794322740E+01 -0.60484092372E+02  0.41611561573E+02  0.73718805621E+02  0.00000000000E+00 0.  1.
<scales pt_clust_5="13000.00000" pt_clust_6="13000.00000" pt_clust_7="13000.00000" pt_clust_8="13000.00000" pt_clust_9="60.85179"></scales>
<clustering>
<clus scale="   60.852">  1  9  2 -1</clus>
<clus scale="   80.813">  5  6 -1 -1</clus>
<clus scale="   85.306">  7  8 -1 -1</clus>
<clus scale="  115.166">  2  5  1 -1</clus>
<clus scale="   60.852">  1  5  2 -1</clus>
</clustering>
</event>
<event>
 9    2  0.3745229E-005  0.1037537E+03  0.7546771E-02  0.1276458E+00
         21   -1    0    0  501  502  0.00000000000E+00  0.00000000000E+00  0.84992178662E+02  0.84992178662E+02  0.00000000000E+00 0. -1.
         -1   -1    0    0    0  501 -0.00000000000E+00 -0.00000000000E+00 -0.34746598585E+03  0.34746598585E+03  0.00000000000E+00 0.  1.
         23    2    1    2    0    0  0.53691272878E+02  0.12031093687E+02 -0.27832493171E+03  0.29745899780E+03  0.89384493972E+02 0.  0.
         24    2    1    2    0    0 -0.34715237894E+02 -0.34076664280E+02 -0.11725247227E+02  0.94917333343E+02  0.80656381990E+02 0.  0.
        -13    1    4    4    0    0 -0.24522383738E+01  0.24093335575E+02  0.80522310327E+01  0.25521377642E+02  0.00000000000E+00 0.  1.
         14    1    4    4    0    0 -0.32262999521E+02 -0.58169999855E+02 -0.19777478260E+02  0.69395955700E+02  0.00000000000E+00 0. -1.
        -13    1    3    3    0    0 -0.77830980633E+01  0.26412595676E+02 -0.27905080508E+02  0.39203256804E+02  0.00000000000E+00 0. -1.
         13    1    3    3    0    0  0.61474370941E+02 -0.14381501989E+02 -0.25041985120E+03  0.25825574100E+03  0.00000000000E+00 0.  1.
         -2    1    1    2    0  502 -0.18976034984E+02  0.22045570593E+02  0.27576371756E+02  0.40081833362E+02  0.00000000000E+00 0.  1.
<scales pt_clust_5="13000.00000" pt_clust_6="13000.00000" pt_clust_7="13000.00000" pt_clust_8="13000.00000" pt_clust_9="29.08775"></scales>
<clustering>
<clus scale="   29.088">  1  9  2 -1</clus>
<clus scale="   80.656">  5  6 -1 -1</clus>
<clus scale="   89.384">  7  8 -1 -1</clus>
<clus scale="   96.336">  1  5  2 -1</clus>
<clus scale="   29.088">  1  5  2 -1</clus>
</clustering>
</event>
<event>
 9    2  0.3745229E-005  0.9496347E+02  0.7546771E-02  0.1298677E+00
         21   -1    0    0  501  502  0.00000000000E+00  0.00000000000E+00  0.10349232948E+03  0.10349232948E+03  0.00000000000E+00 0. -1.
         -3   -1    0    0    0  501 -0.00000000000E+00 -0.00000000000E+00 -0.34772152079E+03  0.34772152079E+03  0.00000000000E+00 0.  1.
         23    2    1    2    0    0 -0.14656208422E+02 -0.20365026697E+02 -0.27857599007E+03  0.29414865310E+03  0.91045643065E+02 0.  0.
         24    2    1    2    0    0 -0.21039558862E+02  0.57112400998E+02  0.79080161808E+01  0.99414815163E+02  0.78206645300E+02 0.  0.
        -13    1    4    4    0    0  0.77528494724E+01  0.25905698324E+02 -0.31479493054E+02  0.41499040513E+02  0.00000000000E+00 0.  1.
         14    1    4    4    0    0 -0.28792408334E+02  0.31206702674E+02  0.39387509235E+02  0.57915774649E+02  0.00000000000E+00 0. -1.
        -11    1    3    3    0    0 -0.43359835388E+02 -0.32713225423E+02 -0.10974909821E+03  0.12245446093E+03  0.00000000000E+00 0. -1.
         11    1    3    3    0    0  0.28703626966E+02  0.12348198726E+02 -0.16882689186E+03  0.17169419217E+03  0.00000000000E+00 0.  1.
         -4    1    1    2    0  502  0.35695767284E+02 -0.36747374301E+02  0.26438782581E+02  0.57650381996E+02  0.00000000000E+00 0.  1.
<scales pt_clust_5="13000.00000" pt_clust_6="13000.00000" pt_clust_7="13000.00000" pt_clust_8="13000.00000" pt_clust_9="51.23043"></scales>
<clustering>
<clus scale="   51.230">  1  9  2 -1</clus>
<clus scale="   78.207">  5  6 -1 -1</clus>
<clus scale="   82.735">  1  5  2 -1</clus>
<clus scale="   91.046">  7  8 -1 -1</clus>
<clus scale="   51.230">  1  5  2 -1</clus>
</clustering>
</event>
<event>
 9    2  0.3745229E-005  0.1154809E+03  0.7546771E-02  0.1254413E+00
         21   -1    0    0  501  502  0.00000000000E+00  0.00000000000E+00  0.23030954811E+03  0.23030954811E+03  0.00000000000E+00 0.  1.
         -1   -1    0    0    0  501 -0.00000000000E+00 -0.00000000000E+00 -0.23677913932E+03  0.23677913932E+03  0.00000000000E+00 0.  1.
         23    2    1    2    0    0 -0.57519789852E+02 -0.45428621758E+02 -0.19934186967E+03  0.23132607991E+03  0.91663996992E+02 0.  0.
         24    2    1    2    0    0  0.45658230991E+02  0.19168184734E+02  0.97766038502E+02  0.13638703702E+03  0.81185788285E+02 0.  0.
        -13    1    4    4    0    0  0.15744686509E+02 -0.18955496924E+02 -0.27552223675E+01  0.24795105710E+02  0.00000000000E+00 0.  1.
         14    1    4    4    0    0  0.29913544482E+02  0.38123681658E+02  0.10052126087E+03  0.11159193131E+03  0.00000000000E+00 0. -1.
        -11    1    3    3    0    0  0.10955508094E+01  0.23561599649E+02 -0.22194614984E+02  0.32387499809E+02  0.00000000000E+00 0. -1.
         11    1    3    3    0    0 -0.58615340662E+02 -0.68990221407E+02 -0.17714725469E+03  0.19893858010E+03  0.00000000000E+00 0.  1.
         -2    1    1    2    0  502  0.11861558862E+02  0.26260437024E+02  0.95106239962E+02  0.99375570494E+02  0.00000000000E+00 0.  1.
<scales pt_clust_5="13000.00000" pt_clust_6="13000.00000" pt_clust_7="13000.00000" pt_clust_8="13000.00000" pt_clust_9="28.81505"></scales>
<clustering>
<clus scale="   28.815">  1  9  2 -1</clus>
<clus scale="   81.186">  5  6 -1 -1</clus>
<clus scale="   91.664">  7  8 -1 -1</clus>
<clus scale="  107.353">  1  5  2 -1</clus>
<clus scale="   28.815">  1  5  2 -1</clus>
</clustering>
</event>
<event>
 9    2  0.3745229E-005  0.2469869E+03  0.7546771E-02  0.1115905E+00
         21   -1    0    0  501  502  0.00000000000E+00  0.00000000000E+00  0.15128279119E+03  0.15128279119E+03  0.00000000000E+00 0.  1.
          2   -1    0    0  502    0 -0.00000000000E+00 -0.00000000000E+00 -0.99733253236E+03  0.99733253236E+03  0.00000000000E+00 0. -1.
         24    2    1    2    0    0  0.26437354290E+02 -0.22972318313E+03 -0.80640848639E+03  0.84279919907E+03  0.80896034908E+02 0.  0.
         23    2    1    2    0    0  0.26063461557E+02  0.21719531131E+03  0.20447941900E+01  0.23761781133E+03  0.92762793167E+02 0.  0.
        -13    1    3    3    0    0 -0.28969741789E+02 -0.67631483277E+02 -0.23103978541E+03  0.24247194871E+03  0.00000000000E+00 0.  1.
         14    1    3    3    0    0  0.55407096079E+02 -0.16209169985E+03 -0.57536870098E+03  0.60032725036E+03  0.00000000000E+00 0. -1.
        -13    1    4    4    0    0 -0.22827421736E+02  0.64751290802E+02  0.30309160331E+02  0.75049757119E+02  0.00000000000E+00 0.  1.
         13    1    4    4    0    0  0.48890883293E+02  0.15244402051E+03 -0.28264366141E+02  0.16256805422E+03  0.00000000000E+00 0. -1.
          1    1    1    2  501    0 -0.52500815847E+02  0.12527871818E+02 -0.41686048976E+02  0.68198313147E+02  0.00000000000E+00 0. -1.
<scales pt_clust_5="13000.00000" pt_clust_6="13000.00000" pt_clust_7="13000.00000" pt_clust_8="13000.00000" pt_clust_9="53.97484"></scales>
<clustering>
<clus scale="   53.975">  1  9  2 -1</clus>
<clus scale="   80.896">  5  6 -1 -1</clus>
<clus scale="   92.763">  7  8 -1 -1</clus>
<clus scale="  242.779">  2  5  1 -1</clus>
<clus scale="   53.975">  1  5  2 -1</clus>
</clustering>
</event>
<event>
 9    2  0.3745229E-005  0.1066481E+03  0.7546771E-02  0.1270551E+00
          2   -1    0    0  502    0 -0.00000000000E+00  0.00000000000E+00  0.62634337112E+02  0.62634337112E+02  0.00000000000E+00 0. -1.
         21   -1    0    0  501  502  0.00000000000E+00 -0.00000000000E+00 -0.56808818541E+03  0.56808818541E+03  0.00000000000E+00 0. -1.
         24    2    1    2    0    0 -0.56165676666E+02 -0.75570293464E+02 -0.22577631061E+03  0.25761252341E+03  0.80770151012E+02 0.  0.
         23    2    1    2    0    0  0.29700430054E+02 -0.58824789154E+01 -0.27100963524E+03  0.28702808499E+03  0.89566623686E+02 0.  0.
        -11    1    3    3    0    0  0.16187706298E+02 -0.20326561842E+02 -0.20639347624E+02  0.33184237551E+02  0.00000000000E+00 0.  1.
         12    1    3    3    0    0 -0.72353382963E+02 -0.55243731623E+02 -0.20513696299E+03  0.22442828586E+03  0.00000000000E+00 0. -1.
        -13    1    4    4    0    0 -0.27095888077E+02  0.11285986237E+02 -0.14236487417E+03  0.14535927227E+03  0.00000000000E+00 0.  1.
         13    1    4    4    0    0  0.56796318131E+02 -0.17168465153E+02 -0.12864476107E+03  0.14166881272E+03  0.00000000000E+00 0. -1.
          1    1    1    2  501    0  0.26465246612E+02  0.81452772380E+02 -0.86679024520E+01  0.86081914125E+02  0.00000000000E+00 0. -1.
<scales pt_clust_5="13000.00000" pt_clust_6="13000.00000" pt_clust_7="13000.00000" pt_clust_8="13000.00000" pt_clust_9="85.64444"></scales>
<clustering>
<clus scale="   80.770">  5  6 -1 -1</clus>
<clus scale="   85.644">  2  9  1 -1</clus>
<clus scale="   89.567">  7  8 -1 -1</clus>
<clus scale="   99.375">  1  5  2 -1</clus>
<clus scale="   85.644">  2  5  1 -1</clus>
</clustering>
</event>
<event>
 9    2  0.3745229E-005  0.1020068E+03  0.7546771E-02  0.1281208E+00
          2   -1    0    0  502    0 -0.00000000000E+00  0.00000000000E+00  0.33932519380E+03  0.33932519380E+03  0.00000000000E+00 0. -1.
         21   -1    0    0  501  502  0.00000000000E+00 -0.00000000000E+00 -0.12583908893E+03  0.12583908893E+03  0.00000000000E+00 0. -1.
         23    2    1    2    0    0  0.44707275068E+02  0.12470405767E+02  0.27320087358E+03  0.29160500051E+03  0.90777241278E+02 0.  0.
         24    2    1    2    0    0 -0.27265899423E+02 -0.65605037914E+02 -0.39826217870E+02  0.11420403669E+03  0.80056130912E+02 0.  0.
        -13    1    4    4    0    0 -0.32652595902E+02  0.73146265036E+01 -0.76839348292E+01  0.34332763281E+02  0.00000000000E+00 0.  1.
         14    1    4    4    0    0  0.53866964789E+01 -0.72919664418E+02 -0.32142283041E+02  0.79871273414E+02  0.00000000000E+00 0. -1.
        -11    1    3    3    0    0 -0.98074463702E+00  0.36582343958E+02  0.46930421142E+02  0.59512134713E+02  0.00000000000E+00 0.  1.
         11    1    3    3    0    0  0.45688019705E+02 -0.24111938191E+02  0.22627045244E+03  0.23209286580E+03  0.00000000000E+00 0. -1.
          1    1    1    2  501    0 -0.17441375645E+02  0.53134632147E+02 -0.19888550835E+02  0.59355245532E+02  0.00000000000E+00 0. -1.
<scales pt_clust_5="13000.00000" pt_clust_6="13000.00000" pt_clust_7="13000.00000" pt_clust_8="13000.00000" pt_clust_9="55.92397"></scales>
<clustering>
<clus scale="   55.924">  2  9  1 -1</clus>
<clus scale="   80.056">  5  6 -1 -1</clus>
<clus scale="   90.777">  7  8 -1 -1</clus>
<clus scale="   92.595">  2  5  1 -1</clus>
<clus scale="   55.924">  2  5  1 -1</clus>
</clustering>
</event>
<event>
 9    2  0.3745229E-005  0.1584456E+03  0.7546771E-02  0.1190602E+00
         -1   -1    0    0    0  501 -0.00000000000E+00  0.00000000000E+00  0.21844611748E+03  0.21844611748E+03  0.00000000000E+00 0.  1.
         21   -1    0    0  501  502  0.00000000000E+00 -0.00000000000E+00 -0.14891800319E+03  0.14891800319E+03  0.00000000000E+00 0. -1.
         24    2    1    2    0    0  0.11127991278E+03  0.61387586119E+02  0.55385162504E+02  0.16080973659E+03  0.81489879364E+02 0.  0.
         23    2    1    2    0    0 -0.12121966314E+03 -0.88160265192E+02 -0.67164706915E+01  0.17118928139E+03  0.82427058639E+02 0.  0.
        -13    1    3    3    0    0  0.79733263101E+02  0.81083272445E+02  0.39732309924E+02  0.12045973089E+03  0.00000000000E+00 0.  1.
         14    1    3    3    0    0  0.31546649683E+02 -0.19695686325E+02  0.15652852580E+02  0.40350005699E+02  0.00000000000E+00 0. -1.
        -11    1    4    4    0    0 -0.63812724949E+02 -0.34858409082E+02 -0.43409251318E+02  0.84684919845E+02  0.00000000000E+00 0. -1.
         11    1    4    4    0    0 -0.57406938189E+02 -0.53301856110E+02  0.36692780627E+02  0.86504361550E+02  0.00000000000E+00 0.  1.
         -2    1    1    2    0  502  0.99397503541E+01  0.26772679073E+02  0.20859422470E+02  0.35365102681E+02  0.00000000000E+00 0.  1.
<scales pt_clust_5="13000.00000" pt_clust_6="13000.00000" pt_clust_7="13000.00000" pt_clust_8="13000.00000" pt_clust_9="28.55829"></scales>
<clustering>
<clus scale="   28.558">  2  9  1 -1</clus>
<clus scale="   81.490">  5  6 -1 -1</clus>
<clus scale="   82.427">  7  8 -1 -1</clus>
<clus scale="  157.960">  1  5  2 -1</clus>
<clus scale="   28.558">  2  5  1 -1</clus>
</clustering>
</event>
<event>
 9    2  0.3745229E-005  0.1379377E+03  0.7546771E-02  0.1219740E+00
         21   -1    0    0  501  502  0.00000000000E+00  0.00000000000E+00  0.39693584541E+03  0.39693584541E+03  0.00000000000E+00 0. -1.
          4   -1    0    0  502    0 -0.00000000000E+00 -0.00000000000E+00 -0.59880586764E+02  0.59880586764E+02  0.00000000000E+00 0. -1.
         24    2    1    2    0    0  0.90500875119E+02 -0.25267683471E+02  0.12682193632E+03  0.17447650523E+03  0.74359821957E+02 0.  0.
         23    2    1    2    0    0 -0.10331808624E+03  0.60485185310E+02  0.17828626460E+03  0.23309393386E+03  0.90629494493E+02 0.  0.
        -11    1    3    3    0    0  0.36435249308E+02 -0.48729180924E+02  0.66801278437E+02  0.90357463811E+02  0.00000000000E+00 0.  1.
         12    1    3    3    0    0  0.54065625811E+02  0.23461497453E+02  0.60020657879E+02  0.84119041419E+02  0.00000000000E+00 0. -1.
        -13    1    4    4    0    0 -0.42304405577E+02 -0.20563334305E+02  0.73363313755E+02  0.87147514331E+02  0.00000000000E+00 0. -1.
         13    1    4    4    0    0 -0.61013680664E+02  0.81048519616E+02  0.10492295085E+03  0.14594641953E+03  0.00000000000E+00 0.  1.
          3    1    1    2  501    0  0.12817211122E+02 -0.35217501840E+02  0.31947057730E+02  0.49245993079E+02  0.00000000000E+00 0. -1.
<scales pt_clust_5="13000.00000" pt_clust_6="13000.00000" pt_clust_7="13000.00000" pt_clust_8="13000.00000" pt_clust_9="37.47739"></scales>
<clustering>
<clus scale="   37.477">  1  9  2 -1</clus>
<clus scale="   74.360">  5  6 -1 -1</clus>
<clus scale="   90.629">  7  8 -1 -1</clus>
<clus scale="  127.838">  2  5  1 -1</clus>
<clus scale="   37.477">  1  5  2 -1</clus>
</clustering>
</event>
<event>
 9    2  0.3745229E-005  0.1411587E+03  0.7546771E-02  0.1225102E+00
          2   -1    0    0  502    0 -0.00000000000E+00  0.00000000000E+00  0.33170506513E+03  0.33170506513E+03  0.00000000000E+00 0. -1.
         21   -1    0    0  501  502  0.00000000000E+00 -0.00000000000E+00 -0.42136858726E+03  0.42136858726E+03  0.00000000000E+00 0. -1.
         23    2    1    2    0    0 -0.47414747432E+02 -0.24809940678E+02  0.22119050725E+03  0.24555175628E+03  0.92231952624E+02 0.  0.
         24    2    1    2    0    0 -0.39416097331E+02 -0.10971748616E+03 -0.31932349061E+03  0.34718177029E+03  0.70541721489E+02 0.  0.
        -13    1    4    4    0    0 -0.30959681250E+02 -0.40524668092E+02 -0.60454741495E+02  0.79091885527E+02  0.00000000000E+00 0.  1.
         14    1    4    4    0    0 -0.84564160809E+01 -0.69192818064E+02 -0.25886874912E+03  0.26808988477E+03  0.00000000000E+00 0. -1.
        -13    1    3    3    0    0 -0.70863449732E+02 -0.37234756153E+02  0.16915072524E+03  0.18713637654E+03  0.00000000000E+00 0.  1.
         13    1    3    3    0    0  0.23448702300E+02  0.12424815475E+02  0.52039782010E+02  0.58415379746E+02  0.00000000000E+00 0. -1.
          1    1    1    2  501    0  0.86830844763E+02  0.13452742683E+03  0.84694612285E+01  0.16034012581E+03  0.00000000000E+00 0. -1.
<scales pt_clust_5="13000.00000" pt_clust_6="13000.00000" pt_clust_7="13000.00000" pt_clust_8="13000.00000" pt_clust_9="122.26885"></scales>
<clustering>
<clus scale="   70.542">  5  6 -1 -1</clus>
<clus scale="   92.232">  7  8 -1 -1</clus>
<clus scale="  106.632">  1  7  2 -1</clus>
<clus scale="  122.269">  2  9  1 -1</clus>
<clus scale="  122.269">  2  5  1 -1</clus>
</clustering>
</event>
<event>
 9    2  0.3745229E-005  0.1052430E+03  0.7546771E-02  0.1272439E+00
          4   -1    0    0  502    0 -0.00000000000E+00  0.00000000000E+00  0.10015238687E+03  0.10015238687E+03  0.00000000000E+00 0. -1.
         21   -1    0    0  501  502  0.00000000000E+00 -0.00000000000E+00 -0.31919589816E+03  0.31919589816E+03  0.00000000000E+00 0. -1.
         23    2    1    2    0    0  0.44460076095E+02  0.11778381600E+02 -0.98524742401E+01  0.10245339016E+03  0.91017565702E+02 0.  0.
         24    2    1    2    0    0 -0.56399606320E+02  0.87214094753E+02 -0.75445476051E+02  0.15007182139E+03  0.77732347216E+02 0.  0.
        -13    1    4    4    0    0 -0.54157889939E+02  0.63190514771E+02 -0.14437995243E+02  0.84466406969E+02  0.00000000000E+00 0.  1.
         14    1    4    4    0    0 -0.22417163811E+01  0.24023579981E+02 -0.61007480808E+02  0.65605414426E+02  0.00000000000E+00 0. -1.
        -13    1    3    3    0    0  0.21667459565E+02  0.91421502338E+01 -0.50539255431E+02  0.55742928290E+02  0.00000000000E+00 0.  1.
         13    1    3    3    0    0  0.22792616530E+02  0.26362313665E+01  0.40686781190E+02  0.46710461866E+02  0.00000000000E+00 0. -1.
          3    1    1    2  501    0  0.11939530225E+02 -0.98992476353E+02 -0.13374556100E+03  0.16682307348E+03  0.00000000000E+00 0. -1.
<scales pt_clust_5="13000.00000" pt_clust_6="13000.00000" pt_clust_7="13000.00000" pt_clust_8="13000.00000" pt_clust_9="99.70989"></scales>
<clustering>
<clus scale="   77.732">  5  6 -1 -1</clus>
<clus scale="   91.018">  7  8 -1 -1</clus>
<clus scale="   99.710">  2  9  1 -1</clus>
<clus scale="   99.710">  2  5  1 -1</clus>
<clus scale="   99.710">  2  5  1 -1</clus>
</clustering>
</event>
<event>
 9    2  0.4373562E-005  0.9479941E+02  0.7546771E-02  0.1297417E+00
         21   -1    0    0  501  502  0.00000000000E+00  0.00000000000E+00  0.45353175354E+02  0.45353175354E+02  0.00000000000E+00 0. -1.
          2   -1    0    0  502    0 -0.00000000000E+00 -0.00000000000E+00 -0.87719461825E+03  0.87719461825E+03  0.00000000000E+00 0. -1.
         24    2    1    2    0    0 -0.45097536162E+01 -0.20422780693E+02 -0.75787523727E+03  0.76270133108E+03  0.83072361933E+02 0.  0.
         23    2    1    2    0    0 -0.12608434807E+02  0.14658494793E+01 -0.89735977788E+02  0.12982841246E+03  0.92961011336E+02 0.  0.
        -11    1    3    3    0    0  0.31380286959E+01  0.29188782324E+02 -0.15613188755E+03  0.15886786506E+03  0.00000000000E+00 0.  1.
         12    1    3    3    0    0 -0.76477823121E+01 -0.49611563017E+02 -0.60174334972E+03  0.60383346603E+03  0.00000000000E+00 0. -1.
        -11    1    4    4    0    0 -0.44272321437E+02  0.10102529351E+02 -0.14376035047E+02  0.47631606402E+02  0.00000000000E+00 0. -1.
         11    1    4    4    0    0  0.31663886630E+02 -0.86366798717E+01 -0.75359942741E+02  0.82196806055E+02  0.00000000000E+00 0.  1.
          1    1    1    2  501    0  0.17118188423E+02  0.18956931213E+02  0.15769772160E+02  0.30018050068E+02  0.00000000000E+00 0. -1.
<scales pt_clust_5="13000.00000" pt_clust_6="13000.00000" pt_clust_7="13000.00000" pt_clust_8="13000.00000" pt_clust_9="25.54208"></scales>
<clustering>
<clus scale="   25.542">  1  9  2 -1</clus>
<clus scale="   83.072">  5  6 -1 -1</clus>
<clus scale="   85.125">  2  5  1 -1</clus>
<clus scale="   92.961">  7  8 -1 -1</clus>
<clus scale="   25.542">  1  5  2 -1</clus>
</clustering>
</event>
<event>
 9    2  0.3745229E-005  0.9920483E+02  0.7546771E-02  0.1287815E+00
         -1   -1    0    0    0  501 -0.00000000000E+00  0.00000000000E+00  0.32067920878E+03  0.32067920878E+03  0.00000000000E+00 0.  1.
         21   -1    0    0  501  502  0.00000000000E+00 -0.00000000000E+00 -0.13525853004E+03  0.13525853004E+03  0.00000000000E+00 0.  1.
         23    2    1    2    0    0  0.41158737697E+02  0.25187385092E+01  0.27586737151E+03  0.29391736793E+03  0.92651102404E+02 0.  0.
         24    2    1    2    0    0  0.93055981303E+00  0.58834163017E+01 -0.28208961494E+02  0.86418516647E+02  0.81467379864E+02 0.  0.
        -11    1    4    4    0    0  0.25775135907E+02 -0.74382931233E+01  0.17987960977E+02  0.32299420672E+02  0.00000000000E+00 0.  1.
         12    1    4    4    0    0 -0.24844576094E+02  0.13321709425E+02 -0.46196922471E+02  0.54119095975E+02  0.00000000000E+00 0. -1.
        -13    1    3    3    0    0  0.50932158982E+02 -0.33942723152E+02  0.13777618357E+03  0.15075964325E+03  0.00000000000E+00 0. -1.
         13    1    3    3    0    0 -0.97734212845E+01  0.36461461662E+02  0.13809118794E+03  0.14315772468E+03  0.00000000000E+00 0.  1.
         -2    1    1    2    0  502 -0.42089297510E+02 -0.84021548109E+01 -0.62237731279E+02  0.75601854244E+02  0.00000000000E+00 0.  1.
<scales pt_clust_5="13000.00000" pt_clust_6="13000.00000" pt_clust_7="13000.00000" pt_clust_8="13000.00000" pt_clust_9="42.91975"></scales>
<clustering>
<clus scale="   42.920">  2  9  1 -1</clus>
<clus scale="   81.467">  5  6 -1 -1</clus>
<clus scale="   88.850">  2  5  1 -1</clus>
<clus scale="   92.651">  7  8 -1 -1</clus>
<clus scale="   42.920">  2  5  1 -1</clus>
</clustering>
</event>
<event>
 9    2  0.3745229E-005  0.1095090E+03  0.7546771E-02  0.1266085E+00
          2   -1    0    0  502    0 -0.00000000000E+00  0.00000000000E+00  0.74624955932E+03  0.74624955932E+03  0.00000000000E+00 0. -1.
         21   -1    0    0  501  502  0.00000000000E+00 -0.00000000000E+00 -0.36743927976E+02  0.36743927976E+02  0.00000000000E+00 0. -1.
         23    2    1    2    0    0 -0.27250638245E+02 -0.28985133146E+02  0.15525491457E+03  0.18510267538E+03  0.92607649287E+02 0.  0.
         24    2    1    2    0    0  0.93317822970E+02 -0.15646322057E+02  0.20755173100E+03  0.24214226810E+03  0.81253513656E+02 0.  0.
        -11    1    4    4    0    0  0.87788616575E+01  0.26818976938E+02  0.31574598227E+02  0.42347150898E+02  0.00000000000E+00 0.  1.
         12    1    4    4    0    0  0.84538961312E+02 -0.42465298995E+02  0.17597713278E+03  0.19979511720E+03  0.00000000000E+00 0. -1.
        -11    1    3    3    0    0  0.51882456801E+00  0.32313784625E+02  0.64234276467E+02  0.71906134154E+02  0.00000000000E+00 0.  1.
         11    1    3    3    0    0 -0.27769462813E+02 -0.61298917771E+02  0.91020638103E+02  0.11319654123E+03  0.00000000000E+00 0. -1.
          1    1    1    2  501    0 -0.66067184725E+02  0.44631455203E+02  0.34669898577E+03  0.35574854382E+03  0.00000000000E+00 0. -1.
<scales pt_clust_5="13000.00000" pt_clust_6="13000.00000" pt_clust_7="13000.00000" pt_clust_8="13000.00000" pt_clust_9="79.72983"></scales>
<clustering>
<clus scale="   79.730">  2  9  1 -1</clus>
<clus scale="   81.254">  5  6 -1 -1</clus>
<clus scale="   92.608">  7  8 -1 -1</clus>
<clus scale="  100.091">  2  5  1 -1</clus>
<clus scale="   79.730">  2  5  1 -1</clus>
</clustering>
</event>
<event>
 9    2  0.3745229E-005  0.1170321E+03  0.7546771E-02  0.1253886E+00
         21   -1    0    0  501  502  0.00000000000E+00  0.00000000000E+00  0.37777360036E+02  0.37777360036E+02  0.00000000000E+00 0.  1.
          2   -1    0    0  502    0 -0.00000000000E+00 -0.00000000000E+00 -0.16157758661E+04  0.16157758661E+04  0.00000000000E+00 0. -1.
         24    2    1    2    0    0 -0.66193819789E+02 -0.12363422230E+02 -0.13597845696E+04  0.13639273509E+04  0.82153921589E+02 0.  0.
         23    2    1    2    0    0  0.18601635673E+02 -0.15176817041E+02 -0.49728535403E+02  0.11239492100E+03  0.97894506527E+02 0.  0.
        -11    1    3    3    0    0 -0.30745247413E+02 -0.13436938392E+02 -0.15362478552E+03  0.15724629178E+03  0.00000000000E+00 0.  1.
         12    1    3    3    0    0 -0.35448572376E+02  0.10735161618E+01 -0.12061597841E+04  0.12066810591E+04  0.00000000000E+00 0. -1.
        -13    1    4    4    0    0  0.34030093124E+02  0.32810678726E+02 -0.10253718360E+02  0.48370720655E+02  0.00000000000E+00 0.  1.
         13    1    4    4    0    0 -0.15428457452E+02 -0.47987495766E+02 -0.39474817043E+02  0.64024200345E+02  0.00000000000E+00 0. -1.
          1    1    1    2  501    0  0.47592184116E+02  0.27540239271E+02 -0.16848540110E+03  0.17723095427E+03  0.00000000000E+00 0. -1.
<scales pt_clust_5="13000.00000" pt_clust_6="13000.00000" pt_clust_7="13000.00000" pt_clust_8="13000.00000" pt_clust_9="54.98619"></scales>
<clustering>
<clus scale="   54.986">  1  9  2 -1</clus>
<clus scale="   82.154">  5  6 -1 -1</clus>
<clus scale="   97.895">  7  8 -1 -1</clus>
<clus scale="  104.223">  2  5  1 -1</clus>
<clus scale="   54.986">  1  5  2 -1</clus>
</clustering>
</event>
<event>
 9    2  0.3745229E-005  0.1146763E+03  0.7546771E-02  0.1259781E+00
         -1   -1    0    0    0  501 -0.00000000000E+00  0.00000000000E+00  0.50481543460E+02  0.50481543460E+02  0.00000000000E+00 0.  1.
         21   -1    0    0  501  502  0.00000000000E+00 -0.00000000000E+00 -0.39144213657E+03  0.39144213657E+03  0.00000000000E+00 0. -1.
         23    2    1    2    0    0 -0.51035343238E+02  0.12021549311E+02 -0.14293919671E+03  0.18174538537E+03  0.99250426906E+02 0.  0.
         24    2    1    2    0    0  0.53759884627E+02 -0.40088582284E+02 -0.20590048992E+03  0.23089926495E+03  0.80138874344E+02 0.  0.
        -13    1    4    4    0    0  0.30401097175E+02  0.19104820908E+02 -0.43056666747E+02  0.56063334210E+02  0.00000000000E+00 0.  1.
         14    1    4    4    0    0  0.23358787452E+02 -0.59193403192E+02 -0.16284382317E+03  0.17483593074E+03  0.00000000000E+00 0. -1.
        -11    1    3    3    0    0 -0.35198071503E+02  0.41107487758E+02 -0.25684636034E+02  0.59903508373E+02  0.00000000000E+00 0.  1.
         11    1    3    3    0    0 -0.15837271735E+02 -0.29085938447E+02 -0.11725456067E+03  0.12184187700E+03  0.00000000000E+00 0. -1.
         -2    1    1    2    0  502 -0.27245413891E+01  0.28067032973E+02  0.78790935211E+01  0.29279029704E+02  0.00000000000E+00 0.  1.
<scales pt_clust_5="13000.00000" pt_clust_6="13000.00000" pt_clust_7="13000.00000" pt_clust_8="13000.00000" pt_clust_9="28.19898"></scales>
<clustering>
<clus scale="   28.199">  2  9  1 -1</clus>
<clus scale="   80.139">  5  6 -1 -1</clus>
<clus scale="   98.601">  2  5  1 -1</clus>
<clus scale="   99.250">  7  8 -1 -1</clus>
<clus scale="   28.199">  2  5  1 -1</clus>
</clustering>
</event>
<event>
 9    2  0.3745229E-005  0.1018972E+03  0.7546771E-02  0.1277607E+00
         21   -1    0    0  501  502  0.00000000000E+00  0.00000000000E+00  0.62636280974E+02  0.62636280974E+02  0.00000000000E+00 0.  1.
         -1   -1    0    0    0  501 -0.00000000000E+00 -0.00000000000E+00 -0.42171180922E+03  0.42171180922E+03  0.00000000000E+00 0.  1.
         24    2    1    2    0    0 -0.16165211136E+02  0.45390902696E+02 -0.28498575258E+03  0.30213015143E+03  0.88000574609E+02 0.  0.
         23    2    1    2    0    0  0.52789849617E+02 -0.19396520603E+02 -0.84478449557E+02  0.13612025347E+03  0.90714506727E+02 0.  0.
        -13    1    3    3    0    0 -0.23303201886E+02  0.70445440840E+02 -0.20563304063E+03  0.21861049094E+03  0.00000000000E+00 0.  1.
         14    1    3    3    0    0  0.71379907504E+01 -0.25054538144E+02 -0.79352711953E+02  0.83519660487E+02  0.00000000000E+00 0. -1.
        -11    1    4    4    0    0 -0.12585958322E+02 -0.35924737159E+02 -0.20825016715E+02  0.43389796127E+02  0.00000000000E+00 0. -1.
         11    1    4    4    0    0  0.65375807939E+02  0.16528216555E+02 -0.63653432842E+02  0.92730457341E+02  0.00000000000E+00 0.  1.
         -2    1    1    2    0  502 -0.36624638481E+02 -0.25994382093E+02  0.10388673892E+02  0.46097685294E+02  0.00000000000E+00 0.  1.
<scales pt_clust_5="13000.00000" pt_clust_6="13000.00000" pt_clust_7="13000.00000" pt_clust_8="13000.00000" pt_clust_9="44.91183"></scales>
<clustering>
<clus scale="   44.912">  1  9  2 -1</clus>
<clus scale="   88.001">  5  6 -1 -1</clus>
<clus scale="   90.715">  7  8 -1 -1</clus>
<clus scale="   99.489">  2  5  1 -1</clus>
<clus scale="   44.912">  1  5  2 -1</clus>
</clustering>
</event>
<event>
 9    2  0.3745229E-005  0.1424441E+03  0.7546771E-02  0.1212840E+00
         -3   -1    0    0    0  501 -0.00000000000E+00  0.00000000000E+00  0.83565090487E+02  0.83565090487E+02  0.00000000000E+00 0.  1.
         21   -1    0    0  501  502  0.00000000000E+00 -0.00000000000E+00 -0.85115340986E+03  0.85115340986E+03  0.00000000000E+00 0.  1.
         24    2    1    2    0    0 -0.55112675222E+02  0.85561046484E+02 -0.66847702217E+02  0.14689846254E+03  0.82173252084E+02 0.  0.
         23    2    1    2    0    0 -0.43892440923E+02 -0.16932740790E+03 -0.56968624596E+03  0.60344524415E+03  0.94896925220E+02 0.  0.
        -11    1    3    3    0    0 -0.42388014805E+02  0.32308087702E+00 -0.96842639393E+01  0.43481411527E+02  0.00000000000E+00 0.  1.
         12    1    3    3    0    0 -0.12724660417E+02  0.85237965607E+02 -0.57163438278E+02  0.10341705101E+03  0.00000000000E+00 0. -1.
        -13    1    4    4    0    0 -0.19237928746E+02 -0.18326853680E+02 -0.21118536149E+02  0.33940595713E+02  0.00000000000E+00 0. -1.
         13    1    4    4    0    0 -0.24654512176E+02 -0.15100055422E+03 -0.54856770981E+03  0.56950464844E+03  0.00000000000E+00 0.  1.
         -4    1    1    2    0  502  0.99005116145E+02  0.83766361417E+02 -0.13105437120E+03  0.18437479366E+03  0.00000000000E+00 0.  1.
<scales pt_clust_5="13000.00000" pt_clust_6="13000.00000" pt_clust_7="13000.00000" pt_clust_8="13000.00000" pt_clust_9="129.68744"></scales>
<clustering>
<clus scale="   82.173">  5  6 -1 -1</clus>
<clus scale="   94.897">  7  8 -1 -1</clus>
<clus scale="  129.687">  2  9  1 -1</clus>
<clus scale="  134.303">  1  5  2 -1</clus>
<clus scale="  129.687">  2  5  1 -1</clus>
</clustering>
</event>
<event>
 9    2  0.3745229E-005  0.1190950E+03  0.7546771E-02  0.1246901E+00
          2   -1    0    0  502    0 -0.00000000000E+00  0.00000000000E+00  0.21439176270E+04  0.21439176270E+04  0.00000000000E+00 0. -1.
         21   -1    0    0  501  502  0.00000000000E+00 -0.00000000000E+00 -0.46299376740E+02  0.46299376740E+02  0.00000000000E+00 0.  1.
         24    2    1    2    0    0  0.72083217646E+02 -0.38298656720E+02  0.19869357416E+04  0.19902627369E+04  0.81051485036E+02 0.  0.
         23    2    1    2    0    0 -0.64004732050E+02 -0.66272645487E+01  0.10877990518E+03  0.15426816135E+03  0.88459434077E+02 0.  0.
        -11    1    3    3    0    0  0.29233411908E+02 -0.99143674865E+01  0.18228831108E+03  0.18488351849E+03  0.00000000000E+00 0.  1.
         12    1    3    3    0    0  0.42849805739E+02 -0.28384289233E+02  0.18046474306E+04  0.18053792184E+04  0.00000000000E+00 0. -1.
        -11    1    4    4    0    0 -0.54674042416E+02  0.26502471481E+02  0.10268502629E+03  0.11931406679E+03  0.00000000000E+00 0. -1.
         11    1    4    4    0    0 -0.93306896342E+01 -0.33129736030E+02  0.60948788867E+01  0.34954094569E+02  0.00000000000E+00 0.  1.
          1    1    1    2  501    0 -0.80784855963E+01  0.44925921269E+02  0.19026034368E+01  0.45686105450E+02  0.00000000000E+00 0. -1.
<scales pt_clust_5="13000.00000" pt_clust_6="13000.00000" pt_clust_7="13000.00000" pt_clust_8="13000.00000" pt_clust_9="45.64647"></scales>
<clustering>
<clus scale="   45.646">  2  9  1 -1</clus>
<clus scale="   81.051">  5  6 -1 -1</clus>
<clus scale="   88.459">  7  8 -1 -1</clus>
<clus scale="  113.701">  1  5  2 -1</clus>
<clus scale="   45.646">  2  5  1 -1</clus>
</clustering>
</event>
<event>
 9    2  0.3745229E-005  0.1351264E+03  0.7546771E-02  0.1223095E+00
          2   -1    0    0  502    0 -0.00000000000E+00  0.00000000000E+00  0.16594947657E+03  0.16594947657E+03  0.00000000000E+00 0. -1.
         21   -1    0    0  501  502  0.00000000000E+00 -0.00000000000E+00 -0.18007695279E+03  0.18007695279E+03  0.00000000000E+00 0.  1.
         23    2    1    2    0    0 -0.51585084130E+01 -0.85682081395E+02  0.44484600425E+02  0.13532029475E+03  0.94681958236E+02 0.  0.
         24    2    1    2    0    0 -0.17210784359E+02  0.11255110284E+03  0.22631430587E+01  0.14050555094E+03  0.82296574530E+02 0.  0.
        -11    1    4    4    0    0  0.15666682754E+02  0.15480705948E+02 -0.26114507741E+02  0.34162328957E+02  0.00000000000E+00 0.  1.
         12    1    4    4    0    0 -0.32877467113E+02  0.97070396894E+02  0.28377650800E+02  0.10634322198E+03  0.00000000000E+00 0. -1.
        -11    1    3    3    0    0  0.42314009314E+02 -0.20215112249E+02  0.17901857717E+02  0.50195643807E+02  0.00000000000E+00 0.  1.
         11    1    3    3    0    0 -0.47472517727E+02 -0.65466969146E+02  0.26582742707E+02  0.85124650944E+02  0.00000000000E+00 0. -1.
          1    1    1    2  501    0  0.22369292772E+02 -0.26869021447E+02 -0.60875219708E+02  0.70200583667E+02  0.00000000000E+00 0. -1.
<scales pt_clust_5="13000.00000" pt_clust_6="13000.00000" pt_clust_7="13000.00000" pt_clust_8="13000.00000" pt_clust_9="34.96183"></scales>
<clustering>
<clus scale="   34.962">  2  9  1 -1</clus>
<clus scale="   82.297">  5  6 -1 -1</clus>
<clus scale="   94.682">  7  8 -1 -1</clus>
<clus scale="  126.756">  2  5  1 -1</clus>
<clus scale="   34.962">  2  5  1 -1</clus>
</clustering>
</event>
<event>
 9    2  0.3745229E-005  0.1785606E+03  0.7546771E-02  0.1195866E+00
          2   -1    0    0  502    0 -0.00000000000E+00  0.00000000000E+00  0.44788891784E+03  0.44788891784E+03  0.00000000000E+00 0. -1.
         21   -1    0    0  501  502  0.00000000000E+00 -0.00000000000E+00 -0.16997524303E+03  0.16997524303E+03  0.00000000000E+00 0. -1.
         23    2    1    2    0    0  0.45693871883E+02  0.17621330012E+02  0.18792121406E+03  0.21208312684E+03  0.85243350446E+02 0.  0.
         24    2    1    2    0    0  0.10188579861E+03  0.10444907639E+03 -0.41844151049E+02  0.17326902257E+03  0.83551754555E+02 0.  0.
        -13    1    4    4    0    0  0.52680321739E+02  0.16861478878E+02  0.15693508925E+02  0.57496191099E+02  0.00000000000E+00 0.  1.
         14    1    4    4    0    0  0.49205476869E+02  0.87587597514E+02 -0.57537659975E+02  0.11577283147E+03  0.00000000000E+00 0. -1.
        -11    1    3    3    0    0  0.34637963183E+02 -0.30857959344E+02  0.68567874753E+02  0.82786204144E+02  0.00000000000E+00 0. -1.
         11    1    3    3    0    0  0.11055908700E+02  0.48479289356E+02  0.11935333931E+03  0.12929692269E+03  0.00000000000E+00 0.  1.
          1    1    1    2  501    0 -0.14757967049E+03 -0.12207040640E+03  0.13183661179E+03  0.23251201146E+03  0.00000000000E+00 0. -1.
<scales pt_clust_5="13000.00000" pt_clust_6="13000.00000" pt_clust_7="13000.00000" pt_clust_8="13000.00000" pt_clust_9="157.80684"></scales>
<clustering>
<clus scale="   83.552">  5  6 -1 -1</clus>
<clus scale="   85.243">  7  8 -1 -1</clus>
<clus scale="   98.310">  1  7  2 -1</clus>
<clus scale="  157.807">  2  9  1 -1</clus>
<clus scale="  157.807">  2  5  1 -1</clus>
</clustering>
</event>
<event>
 9    2  0.3745229E-005  0.1068288E+03  0.7546771E-02  0.1271162E+00
         21   -1    0    0  501  502  0.00000000000E+00  0.00000000000E+00  0.82711090534E+02  0.82711090534E+02  0.00000000000E+00 0.  1.
         -1   -1    0    0    0  501 -0.00000000000E+00 -0.00000000000E+00 -0.49749092495E+03  0.49749092495E+03  0.00000000000E+00 0.  1.
         24    2    1    2    0    0  0.50074260898E+02  0.41740873403E+02 -0.27375622025E+03  0.29250389744E+03  0.79789283592E+02 0.  0.
         23    2    1    2    0    0  0.13471608717E+02 -0.70727936176E+01  0.34174578901E+02  0.98134513531E+02  0.90724705852E+02 0.  0.
        -11    1    3    3    0    0 -0.23425305630E+01  0.36020783246E+02 -0.19097312963E+03  0.19435462566E+03  0.00000000000E+00 0.  1.
         12    1    3    3    0    0  0.52416791461E+02  0.57200901567E+01 -0.82783090619E+02  0.98149271780E+02  0.00000000000E+00 0. -1.
        -13    1    4    4    0    0 -0.30058541536E+02  0.23028588210E+02  0.65286165481E+01  0.38424661720E+02  0.00000000000E+00 0. -1.
         13    1    4    4    0    0  0.43530150253E+02 -0.30101381828E+02  0.27645962353E+02  0.59709851812E+02  0.00000000000E+00 0.  1.
         -2    1    1    2    0  502 -0.63545869615E+02 -0.34668079785E+02 -0.17519819306E+03  0.18956360451E+03  0.00000000000E+00 0.  1.
<scales pt_clust_5="13000.00000" pt_clust_6="13000.00000" pt_clust_7="13000.00000" pt_clust_8="13000.00000" pt_clust_9="72.38756"></scales>
<clustering>
<clus scale="   72.388">  1  9  2 -1</clus>
<clus scale="   79.789">  5  6 -1 -1</clus>
<clus scale="   90.725">  7  8 -1 -1</clus>
<clus scale="   97.713">  2  5  1 -1</clus>
<clus scale="   72.388">  1  5  2 -1</clus>
</clustering>
</event>
<event>
 9    2  0.3745229E-005  0.1131784E+03  0.7546771E-02  0.1262312E+00
         21   -1    0    0  501  502  0.00000000000E+00  0.00000000000E+00  0.16553904300E+03  0.16553904300E+03  0.00000000000E+00 0.  1.
          4   -1    0    0  502    0 -0.00000000000E+00 -0.00000000000E+00 -0.14934692491E+03  0.14934692491E+03  0.00000000000E+00 0. -1.
         23    2    1    2    0    0  0.38548830386E+02 -0.28159703380E+02 -0.62942009047E+02  0.12417113326E+03  0.95800796521E+02 0.  0.
         24    2    1    2    0    0 -0.69832213089E+02  0.64913724716E+02  0.40643818639E+02  0.12898144040E+03  0.76772145546E+02 0.  0.
        -13    1    4    4    0    0 -0.46052706667E+02  0.79172152612E+02  0.42943829056E+02  0.10115954722E+03  0.00000000000E+00 0.  1.
         14    1    4    4    0    0 -0.23779506422E+02 -0.14258427896E+02 -0.23000104167E+01  0.27821893172E+02  0.00000000000E+00 0. -1.
        -11    1    3    3    0    0 -0.99615966993E+01  0.29150991618E+02 -0.26837277753E+02  0.40856495179E+02  0.00000000000E+00 0.  1.
         11    1    3    3    0    0  0.48510427085E+02 -0.57310694998E+02 -0.36104731294E+02  0.83314638083E+02  0.00000000000E+00 0. -1.
          3    1    1    2  501    0  0.31283382703E+02 -0.36754021336E+02  0.38490308496E+02  0.61733394252E+02  0.00000000000E+00 0. -1.
<scales pt_clust_5="13000.00000" pt_clust_6="13000.00000" pt_clust_7="13000.00000" pt_clust_8="13000.00000" pt_clust_9="48.26498"></scales>
<clustering>
<clus scale="   48.265">  1  9  2 -1</clus>
<clus scale="   76.772">  5  6 -1 -1</clus>
<clus scale="   95.801">  7  8 -1 -1</clus>
<clus scale="   97.599">  1  5  2 -1</clus>
<clus scale="   48.265">  1  5  2 -1</clus>
</clustering>
</event>
<event>
 9    2  0.3745229E-005  0.1192247E+03  0.7546771E-02  0.1262829E+00
         -3   -1    0    0    0  501 -0.00000000000E+00  0.00000000000E+00  0.90753424298E+03  0.90753424298E+03  0.00000000000E+00 0.  1.
         21   -1    0    0  501  502  0.00000000000E+00 -0.00000000000E+00 -0.51763785304E+02  0.51763785304E+02  0.00000000000E+00 0. -1.
         24    2    1    2    0    0  0.23515203259E+01  0.23579080135E+02  0.96250345131E+01  0.83209051956E+02  0.79180820722E+02 0.  0.
         23    2    1    2    0    0  0.74773384323E+02  0.10309502712E+02  0.28061855810E+03  0.30432213393E+03  0.90376109659E+02 0.  0.
        -11    1    3    3    0    0  0.19813615050E+02 -0.19494417048E+02  0.21612533648E+02  0.35209561884E+02  0.00000000000E+00 0.  1.
         12    1    3    3    0    0 -0.17462094724E+02  0.43073497183E+02 -0.11987499134E+02  0.47999490072E+02  0.00000000000E+00 0. -1.
        -11    1    4    4    0    0  0.42074855216E+02 -0.30492691885E+02  0.21070973399E+03  0.21702232535E+03  0.00000000000E+00 0. -1.
         11    1    4    4    0    0  0.32698529107E+02  0.40802194597E+02  0.69908824111E+02  0.87299808581E+02  0.00000000000E+00 0.  1.
         -4    1    1    2    0  502 -0.77124904649E+02 -0.33888582846E+02  0.56552686506E+03  0.57176684240E+03  0.00000000000E+00 0.  1.
<scales pt_clust_5="13000.00000" pt_clust_6="13000.00000" pt_clust_7="13000.00000" pt_clust_8="13000.00000" pt_clust_9="77.76045"></scales>
<clustering>
<clus scale="   79.181">  5  6 -1 -1</clus>
<clus scale="   82.651">  1  5  2 -1</clus>
<clus scale="   77.760">  2  9  1 -1</clus>
<clus scale="   90.376">  7  8 -1 -1</clus>
<clus scale="   77.760">  2  5  1 -1</clus>
</clustering>
</event>
<event>
 9    2  0.3745229E-005  0.3530799E+03  0.7546771E-02  0.1061358E+00
         -1   -1    0    0    0  501 -0.00000000000E+00  0.00000000000E+00  0.25145990866E+03  0.25145990866E+03  0.00000000000E+00 0.  1.
         21   -1    0    0  501  502  0.00000000000E+00 -0.00000000000E+00 -0.67614184054E+03  0.67614184054E+03  0.00000000000E+00 0.  1.
         24    2    1    2    0    0  0.19450893100E+03 -0.94557766037E+02 -0.39156509781E+03  0.45447931788E+03  0.80332616045E+02 0.  0.
         23    2    1    2    0    0  0.72815516355E+02 -0.12783401488E+02 -0.12458292996E+03  0.17087992423E+03  0.90628512579E+02 0.  0.
        -11    1    3    3    0    0  0.19934843776E+03 -0.83480505383E+02 -0.38262749032E+03  0.43944577681E+03  0.00000000000E+00 0.  1.
         12    1    3    3    0    0 -0.48395067560E+01 -0.11077260654E+02 -0.89376074952E+01  0.15033541066E+02  0.00000000000E+00 0. -1.
        -11    1    4    4    0    0  0.26434329827E+02 -0.10279249688E+02  0.87551503610E+01  0.29683150530E+02  0.00000000000E+00 0.  1.
         11    1    4    4    0    0  0.46381186528E+02 -0.25041517995E+01 -0.13333808032E+03  0.14119677370E+03  0.00000000000E+00 0. -1.
         -2    1    1    2    0  502 -0.26732444735E+03  0.10734116752E+03  0.91466095891E+02  0.30224250710E+03  0.00000000000E+00 0.  1.
<scales pt_clust_5="13000.00000" pt_clust_6="13000.00000" pt_clust_7="13000.00000" pt_clust_8="13000.00000" pt_clust_9="288.07042"></scales>
<clustering>
<clus scale="   80.333">  5  6 -1 -1</clus>
<clus scale="   90.629">  7  8 -1 -1</clus>
<clus scale="   94.005">  5  7 -1 -1</clus>
<clus scale="  288.070">  2  9  1 -1</clus>
<clus scale="  288.070">  2  5  1 -1</clus>
</clustering>
</event>
<event>
 9    2  0.3745229E-005  0.4007895E+03  0.7546771E-02  0.1078059E+00
          2   -1    0    0  502    0 -0.00000000000E+00  0.00000000000E+00  0.18461663271E+04  0.18461663271E+04  0.00000000000E+00 0. -1.
         21   -1    0    0  501  502  0.00000000000E+00 -0.00000000000E+00 -0.13223309132E+03  0.13223309132E+03  0.00000000000E+00 0. -1.
         24    2    1    2    0    0  0.49559290166E+02  0.11985887014E+03  0.18846324509E+03  0.24248398765E+03  0.80360547072E+02 0.  0.
         23    2    1    2    0    0 -0.41041294615E+03 -0.16815977779E+03  0.98571042582E+03  0.10848480559E+04  0.92486559176E+02 0.  0.
        -13    1    3    3    0    0  0.52223317793E+02  0.25946379699E+02  0.79829156729E+02  0.98859414347E+02  0.00000000000E+00 0.  1.
         14    1    3    3    0    0 -0.26640276268E+01  0.93912490437E+02  0.10863408836E+03  0.14362457330E+03  0.00000000000E+00 0. -1.
        -11    1    4    4    0    0 -0.22686091978E+03 -0.95567343387E+02  0.43487728315E+03  0.49971716545E+03  0.00000000000E+00 0.  1.
         11    1    4    4    0    0 -0.18355202637E+03 -0.72592434399E+02  0.55083314268E+03  0.58513089048E+03  0.00000000000E+00 0. -1.
          1    1    1    2  501    0  0.36085365598E+03  0.48300907649E+02  0.53975956489E+03  0.65106737486E+03  0.00000000000E+00 0. -1.
<scales pt_clust_5="13000.00000" pt_clust_6="13000.00000" pt_clust_7="13000.00000" pt_clust_8="13000.00000" pt_clust_9="389.97235"></scales>
<clustering>
<clus scale="   80.361">  5  6 -1 -1</clus>
<clus scale="   92.487">  7  8 -1 -1</clus>
<clus scale="  152.578">  1  5  2 -1</clus>
<clus scale="  389.972">  2  9  1 -1</clus>
<clus scale="  389.972">  2  5  1 -1</clus>
</clustering>
</event>
<event>
 9    2  0.3745229E-005  0.1210163E+03  0.7546771E-02  0.1245256E+00
         21   -1    0    0  501  502  0.00000000000E+00  0.00000000000E+00  0.46829710184E+02  0.46829710184E+02  0.00000000000E+00 0.  1.
          2   -1    0    0  502    0 -0.00000000000E+00 -0.00000000000E+00 -0.47269930414E+03  0.47269930414E+03  0.00000000000E+00 0. -1.
         24    2    1    2    0    0  0.53382494379E+02 -0.18353659122E+02 -0.25322215439E+03  0.27856254802E+03  0.10143513285E+03 0.  0.
         23    2    1    2    0    0 -0.89091261006E+02  0.77896905406E+01 -0.11053123130E+03  0.16854314978E+03  0.90508055882E+02 0.  0.
        -11    1    3    3    0    0  0.23494233273E+02 -0.68056474657E+01 -0.11764703867E+01  0.24488362891E+02  0.00000000000E+00 0.  1.
         12    1    3    3    0    0  0.29888261105E+02 -0.11548011656E+02 -0.25204568400E+03  0.25407418513E+03  0.00000000000E+00 0. -1.
        -13    1    4    4    0    0 -0.74334126309E+02  0.41542661980E+02 -0.53232797275E+02  0.10042452790E+03  0.00000000000E+00 0.  1.
         13    1    4    4    0    0 -0.14757134698E+02 -0.33752971439E+02 -0.57298434020E+02  0.68118621878E+02  0.00000000000E+00 0. -1.
          1    1    1    2  501    0  0.35708766628E+02  0.10563968581E+02 -0.62116208270E+02  0.72423316523E+02  0.00000000000E+00 0. -1.
<scales pt_clust_5="13000.00000" pt_clust_6="13000.00000" pt_clust_7="13000.00000" pt_clust_8="13000.00000" pt_clust_9="37.23862"></scales>
<clustering>
<clus scale="   37.239">  1  9  2 -1</clus>
<clus scale="   90.508">  7  8 -1 -1</clus>
<clus scale="  101.435">  5  6 -1 -1</clus>
<clus scale="  112.016">  1  7  2 -1</clus>
<clus scale="   37.239">  1  5  2 -1</clus>
</clustering>
</event>
<event>
 9    2  0.3745229E-005  0.1274405E+03  0.7546771E-02  0.1235291E+00
          2   -1    0    0  502    0 -0.00000000000E+00  0.00000000000E+00  0.20189371945E+03  0.20189371945E+03  0.00000000000E+00 0. -1.
         21   -1    0    0  501  502  0.00000000000E+00 -0.00000000000E+00 -0.11072963235E+03  0.11072963235E+03  0.00000000000E+00 0. -1.
         24    2    1    2    0    0 -0.97097017814E+02  0.29160685048E+01  0.11019004207E+03  0.16602647148E+03  0.77373183582E+02 0.  0.
         23    2    1    2    0    0  0.69382853490E+02 -0.26950466083E+01 -0.43609940938E+01  0.11524110202E+03  0.91870831559E+02 0.  0.
        -13    1    3    3    0    0 -0.26328556801E+02 -0.32142095545E+02  0.19895505362E+02  0.46066672799E+02  0.00000000000E+00 0.  1.
         14    1    3    3    0    0 -0.70768461013E+02  0.35058164049E+02  0.90294536709E+02  0.11995979868E+03  0.00000000000E+00 0. -1.
        -13    1    4    4    0    0  0.10024097588E+02  0.18294590687E+02  0.35175593257E+02  0.40896172704E+02  0.00000000000E+00 0.  1.
         13    1    4    4    0    0  0.59358755903E+02 -0.20989637295E+02 -0.39536587351E+02  0.74344929319E+02  0.00000000000E+00 0. -1.
          1    1    1    2  501    0  0.27714164324E+02 -0.22102189653E+00 -0.14664960882E+02  0.31355778295E+02  0.00000000000E+00 0. -1.
<scales pt_clust_5="13000.00000" pt_clust_6="13000.00000" pt_clust_7="13000.00000" pt_clust_8="13000.00000" pt_clust_9="27.71505"></scales>
<clustering>
<clus scale="   27.715">  2  9  1 -1</clus>
<clus scale="   77.373">  5  6 -1 -1</clus>
<clus scale="   91.871">  7  8 -1 -1</clus>
<clus scale="  117.420">  1  5  2 -1</clus>
<clus scale="   27.715">  2  5  1 -1</clus>
</clustering>
</event>
<event>
 9    2  0.3745229E-005  0.1641241E+03  0.7546771E-02  0.1187174E+00
          2   -1    0    0  502    0 -0.00000000000E+00  0.00000000000E+00  0.88679615045E+03  0.88679615045E+03  0.00000000000E+00 0. -1.
         21   -1    0    0  501  502  0.00000000000E+00 -0.00000000000E+00 -0.86632429771E+02  0.86632429771E+02  0.00000000000E+00 0.  1.
         24    2    1    2    0    0  0.11456476242E+03 -0.61344485356E+02  0.69620869951E+03  0.71281053872E+03  0.80647877572E+02 0.  0.
         23    2    1    2    0    0 -0.10609295051E+03  0.81928202419E+02  0.14020930122E+03  0.21807589973E+03  0.99651921180E+02 0.  0.
        -13    1    3    3    0    0  0.18814931089E+02 -0.52277035027E+02  0.29947726717E+03  0.30458746457E+03  0.00000000000E+00 0.  1.
         14    1    3    3    0    0  0.95749831330E+02 -0.90674503291E+01  0.39673143235E+03  0.40822307415E+03  0.00000000000E+00 0. -1.
        -13    1    4    4    0    0 -0.58198431266E+02  0.84709746543E+02  0.13521590649E+03  0.16984151415E+03  0.00000000000E+00 0.  1.
         13    1    4    4    0    0 -0.47894519240E+02 -0.27815441242E+01  0.49933947292E+01  0.48234385576E+02  0.00000000000E+00 0. -1.
          1    1    1    2  501    0 -0.84718119128E+01 -0.20583717063E+02 -0.36254280051E+02  0.42542141780E+02  0.00000000000E+00 0. -1.
<scales pt_clust_5="13000.00000" pt_clust_6="13000.00000" pt_clust_7="13000.00000" pt_clust_8="13000.00000" pt_clust_9="22.25895"></scales>
<clustering>
<clus scale="   22.259">  2  9  1 -1</clus>
<clus scale="   80.648">  5  6 -1 -1</clus>
<clus scale="   99.652">  7  8 -1 -1</clus>
<clus scale="  153.331">  1  5  2 -1</clus>
<clus scale="   22.259">  2  5  1 -1</clus>
</clustering>
</event>
<event>
 9    2  0.3745229E-005  0.9416260E+02  0.7546771E-02  0.1294319E+00
          2   -1    0    0  502    0 -0.00000000000E+00  0.00000000000E+00  0.36355621735E+03  0.36355621735E+03  0.00000000000E+00 0. -1.
         21   -1    0    0  501  502  0.00000000000E+00 -0.00000000000E+00 -0.42213380233E+02  0.42213380233E+02  0.00000000000E+00 0.  1.
         23    2    1    2    0    0  0.97882932778E+01 -0.38509427760E+02  0.24687456417E+03  0.26433563851E+03  0.85717516520E+02 0.  0.
         24    2    1    2    0    0 -0.15846972576E+02  0.97743483978E+01  0.48420796439E+02  0.10217987122E+03  0.88031177030E+02 0.  0.
        -13    1    4    4    0    0 -0.37294641982E+02 -0.64307399554E+01 -0.88924631621E+01  0.38875707557E+02  0.00000000000E+00 0.  1.
         14    1    4    4    0    0  0.21447669406E+02  0.16205088353E+02  0.57313259601E+02  0.63304163667E+02  0.00000000000E+00 0. -1.
        -13    1    3    3    0    0  0.36993651613E+02 -0.49233208185E+02  0.19825635514E+03  0.20760062958E+03  0.00000000000E+00 0. -1.
         13    1    3    3    0    0 -0.27205358336E+02  0.10723780424E+02  0.48618209032E+02  0.56735008930E+02  0.00000000000E+00 0.  1.
          1    1    1    2  501    0  0.60586792984E+01  0.28735079362E+02  0.26047476509E+02  0.39254087855E+02  0.00000000000E+00 0. -1.
<scales pt_clust_5="13000.00000" pt_clust_6="13000.00000" pt_clust_7="13000.00000" pt_clust_8="13000.00000" pt_clust_9="29.36686"></scales>
<clustering>
<clus scale="   29.367">  2  9  1 -1</clus>
<clus scale="   85.718">  7  8 -1 -1</clus>
<clus scale="   88.031">  5  6 -1 -1</clus>
<clus scale="   92.003">  1  7  2 -1</clus>
<clus scale="   29.367">  2  5  1 -1</clus>
</clustering>
</event>
<event>
 9    2  0.3745229E-005  0.8994492E+02  0.7546771E-02  0.1308297E+00
          4   -1    0    0  502    0 -0.00000000000E+00  0.00000000000E+00  0.15372967473E+03  0.15372967473E+03  0.00000000000E+00 0. -1.
         21   -1    0    0  501  502  0.00000000000E+00 -0.00000000000E+00 -0.11626419675E+03  0.11626419675E+03  0.00000000000E+00 0. -1.
         24    2    1    2    0    0 -0.24128011374E+02 -0.25507913970E+01  0.61633198226E+02  0.10388496209E+03  0.80029786679E+02 0.  0.
         23    2    1    2    0    0  0.37399392237E+01  0.68884001811E+01  0.40881960396E+02  0.97801155149E+02  0.88500248928E+02 0.  0.
        -11    1    3    3    0    0 -0.25608214800E+02  0.36183041708E+02  0.26993862130E+02  0.51900498699E+02  0.00000000000E+00 0.  1.
         12    1    3    3    0    0  0.14802034258E+01 -0.38733833105E+02  0.34639336096E+02  0.51984463394E+02  0.00000000000E+00 0. -1.
        -11    1    4    4    0    0  0.19104197936E+02 -0.31827421556E+02  0.42102824616E+02  0.56130232338E+02  0.00000000000E+00 0. -1.
         11    1    4    4    0    0 -0.15364258712E+02  0.38715821737E+02 -0.12208642198E+01  0.41670922811E+02  0.00000000000E+00 0.  1.
          3    1    1    2  501    0  0.20388072150E+02 -0.43376087841E+01 -0.65049680652E+02  0.68307754237E+02  0.00000000000E+00 0. -1.
<scales pt_clust_5="13000.00000" pt_clust_6="13000.00000" pt_clust_7="13000.00000" pt_clust_8="13000.00000" pt_clust_9="20.84438"></scales>
<clustering>
<clus scale="   20.844">  2  9  1 -1</clus>
<clus scale="   80.030">  5  6 -1 -1</clus>
<clus scale="   81.625">  1  5  2 -1</clus>
<clus scale="   88.500">  7  8 -1 -1</clus>
<clus scale="   20.844">  2  5  1 -1</clus>
</clustering>
</event>
<event>
 9    2  0.3745229E-005  0.9890092E+02  0.7546771E-02  0.1287931E+00
         21   -1    0    0  501  502  0.00000000000E+00  0.00000000000E+00  0.51697334027E+03  0.51697334027E+03  0.00000000000E+00 0. -1.
          4   -1    0    0  502    0 -0.00000000000E+00 -0.00000000000E+00 -0.50695532160E+02  0.50695532160E+02  0.00000000000E+00 0. -1.
         24    2    1    2    0    0 -0.14151373649E+02 -0.46296692051E+02  0.19772734087E+02  0.96169464032E+02  0.80709105607E+02 0.  0.
         23    2    1    2    0    0 -0.50154141849E+01 -0.99230611194E+01  0.28657228928E+03  0.30089307195E+03  0.91045824947E+02 0.  0.
        -13    1    3    3    0    0  0.21205977970E+02 -0.53535649231E+02  0.16662239304E+02  0.59944886845E+02  0.00000000000E+00 0.  1.
         14    1    3    3    0    0 -0.35357351619E+02  0.72389571801E+01  0.31104947830E+01  0.36224577187E+02  0.00000000000E+00 0. -1.
        -13    1    4    4    0    0 -0.11245253125E+02 -0.43726637364E+02  0.83430042007E+02  0.94863303982E+02  0.00000000000E+00 0. -1.
         13    1    4    4    0    0  0.62298389403E+01  0.33803576245E+02  0.20314224727E+03  0.20602976797E+03  0.00000000000E+00 0.  1.
          3    1    1    2  501    0  0.19166787834E+02  0.56219753170E+02  0.15993278474E+03  0.17060633645E+03  0.00000000000E+00 0. -1.
<scales pt_clust_5="13000.00000" pt_clust_6="13000.00000" pt_clust_7="13000.00000" pt_clust_8="13000.00000" pt_clust_9="59.39719"></scales>
<clustering>
<clus scale="   59.397">  1  9  2 -1</clus>
<clus scale="   80.709">  5  6 -1 -1</clus>
<clus scale="   89.476">  2  5  1 -1</clus>
<clus scale="   91.046">  7  8 -1 -1</clus>
<clus scale="   59.397">  1  5  2 -1</clus>
</clustering>
</event>
<event>
 9    2  0.3745229E-005  0.2212107E+03  0.7546771E-02  0.1134594E+00
         21   -1    0    0  501  502  0.00000000000E+00  0.00000000000E+00  0.34960002024E+03  0.34960002024E+03  0.00000000000E+00 0. -1.
          2   -1    0    0  502    0 -0.00000000000E+00 -0.00000000000E+00 -0.34316855019E+03  0.34316855019E+03  0.00000000000E+00 0. -1.
         24    2    1    2    0    0 -0.15396478487E+03  0.14340252328E+03 -0.21358193664E+03  0.31045364746E+03  0.80590228335E+02 0.  0.
         23    2    1    2    0    0  0.48156755107E+02 -0.13379924931E+03  0.21377709704E+03  0.27588911036E+03  0.10095960487E+03 0.  0.
        -13    1    3    3    0    0 -0.44745490579E+02  0.32602859025E+02 -0.11116568294E+03  0.12418902692E+03  0.00000000000E+00 0.  1.
         14    1    3    3    0    0 -0.10921929429E+03  0.11079966426E+03 -0.10241625369E+03  0.18626462054E+03  0.00000000000E+00 0. -1.
        -11    1    4    4    0    0  0.13555156058E+02  0.15661584520E+02  0.30657201781E+02  0.36998533842E+02  0.00000000000E+00 0.  1.
         11    1    4    4    0    0  0.34601599049E+02 -0.14946083383E+03  0.18311989526E+03  0.23889057651E+03  0.00000000000E+00 0. -1.
          1    1    1    2  501    0  0.10580802976E+03 -0.96032739678E+01  0.62363096443E+01  0.10642581261E+03  0.00000000000E+00 0. -1.
<scales pt_clust_5="13000.00000" pt_clust_6="13000.00000" pt_clust_7="13000.00000" pt_clust_8="13000.00000" pt_clust_9="106.24294"></scales>
<clustering>
<clus scale="   80.590">  5  6 -1 -1</clus>
<clus scale="  100.960">  7  8 -1 -1</clus>
<clus scale="  106.243">  1  9  2 -1</clus>
<clus scale="  212.688">  2  5  1 -1</clus>
<clus scale="  106.243">  1  5  2 -1</clus>
</clustering>
</event>
<event>
 9    2  0.3745229E-005  0.9408969E+02  0.7546771E-02  0.1300039E+00
         -1   -1    0    0    0  501 -0.00000000000E+00  0.00000000000E+00  0.10202828336E+03  0.10202828336E+03  0.00000000000E+00 0.  1.
         21   -1    0    0  501  502  0.00000000000E+00 -0.00000000000E+00 -0.70650548977E+03  0.70650548977E+03  0.00000000000E+00 0.  1.
         23    2    1    2    0    0  0.19236916424E+02 -0.32868399741E+02  0.54213221350E+02  0.11200302560E+03  0.90306221936E+02 0.  0.
         24    2    1    2    0    0  0.46320311099E+02 -0.81702784574E+01 -0.11343634703E+03  0.14581853980E+03  0.78631527073E+02 0.  0.
        -13    1    4    4    0    0  0.58789693487E+02 -0.15469729451E+01 -0.40207366525E+02  0.71240813502E+02  0.00000000000E+00 0.  1.
         14    1    4    4    0    0 -0.12469382388E+02 -0.66233055124E+01 -0.73228980507E+02  0.74577726293E+02  0.00000000000E+00 0. -1.
        -11    1    3    3    0    0  0.33117189880E+02  0.22293404708E+02  0.31096680286E+02  0.50603830723E+02  0.00000000000E+00 0.  1.
         11    1    3    3    0    0 -0.13880273456E+02 -0.55161804450E+02  0.23116541064E+02  0.61399194882E+02  0.00000000000E+00 0. -1.
         -2    1    1    2    0  502 -0.65557227523E+02  0.41038678199E+02 -0.54525408073E+03  0.55071220773E+03  0.00000000000E+00 0.  1.
<scales pt_clust_5="13000.00000" pt_clust_6="13000.00000" pt_clust_7="13000.00000" pt_clust_8="13000.00000" pt_clust_9="77.34289"></scales>
<clustering>
<clus scale="   77.343">  2  9  1 -1</clus>
<clus scale="   78.632">  5  6 -1 -1</clus>
<clus scale="   82.949">  2  5  1 -1</clus>
<clus scale="   90.306">  7  8 -1 -1</clus>
<clus scale="   77.343">  2  5  1 -1</clus>
</clustering>
</event>
<event>
 9    2  0.3745229E-005  0.1048855E+03  0.7546771E-02  0.1275272E+00
         21   -1    0    0  501  502  0.00000000000E+00  0.00000000000E+00  0.20542204762E+03  0.20542204762E+03  0.00000000000E+00 0.  1.
         -3   -1    0    0    0  501 -0.00000000000E+00 -0.00000000000E+00 -0.89627566031E+02  0.89627566031E+02  0.00000000000E+00 0.  1.
         23    2    1    2    0    0 -0.66131460291E+02  0.38463350548E+01 -0.15016581568E+02  0.11309733291E+03  0.90428671644E+02 0.  0.
         24    2    1    2    0    0  0.23190203714E+02 -0.52513642144E+01  0.95481530770E+02  0.12632763259E+03  0.79224905577E+02 0.  0.
        -11    1    4    4    0    0 -0.31594039490E+01 -0.30301971185E+02  0.82126382798E+02  0.87595285504E+02  0.00000000000E+00 0.  1.
         12    1    4    4    0    0  0.26349607663E+02  0.25050606971E+02  0.13355147972E+02  0.38732347088E+02  0.00000000000E+00 0. -1.
        -13    1    3    3    0    0 -0.85500957664E+02 -0.71814429255E+01 -0.23954694739E+02  0.89083187437E+02  0.00000000000E+00 0.  1.
         13    1    3    3    0    0  0.19369497372E+02  0.11027777980E+02  0.89381131717E+01  0.24014145471E+02  0.00000000000E+00 0. -1.
         -4    1    1    2    0  502  0.42941256577E+02  0.14050291596E+01  0.35329532392E+02  0.55624648155E+02  0.00000000000E+00 0.  1.
<scales pt_clust_5="13000.00000" pt_clust_6="13000.00000" pt_clust_7="13000.00000" pt_clust_8="13000.00000" pt_clust_9="42.96424"></scales>
<clustering>
<clus scale="   42.964">  1  9  2 -1</clus>
<clus scale="   79.225">  5  6 -1 -1</clus>
<clus scale="   90.429">  7  8 -1 -1</clus>
<clus scale="   95.395">  1  5  2 -1</clus>
<clus scale="   42.964">  1  5  2 -1</clus>
</clustering>
</event>
<event>
 9    2  0.3745229E-005  0.1131381E+03  0.7546771E-02  0.1259238E+00
         21   -1    0    0  501  502  0.00000000000E+00  0.00000000000E+00  0.12071245106E+03  0.12071245106E+03  0.00000000000E+00 0.  1.
         -3   -1    0    0    0  501 -0.00000000000E+00 -0.00000000000E+00 -0.15904393362E+03  0.15904393362E+03  0.00000000000E+00 0.  1.
         24    2    1    2    0    0 -0.43451310510E+02  0.43960860510E+02 -0.56659538657E+02  0.11578387695E+03  0.79843779970E+02 0.  0.
         23    2    1    2    0    0  0.25172132965E+02 -0.76878409794E+02  0.39228597936E+00  0.12226657012E+03  0.91678973106E+02 0.  0.
        -13    1    3    3    0    0 -0.46225146801E+02  0.32262888830E+02  0.15040492120E+01  0.56390782549E+02  0.00000000000E+00 0.  1.
         14    1    3    3    0    0  0.27738362918E+01  0.11697971681E+02 -0.58163587869E+02  0.59393094405E+02  0.00000000000E+00 0. -1.
        -13    1    4    4    0    0  0.12314355074E+02 -0.19397705286E+02 -0.43239672633E+02  0.48965126372E+02  0.00000000000E+00 0.  1.
         13    1    4    4    0    0  0.12857777891E+02 -0.57480704508E+02  0.43631958612E+02  0.73301443747E+02  0.00000000000E+00 0. -1.
         -4    1    1    2    0  502  0.18279177544E+02  0.32917549284E+02  0.17935770114E+02  0.41705937612E+02  0.00000000000E+00 0.  1.
<scales pt_clust_5="13000.00000" pt_clust_6="13000.00000" pt_clust_7="13000.00000" pt_clust_8="13000.00000" pt_clust_9="37.65227"></scales>
<clustering>
<clus scale="   37.652">  1  9  2 -1</clus>
<clus scale="   79.844">  5  6 -1 -1</clus>
<clus scale="   91.679">  7  8 -1 -1</clus>
<clus scale="  103.780">  2  5  1 -1</clus>
<clus scale="   37.652">  1  5  2 -1</clus>
</clustering>
</event>
<event>
 9    2  0.3745229E-005  0.1108690E+03  0.7546771E-02  0.1259418E+00
         -3   -1    0    0    0  501 -0.00000000000E+00  0.00000000000E+00  0.52963911537E+03  0.52963911537E+03  0.00000000000E+00 0.  1.
         21   -1    0    0  501  502  0.00000000000E+00 -0.00000000000E+00 -0.44584423872E+02  0.44584423872E+02  0.00000000000E+00 0. -1.
         23    2    1    2    0    0 -0.40869059797E+02 -0.36178152472E+02  0.28095879530E+03  0.30049528610E+03  0.91544707893E+02 0.  0.
         24    2    1    2    0    0  0.83550024789E+02  0.34908130979E+02  0.10385978361E+03  0.16477617197E+03  0.90361208193E+02 0.  0.
        -11    1    4    4    0    0  0.70528254697E+01 -0.27547311854E+02  0.16192779047E+02  0.32723123793E+02  0.00000000000E+00 0.  1.
         12    1    4    4    0    0  0.76497199320E+02  0.62455442833E+02  0.87667004568E+02  0.13205304818E+03  0.00000000000E+00 0. -1.
        -11    1    3    3    0    0  0.27264260123E+02  0.31222857965E+01  0.85820072785E+02  0.90100906996E+02  0.00000000000E+00 0. -1.
         11    1    3    3    0    0 -0.68133319919E+02 -0.39300438268E+02  0.19513872252E+03  0.21039437910E+03  0.00000000000E+00 0.  1.
         -4    1    1    2    0  502 -0.42680964993E+02  0.12700214931E+01  0.10023611258E+03  0.10895208118E+03  0.00000000000E+00 0.  1.
<scales pt_clust_5="13000.00000" pt_clust_6="13000.00000" pt_clust_7="13000.00000" pt_clust_8="13000.00000" pt_clust_9="42.69988"></scales>
<clustering>
<clus scale="   42.700">  2  9  1 -1</clus>
<clus scale="   90.361">  5  6 -1 -1</clus>
<clus scale="   91.545">  7  8 -1 -1</clus>
<clus scale="  109.894">  2  5  1 -1</clus>
<clus scale="   42.700">  2  5  1 -1</clus>
</clustering>
</event>
<event>
 9    2  0.3745229E-005  0.2208463E+03  0.7546771E-02  0.1134206E+00
          2   -1    0    0  502    0 -0.00000000000E+00  0.00000000000E+00  0.63003662377E+03  0.63003662377E+03  0.00000000000E+00 0. -1.
         21   -1    0    0  501  502  0.00000000000E+00 -0.00000000000E+00 -0.37420422317E+03  0.37420422317E+03  0.00000000000E+00 0.  1.
         24    2    1    2    0    0 -0.19642948849E+03 -0.75120529532E+02  0.45570472648E+03  0.50817394183E+03  0.79663790503E+02 0.  0.
         23    2    1    2    0    0  0.17597891928E+03 -0.13569752505E+03 -0.12637775187E+03  0.27187071796E+03  0.92520012861E+02 0.  0.
        -11    1    3    3    0    0 -0.25265177829E+02 -0.43585298954E+02  0.11642105594E+03  0.12685373373E+03  0.00000000000E+00 0.  1.
         12    1    3    3    0    0 -0.17116431066E+03 -0.31535230578E+02  0.33928367054E+03  0.38132020810E+03  0.00000000000E+00 0. -1.
        -13    1    4    4    0    0  0.10139221775E+03 -0.29870559383E+02 -0.28234973646E+02  0.10940679081E+03  0.00000000000E+00 0. -1.
         13    1    4    4    0    0  0.74586701535E+02 -0.10582696567E+03 -0.98142778226E+02  0.16246392716E+03  0.00000000000E+00 0.  1.
          1    1    1    2  501    0  0.20450569206E+02  0.21081805459E+03 -0.73494574007E+02  0.22419618714E+03  0.00000000000E+00 0. -1.
<scales pt_clust_5="13000.00000" pt_clust_6="13000.00000" pt_clust_7="13000.00000" pt_clust_8="13000.00000" pt_clust_9="211.80764"></scales>
<clustering>
<clus scale="   79.664">  5  6 -1 -1</clus>
<clus scale="   92.520">  7  8 -1 -1</clus>
<clus scale="  211.808">  2  9  1 -1</clus>
<clus scale="  215.776">  1  5  2 -1</clus>
<clus scale="  211.808">  2  5  1 -1</clus>
</clustering>
</event>
<event>
 9    2  0.3745229E-005  0.9764690E+02  0.7546771E-02  0.1292780E+00
         21   -1    0    0  501  502  0.00000000000E+00  0.00000000000E+00  0.12645506742E+03  0.12645506742E+03  0.00000000000E+00 0. -1.
          4   -1    0    0  502    0 -0.00000000000E+00 -0.00000000000E+00 -0.30376102275E+03  0.30376102275E+03  0.00000000000E+00 0. -1.
         23    2    1    2    0    0 -0.38514987698E+02 -0.83577547172E+00 -0.26249090659E+03  0.28053808492E+03  0.91192314639E+02 0.  0.
         24    2    1    2    0    0  0.14043792931E+02 -0.60403898619E+01  0.22496049410E+02  0.82031723470E+02  0.77391323718E+02 0.  0.
        -11    1    4    4    0    0  0.31276364011E+02 -0.12988306227E+02  0.42754890540E+02  0.54542531198E+02  0.00000000000E+00 0.  1.
         12    1    4    4    0    0 -0.17232571080E+02  0.69479163651E+01 -0.20258841130E+02  0.27489192272E+02  0.00000000000E+00 0. -1.
        -11    1    3    3    0    0  0.24860658749E+02  0.10475970115E+02 -0.35457094544E+02  0.44553382102E+02  0.00000000000E+00 0.  1.
         11    1    3    3    0    0 -0.63375646447E+02 -0.11311745587E+02 -0.22703381204E+03  0.23598470281E+03  0.00000000000E+00 0. -1.
          3    1    1    2  501    0  0.24471194767E+02  0.68761653337E+01  0.62688901855E+02  0.67646281781E+02  0.00000000000E+00 0. -1.
<scales pt_clust_5="13000.00000" pt_clust_6="13000.00000" pt_clust_7="13000.00000" pt_clust_8="13000.00000" pt_clust_9="25.41891"></scales>
<clustering>
<clus scale="   25.419">  1  9  2 -1</clus>
<clus scale="   77.391">  5  6 -1 -1</clus>
<clus scale="   84.902">  1  5  2 -1</clus>
<clus scale="   91.192">  7  8 -1 -1</clus>
<clus scale="   25.419">  1  5  2 -1</clus>
</clustering>
</event>
<event>
 9    2  0.3745229E-005  0.9396335E+03  0.7546771E-02  0.9813520E-01
          2   -1    0    0  502    0 -0.00000000000E+00  0.00000000000E+00  0.28801330505E+04  0.28801330505E+04  0.00000000000E+00 0. -1.
         21   -1    0    0  501  502  0.00000000000E+00 -0.00000000000E+00 -0.41297028188E+03  0.41297028188E+03  0.00000000000E+00 0. -1.
         23    2    1    2    0    0 -0.95127245956E+02  0.16512589523E+03  0.39589613707E+03  0.44836371676E+03  0.89333739224E+02 0.  0.
         24    2    1    2    0    0  0.72801664570E+03 -0.68980576203E+03  0.63709844667E+03  0.11916587533E+04  0.91191708714E+02 0.  0.
        -13    1    4    4    0    0  0.42680379574E+03 -0.46228800222E+03  0.41412302697E+03  0.75323937664E+03  0.00000000000E+00 0.  1.
         14    1    4    4    0    0  0.30121284996E+03 -0.22751775982E+03  0.22297541969E+03  0.43841937663E+03  0.00000000000E+00 0. -1.
        -11    1    3    3    0    0 -0.13269114089E+02  0.11198230981E+03  0.20514627382E+03  0.23409634931E+03  0.00000000000E+00 0. -1.
         11    1    3    3    0    0 -0.81858131867E+02  0.53143585418E+02  0.19074986325E+03  0.21426736745E+03  0.00000000000E+00 0.  1.
          1    1    1    2  501    0 -0.63288939975E+03  0.52467986680E+03  0.14341681849E+04  0.16530808623E+04  0.00000000000E+00 0. -1.
<scales pt_clust_5="13000.00000" pt_clust_6="13000.00000" pt_clust_7="13000.00000" pt_clust_8="13000.00000" pt_clust_9="935.19844"></scales>
<clustering>
<clus scale="   89.334">  7  8 -1 -1</clus>
<clus scale="   91.192">  5  6 -1 -1</clus>
<clus scale="  210.467">  1  7  2 -1</clus>
<clus scale="  935.198">  2  9  1 -1</clus>
<clus scale="  935.198">  2  5  1 -1</clus>
</clustering>
</event>
<event>
 9    2  0.3745229E-005  0.1696414E+03  0.7546771E-02  0.1179741E+00
         -3   -1    0    0    0  501 -0.00000000000E+00  0.00000000000E+00  0.96830062175E+02  0.96830062175E+02  0.00000000000E+00 0.  1.
         21   -1    0    0  501  502  0.00000000000E+00 -0.00000000000E+00 -0.42339722068E+03  0.42339722068E+03  0.00000000000E+00 0.  1.
         24    2    1    2    0    0 -0.15492584966E+02 -0.15595341111E+03 -0.11320593634E+03  0.20958668288E+03  0.80929024410E+02 0.  0.
         23    2    1    2    0    0  0.63356792282E+02  0.11727767940E+03 -0.13377127995E+03  0.21003566239E+03  0.91935232205E+02 0.  0.
        -13    1    3    3    0    0 -0.73665506595E+01 -0.89868144975E+02 -0.11094376851E+03  0.14296527313E+03  0.00000000000E+00 0.  1.
         14    1    3    3    0    0 -0.81260343068E+01 -0.66085266138E+02 -0.22621678305E+01  0.66621409752E+02  0.00000000000E+00 0. -1.
        -11    1    4    4    0    0  0.43810232396E+02  0.13094180269E+03 -0.11435125582E+03  0.17927995387E+03  0.00000000000E+00 0.  1.
         11    1    4    4    0    0  0.19546559886E+02 -0.13664123291E+02 -0.19420024134E+02  0.30755708512E+02  0.00000000000E+00 0. -1.
         -4    1    1    2    0  502 -0.47864207316E+02  0.38675731718E+02 -0.79589942211E+02  0.10060493759E+03  0.00000000000E+00 0.  1.
<scales pt_clust_5="13000.00000" pt_clust_6="13000.00000" pt_clust_7="13000.00000" pt_clust_8="13000.00000" pt_clust_9="61.53694"></scales>
<clustering>
<clus scale="   61.537">  2  9  1 -1</clus>
<clus scale="   80.929">  5  6 -1 -1</clus>
<clus scale="   91.935">  7  8 -1 -1</clus>
<clus scale="  163.938">  1  5  2 -1</clus>
<clus scale="   61.537">  2  5  1 -1</clus>
</clustering>
</event>
<event>
 9    2  0.3745229E-005  0.1008669E+03  0.7546771E-02  0.1283072E+00
         21   -1    0    0  501  502  0.00000000000E+00  0.00000000000E+00  0.51333648957E+02  0.51333648957E+02  0.00000000000E+00 0. -1.
         -1   -1    0    0    0  501 -0.00000000000E+00 -0.00000000000E+00 -0.62557837830E+03  0.62557837830E+03  0.00000000000E+00 0.  1.
         24    2    1    2    0    0 -0.43151831629E+02 -0.12980580900E+02 -0.44705018042E+03  0.45690910624E+03  0.82954755690E+02 0.  0.
         23    2    1    2    0    0  0.36800106609E+01  0.29062070280E+00 -0.66909426156E+01  0.92565960635E+02  0.92249994127E+02 0.  0.
        -11    1    3    3    0    0 -0.27662552129E+02 -0.38995120427E+02 -0.13171544219E+03  0.14012420890E+03  0.00000000000E+00 0.  1.
         12    1    3    3    0    0 -0.15489279499E+02  0.26014539527E+02 -0.31533473823E+03  0.31678489734E+03  0.00000000000E+00 0. -1.
        -11    1    4    4    0    0 -0.16302529746E+02  0.22562941479E+02 -0.39395927892E+02  0.48237930498E+02  0.00000000000E+00 0.  1.
         11    1    4    4    0    0  0.19982540407E+02 -0.22272320776E+02  0.32704985276E+02  0.44328030137E+02  0.00000000000E+00 0. -1.
         -2    1    1    2    0  502  0.39471820968E+02  0.12689960197E+02 -0.12050360631E+03  0.12743696039E+03  0.00000000000E+00 0.  1.
<scales pt_clust_5="13000.00000" pt_clust_6="13000.00000" pt_clust_7="13000.00000" pt_clust_8="13000.00000" pt_clust_9="41.46157"></scales>
<clustering>
<clus scale="   41.462">  1  9  2 -1</clus>
<clus scale="   82.955">  5  6 -1 -1</clus>
<clus scale="   92.250">  7  8 -1 -1</clus>
<clus scale="   92.442">  2  5  1 -1</clus>
<clus scale="   41.462">  1  5  2 -1</clus>
</clustering>
</event>
<event>
 9    2  0.3745229E-005  0.1174238E+03  0.7546771E-02  0.1250410E+00
         21   -1    0    0  501  502  0.00000000000E+00  0.00000000000E+00  0.28258228141E+02  0.28258228141E+02  0.00000000000E+00 0.  1.
          2   -1    0    0  502    0 -0.00000000000E+00 -0.00000000000E+00 -0.88900634270E+03  0.88900634270E+03  0.00000000000E+00 0. -1.
         24    2    1    2    0    0  0.39687756156E+02 -0.73366366077E+02 -0.61333400174E+03  0.62403221091E+03  0.79245573351E+02 0.  0.
         23    2    1    2    0    0 -0.11197777218E+02  0.64420405595E+02 -0.23750083180E+03  0.26176837656E+03  0.88547495686E+02 0.  0.
        -13    1    3    3    0    0 -0.15174859655E+02 -0.38390185637E+02 -0.13155343640E+03  0.13787816850E+03  0.00000000000E+00 0.  1.
         14    1    3    3    0    0  0.54862615812E+02 -0.34976180440E+02 -0.48178056534E+03  0.48615404241E+03  0.00000000000E+00 0. -1.
        -13    1    4    4    0    0  0.78537431143E+01  0.54278725473E+02 -0.23345394494E+03  0.23980951967E+03  0.00000000000E+00 0. -1.
         13    1    4    4    0    0 -0.19051520332E+02  0.10141680122E+02 -0.40468868633E+01  0.21958856891E+02  0.00000000000E+00 0.  1.
          1    1    1    2  501    0 -0.28489978938E+02  0.89459604819E+01 -0.99132810150E+01  0.31463983367E+02  0.00000000000E+00 0. -1.
<scales pt_clust_5="13000.00000" pt_clust_6="13000.00000" pt_clust_7="13000.00000" pt_clust_8="13000.00000" pt_clust_9="29.86150"></scales>
<clustering>
<clus scale="   29.861">  1  9  2 -1</clus>
<clus scale="   79.246">  5  6 -1 -1</clus>
<clus scale="   88.547">  7  8 -1 -1</clus>
<clus scale="  110.578">  2  5  1 -1</clus>
<clus scale="   29.861">  1  5  2 -1</clus>
</clustering>
</event>
<event>
 9    2  0.3745229E-005  0.1015742E+03  0.7546771E-02  0.1283707E+00
         21   -1    0    0  501  502  0.00000000000E+00  0.00000000000E+00  0.22591622629E+03  0.22591622629E+03  0.00000000000E+00 0. -1.
         -3   -1    0    0    0  501 -0.00000000000E+00 -0.00000000000E+00 -0.20695654390E+03  0.20695654390E+03  0.00000000000E+00 0.  1.
         24    2    1    2    0    0  0.15503554845E+02 -0.43542772275E+02 -0.16658164819E+03  0.18956070045E+03  0.77765547715E+02 0.  0.
         23    2    1    2    0    0 -0.39950359626E+01  0.87139574858E+01  0.18503614648E+03  0.20662763765E+03  0.91458798211E+02 0.  0.
        -13    1    3    3    0    0  0.44212453749E+02 -0.31218043823E+02 -0.72819213255E+02  0.90730067484E+02  0.00000000000E+00 0.  1.
         14    1    3    3    0    0 -0.28708898904E+02 -0.12324728452E+02 -0.93762434930E+02  0.98830632962E+02  0.00000000000E+00 0. -1.
        -13    1    4    4    0    0 -0.37504948212E+02 -0.14608821557E+02  0.14075769573E+03  0.14639934329E+03  0.00000000000E+00 0. -1.
         13    1    4    4    0    0  0.33509912250E+02  0.23322779042E+02  0.44278450746E+02  0.60228294362E+02  0.00000000000E+00 0.  1.
         -4    1    1    2    0  502 -0.11508518883E+02  0.34828814789E+02  0.50518409712E+00  0.36684432086E+02  0.00000000000E+00 0.  1.
<scales pt_clust_5="13000.00000" pt_clust_6="13000.00000" pt_clust_7="13000.00000" pt_clust_8="13000.00000" pt_clust_9="36.68097"></scales>
<clustering>
<clus scale="   36.681">  1  9  2 -1</clus>
<clus scale="   77.766">  5  6 -1 -1</clus>
<clus scale="   89.443">  2  5  1 -1</clus>
<clus scale="   91.459">  7  8 -1 -1</clus>
<clus scale="   36.681">  1  5  2 -1</clus>
</clustering>
</event>
<event>
 9    2  0.3745229E-005  0.9954516E+02  0.7546771E-02  0.1287211E+00
          2   -1    0    0  502    0 -0.00000000000E+00  0.00000000000E+00  0.31853392990E+03  0.31853392990E+03  0.00000000000E+00 0. -1.
         21   -1    0    0  501  502  0.00000000000E+00 -0.00000000000E+00 -0.50912392620E+02  0.50912392620E+02  0.00000000000E+00 0.  1.
         23    2    1    2    0    0 -0.12829717588E+02 -0.30164010391E+02  0.21742926946E+03  0.23843365121E+03  0.92198967654E+02 0.  0.
         24    2    1    2    0    0  0.33570954302E+02  0.40044161658E+02  0.49352519463E+02  0.10802307656E+03  0.80639754690E+02 0.  0.
        -11    1    4    4    0    0  0.38473258147E+02  0.49360904737E+02  0.53872614506E+01  0.62814911405E+02  0.00000000000E+00 0.  1.
         12    1    4    4    0    0 -0.49023038448E+01 -0.93167430789E+01  0.43965258012E+02  0.45208165155E+02  0.00000000000E+00 0. -1.
        -13    1    3    3    0    0  0.38993992352E+02 -0.18929095812E+02  0.11867109839E+03  0.12633950966E+03  0.00000000000E+00 0. -1.
         13    1    3    3    0    0 -0.51823709940E+02 -0.11234914579E+02  0.98758171072E+02  0.11209414156E+03  0.00000000000E+00 0.  1.
          1    1    1    2  501    0 -0.20741236714E+02 -0.98801512671E+01  0.83974835911E+00  0.22989594751E+02  0.00000000000E+00 0. -1.
<scales pt_clust_5="13000.00000" pt_clust_6="13000.00000" pt_clust_7="13000.00000" pt_clust_8="13000.00000" pt_clust_9="22.97425"></scales>
<clustering>
<clus scale="   22.974">  2  9  1 -1</clus>
<clus scale="   80.640">  5  6 -1 -1</clus>
<clus scale="   88.946">  2  5  1 -1</clus>
<clus scale="   92.199">  7  8 -1 -1</clus>
<clus scale="   22.974">  2  5  1 -1</clus>
</clustering>
</event>
<event>
 9    2  0.3745229E-005  0.1037320E+03  0.7546771E-02  0.1279916E+00
         -1   -1    0    0    0  501 -0.00000000000E+00  0.00000000000E+00  0.81492297964E+02  0.81492297964E+02  0.00000000000E+00 0.  1.
         21   -1    0    0  501  502  0.00000000000E+00 -0.00000000000E+00 -0.31194084708E+03  0.31194084708E+03  0.00000000000E+00 0. -1.
         23    2    1    2    0    0 -0.36359609385E+02 -0.51488142120E+02 -0.15569576187E+02  0.11341603881E+03  0.92993205038E+02 0.  0.
         24    2    1    2    0    0 -0.28637285711E+02  0.13004075519E+02 -0.17630724637E+03  0.19520320499E+03  0.77658521759E+02 0.  0.
        -13    1    4    4    0    0  0.29862927659E+01  0.23165279166E+02 -0.96563950960E+01  0.25274375751E+02  0.00000000000E+00 0.  1.
         14    1    4    4    0    0 -0.31623578477E+02 -0.10161203648E+02 -0.16665085128E+03  0.16992882924E+03  0.00000000000E+00 0. -1.
        -13    1    3    3    0    0 -0.20880315801E+02  0.18032018525E+02 -0.29988387073E+02  0.40748553831E+02  0.00000000000E+00 0. -1.
         13    1    3    3    0    0 -0.15479293584E+02 -0.69520160645E+02  0.14418810885E+02  0.72667484980E+02  0.00000000000E+00 0.  1.
         -2    1    1    2    0  502  0.64996895097E+02  0.38484066601E+02 -0.38571726551E+02  0.84813901240E+02  0.00000000000E+00 0.  1.
<scales pt_clust_5="13000.00000" pt_clust_6="13000.00000" pt_clust_7="13000.00000" pt_clust_8="13000.00000" pt_clust_9="75.53559"></scales>
<clustering>
<clus scale="   75.536">  2  9  1 -1</clus>
<clus scale="   77.659">  5  6 -1 -1</clus>
<clus scale="   90.241">  2  5  1 -1</clus>
<clus scale="   92.993">  7  8 -1 -1</clus>
<clus scale="   75.536">  2  5  1 -1</clus>
</clustering>
</event>
<event>
 9    2  0.3745229E-005  0.1661251E+03  0.7546771E-02  0.1202564E+00
          2   -1    0    0  502    0 -0.00000000000E+00  0.00000000000E+00  0.15725411294E+04  0.15725411294E+04  0.00000000000E+00 0. -1.
         21   -1    0    0  501  502  0.00000000000E+00 -0.00000000000E+00 -0.30070688248E+02  0.30070688248E+02  0.00000000000E+00 0. -1.
         23    2    1    2    0    0 -0.78846805272E+01  0.51514119193E+02  0.24324952164E+03  0.26515594493E+03  0.91768582258E+02 0.  0.
         24    2    1    2    0    0 -0.11019288961E+03 -0.10004247564E+03  0.54506629526E+03  0.57257254095E+03  0.92688071293E+02 0.  0.
        -13    1    4    4    0    0 -0.25031011700E+02  0.15651345950E+02  0.63337893906E+02  0.69879932607E+02  0.00000000000E+00 0.  1.
         14    1    4    4    0    0 -0.85161877911E+02 -0.11569382159E+03  0.48172840136E+03  0.50269260834E+03  0.00000000000E+00 0. -1.
        -11    1    3    3    0    0 -0.10634836010E+02  0.77508721579E+02  0.16396273279E+03  0.18167134997E+03  0.00000000000E+00 0. -1.
         11    1    3    3    0    0  0.27501554827E+01 -0.25994602386E+02  0.79286788851E+02  0.83484594954E+02  0.00000000000E+00 0.  1.
          1    1    1    2  501    0  0.11807757014E+03  0.48528356449E+02  0.75415462427E+03  0.76488333179E+03  0.00000000000E+00 0. -1.
<scales pt_clust_5="13000.00000" pt_clust_6="13000.00000" pt_clust_7="13000.00000" pt_clust_8="13000.00000" pt_clust_9="137.86406"></scales>
<clustering>
<clus scale="   91.769">  7  8 -1 -1</clus>
<clus scale="   92.688">  5  6 -1 -1</clus>
<clus scale="  105.534">  1  7  2 -1</clus>
<clus scale="  137.864">  2  9  1 -1</clus>
<clus scale="  137.864">  2  5  1 -1</clus>
</clustering>
</event>
<event>
 9    2  0.3745229E-005  0.1189800E+03  0.7546771E-02  0.1247850E+00
          2   -1    0    0  502    0 -0.00000000000E+00  0.00000000000E+00  0.53847670395E+03  0.53847670395E+03  0.00000000000E+00 0. -1.
         21   -1    0    0  501  502  0.00000000000E+00 -0.00000000000E+00 -0.11865043683E+03  0.11865043683E+03  0.00000000000E+00 0. -1.
         24    2    1    2    0    0 -0.24343031404E+02 -0.78628204182E+02  0.43917971585E+03  0.45418317988E+03  0.81415971389E+02 0.  0.
         23    2    1    2    0    0 -0.34233849868E+02  0.23704136489E+02 -0.56066969002E+02  0.11465020799E+03  0.90924818483E+02 0.  0.
        -11    1    3    3    0    0 -0.31456497097E+02  0.44219515534E+01  0.14386596279E+03  0.14733119192E+03  0.00000000000E+00 0.  1.
         12    1    3    3    0    0  0.71134656925E+01 -0.83050155736E+02  0.29531375307E+03  0.30685198796E+03  0.00000000000E+00 0. -1.
        -13    1    4    4    0    0  0.12135223718E+02  0.24020328495E+02  0.14225984742E+02  0.30440408630E+02  0.00000000000E+00 0.  1.
         13    1    4    4    0    0 -0.46369073586E+02 -0.31619200613E+00 -0.70292953744E+02  0.84209799363E+02  0.00000000000E+00 0. -1.
          1    1    1    2  501    0  0.58576881273E+02  0.54924067693E+02  0.36713520265E+02  0.88293752904E+02  0.00000000000E+00 0. -1.
<scales pt_clust_5="13000.00000" pt_clust_6="13000.00000" pt_clust_7="13000.00000" pt_clust_8="13000.00000" pt_clust_9="80.29884"></scales>
<clustering>
<clus scale="   80.299">  2  9  1 -1</clus>
<clus scale="   81.416">  5  6 -1 -1</clus>
<clus scale="   90.925">  7  8 -1 -1</clus>
<clus scale="  111.882">  1  5  2 -1</clus>
<clus scale="   80.299">  2  5  1 -1</clus>
</clustering>
</event>
<event>
 9    2  0.3745229E-005  0.9457977E+02  0.7546771E-02  0.1301048E+00
         -3   -1    0    0    0  501 -0.00000000000E+00  0.00000000000E+00  0.13443058745E+03  0.13443058745E+03  0.00000000000E+00 0.  1.
         21   -1    0    0  501  502  0.00000000000E+00 -0.00000000000E+00 -0.11078430727E+03  0.11078430727E+03  0.00000000000E+00 0. -1.
         23    2    1    2    0    0 -0.17675573134E+02  0.42709494973E+01  0.12389199220E+02  0.94990068934E+02  0.92406461049E+02 0.  0.
         24    2    1    2    0    0  0.13831111558E+02  0.36334566377E+02 -0.30372794350E+02  0.91944174427E+02  0.77586881712E+02 0.  0.
        -13    1    4    4    0    0  0.88765350615E+00 -0.24328516763E+02 -0.46055240849E+01  0.24776511230E+02  0.00000000000E+00 0.  1.
         14    1    4    4    0    0  0.12943458052E+02  0.60663083140E+02 -0.25767270265E+02  0.67167663196E+02  0.00000000000E+00 0. -1.
        -11    1    3    3    0    0 -0.39314785349E+02  0.30989785854E+02 -0.13618082712E+02  0.51879392355E+02  0.00000000000E+00 0.  1.
         11    1    3    3    0    0  0.21639212215E+02 -0.26718836357E+02  0.26007281933E+02  0.43110676579E+02  0.00000000000E+00 0. -1.
         -4    1    1    2    0  502  0.38444615759E+01 -0.40605515874E+02  0.41629875309E+02  0.58280651355E+02  0.00000000000E+00 0.  1.
<scales pt_clust_5="13000.00000" pt_clust_6="13000.00000" pt_clust_7="13000.00000" pt_clust_8="13000.00000" pt_clust_9="40.78712"></scales>
<clustering>
<clus scale="   40.787">  2  9  1 -1</clus>
<clus scale="   77.587">  5  6 -1 -1</clus>
<clus scale="   80.163">  2  5  1 -1</clus>
<clus scale="   92.406">  7  8 -1 -1</clus>
<clus scale="   40.787">  2  5  1 -1</clus>
</clustering>
</event>
<event>
 9    2  0.3745229E-005  0.1027917E+03  0.7546771E-02  0.1280718E+00
         21   -1    0    0  501  502  0.00000000000E+00  0.00000000000E+00  0.12431566962E+04  0.12431566962E+04  0.00000000000E+00 0. -1.
         -3   -1    0    0    0  501 -0.00000000000E+00 -0.00000000000E+00 -0.17005855302E+02  0.17005855302E+02  0.00000000000E+00 0.  1.
         23    2    1    2    0    0  0.27282265036E+02  0.26471025817E+02  0.20791781540E+03  0.23102686599E+03  0.93266058429E+02 0.  0.
         24    2    1    2    0    0 -0.30792655844E+02 -0.59748443292E+02  0.90525339887E+03  0.91130485173E+03  0.80465846734E+02 0.  0.
        -13    1    4    4    0    0 -0.19465252258E+02 -0.75464471858E+01  0.47446942280E+02  0.51836832874E+02  0.00000000000E+00 0.  1.
         14    1    4    4    0    0 -0.11327403586E+02 -0.52201996107E+02  0.85780645659E+03  0.85946801886E+03  0.00000000000E+00 0. -1.
        -11    1    3    3    0    0  0.27918434039E+02  0.50236758734E+02  0.67690631833E+02  0.88798606550E+02  0.00000000000E+00 0.  1.
         11    1    3    3    0    0 -0.63616900350E+00 -0.23765732917E+02  0.14022718357E+03  0.14222825944E+03  0.00000000000E+00 0. -1.
         -4    1    1    2    0  502  0.35103908081E+01  0.33277417475E+02  0.11297962667E+03  0.11783083383E+03  0.00000000000E+00 0.  1.
<scales pt_clust_5="13000.00000" pt_clust_6="13000.00000" pt_clust_7="13000.00000" pt_clust_8="13000.00000" pt_clust_9="33.46208"></scales>
<clustering>
<clus scale="   33.462">  1  9  2 -1</clus>
<clus scale="   80.466">  5  6 -1 -1</clus>
<clus scale="   91.336">  1  5  2 -1</clus>
<clus scale="   93.266">  7  8 -1 -1</clus>
<clus scale="   33.462">  1  5  2 -1</clus>
</clustering>
</event>
<event>
 9    2  0.3745229E-005  0.1174126E+03  0.7546771E-02  0.1256220E+00
          2   -1    0    0  502    0 -0.00000000000E+00  0.00000000000E+00  0.45421980282E+03  0.45421980282E+03  0.00000000000E+00 0. -1.
         21   -1    0    0  501  502  0.00000000000E+00 -0.00000000000E+00 -0.57181467616E+03  0.57181467616E+03  0.00000000000E+00 0.  1.
         23    2    1    2    0    0  0.54606945219E+02 -0.17470211037E+02  0.43673709312E+03  0.45246310620E+03  0.10342362991E+03 0.  0.
         24    2    1    2    0    0  0.67782836284E+01  0.11098687053E+02 -0.25656075290E+03  0.26947198399E+03  0.81379384636E+02 0.  0.
        -13    1    4    4    0    0  0.21188368121E+02  0.38417543534E+02 -0.20260916569E+03  0.20730491701E+03  0.00000000000E+00 0.  1.
         14    1    4    4    0    0 -0.14410084493E+02 -0.27318856481E+02 -0.53951587216E+02  0.62167066986E+02  0.00000000000E+00 0. -1.
        -13    1    3    3    0    0 -0.23300321730E+02 -0.28592397418E+02  0.18762179621E+03  0.19121288816E+03  0.00000000000E+00 0.  1.
         13    1    3    3    0    0  0.77907266950E+02  0.11122186381E+02  0.24911529691E+03  0.26125021804E+03  0.00000000000E+00 0. -1.
          1    1    1    2  501    0 -0.61385228848E+02  0.63715239839E+01 -0.29777121355E+03  0.30409938879E+03  0.00000000000E+00 0. -1.
<scales pt_clust_5="13000.00000" pt_clust_6="13000.00000" pt_clust_7="13000.00000" pt_clust_8="13000.00000" pt_clust_9="61.71501"></scales>
<clustering>
<clus scale="   61.715">  2  9  1 -1</clus>
<clus scale="   81.379">  5  6 -1 -1</clus>
<clus scale="   98.549">  2  5  1 -1</clus>
<clus scale="  103.424">  7  8 -1 -1</clus>
<clus scale="   61.715">  2  5  1 -1</clus>
</clustering>
</event>
<event>
 9    2  0.3745229E-005  0.1090602E+03  0.7546771E-02  0.1266242E+00
          4   -1    0    0  502    0 -0.00000000000E+00  0.00000000000E+00  0.31384017520E+03  0.31384017520E+03  0.00000000000E+00 0. -1.
         21   -1    0    0  501  502  0.00000000000E+00 -0.00000000000E+00 -0.13767696335E+03  0.13767696335E+03  0.00000000000E+00 0.  1.
         23    2    1    2    0    0 -0.44126616527E+02 -0.34399729330E+02  0.20240530362E+03  0.22947037612E+03  0.92510793536E+02 0.  0.
         24    2    1    2    0    0  0.99522527714E+02 -0.32165850980E+02 -0.22747329774E+02  0.13537556295E+03  0.82883813496E+02 0.  0.
        -11    1    4    4    0    0  0.10756970491E+03 -0.11187132319E+02 -0.29154707929E+02  0.11201067065E+03  0.00000000000E+00 0.  1.
         12    1    4    4    0    0 -0.80471771963E+01 -0.20978718660E+02  0.64073781554E+01  0.23364892302E+02  0.00000000000E+00 0. -1.
        -13    1    3    3    0    0  0.28670940884E+02 -0.43471951422E+01  0.46485719097E+02  0.54789077714E+02  0.00000000000E+00 0.  1.
         13    1    3    3    0    0 -0.72797557411E+02 -0.30052534188E+02  0.15591958452E+03  0.17468129841E+03  0.00000000000E+00 0. -1.
          3    1    1    2  501    0 -0.55395911187E+02  0.66565580309E+02 -0.34947619957E+01  0.86671199482E+02  0.00000000000E+00 0. -1.
<scales pt_clust_5="13000.00000" pt_clust_6="13000.00000" pt_clust_7="13000.00000" pt_clust_8="13000.00000" pt_clust_9="86.60071"></scales>
<clustering>
<clus scale="   82.884">  5  6 -1 -1</clus>
<clus scale="   86.601">  2  9  1 -1</clus>
<clus scale="   92.511">  7  8 -1 -1</clus>
<clus scale="  101.023">  2  5  1 -1</clus>
<clus scale="   86.601">  2  5  1 -1</clus>
</clustering>
</event>
<event>
 9    2  0.3745229E-005  0.2251544E+03  0.7546771E-02  0.1154831E+00
         -1   -1    0    0    0  501 -0.00000000000E+00  0.00000000000E+00  0.58933014639E+03  0.58933014639E+03  0.00000000000E+00 0.  1.
         21   -1    0    0  501  502  0.00000000000E+00 -0.00000000000E+00 -0.14644472024E+03  0.14644472024E+03  0.00000000000E+00 0.  1.
         23    2    1    2    0    0 -0.16368908595E+02 -0.97727944110E+02  0.11403912928E+03  0.16869108363E+03  0.75053757125E+02 0.  0.
         24    2    1    2    0    0 -0.18041719396E+03 -0.23688858263E+02  0.25642610345E+03  0.32477923400E+03  0.81336820846E+02 0.  0.
        -13    1    4    4    0    0 -0.52449434954E+02 -0.34116317007E+02  0.13156299123E+03  0.14568351648E+03  0.00000000000E+00 0.  1.
         14    1    4    4    0    0 -0.12796775900E+03  0.10427458745E+02  0.12486311223E+03  0.17909571752E+03  0.00000000000E+00 0. -1.
        -13    1    3    3    0    0 -0.26499669286E+02 -0.38433884883E+01  0.11059840411E+02  0.28971092096E+02  0.00000000000E+00 0.  1.
         13    1    3    3    0    0  0.10130760691E+02 -0.93884555622E+02  0.10297928887E+03  0.13971999153E+03  0.00000000000E+00 0. -1.
         -2    1    1    2    0  502  0.19678610255E+03  0.12141680237E+03  0.72420193414E+02  0.24230454901E+03  0.00000000000E+00 0.  1.
<scales pt_clust_5="13000.00000" pt_clust_6="13000.00000" pt_clust_7="13000.00000" pt_clust_8="13000.00000" pt_clust_9="209.94960"></scales>
<clustering>
<clus scale="   75.054">  7  8 -1 -1</clus>
<clus scale="   81.337">  5  6 -1 -1</clus>
<clus scale="  124.305">  1  7  2 -1</clus>
<clus scale="  209.950">  2  9  1 -1</clus>
<clus scale="  209.950">  2  5  1 -1</clus>
</clustering>
</event>
<event>
 9    2  0.3745229E-005  0.1127285E+03  0.7546771E-02  0.1260059E+00
         21   -1    0    0  501  502  0.00000000000E+00  0.00000000000E+00  0.43276540460E+02  0.43276540460E+02  0.00000000000E+00 0. -1.
          2   -1    0    0  502    0 -0.00000000000E+00 -0.00000000000E+00 -0.11504046180E+04  0.11504046180E+04  0.00000000000E+00 0. -1.
         24    2    1    2    0    0 -0.61325392389E+02  0.81870760712E+01 -0.76737214083E+03  0.77394772434E+03  0.79418168707E+02 0.  0.
         23    2    1    2    0    0  0.78986343813E+02  0.53679477734E+01 -0.36591601024E+03  0.38538234491E+03  0.91418640570E+02 0.  0.
        -11    1    3    3    0    0 -0.44111144475E+02  0.13367171518E+02 -0.16526069844E+03  0.17156798300E+03  0.00000000000E+00 0.  1.
         12    1    3    3    0    0 -0.17214247915E+02 -0.51800954467E+01 -0.60211144239E+03  0.60237974135E+03  0.00000000000E+00 0. -1.
        -13    1    4    4    0    0  0.14995796915E+02  0.43505854826E+02 -0.15567172870E+03  0.16233089800E+03  0.00000000000E+00 0. -1.
         13    1    4    4    0    0  0.63990546897E+02 -0.38137907053E+02 -0.21024428154E+03  0.22305144691E+03  0.00000000000E+00 0.  1.
          1    1    1    2  501    0 -0.17660951424E+02 -0.13555023845E+02  0.26160073584E+02  0.34351089161E+02  0.00000000000E+00 0. -1.
<scales pt_clust_5="13000.00000" pt_clust_6="13000.00000" pt_clust_7="13000.00000" pt_clust_8="13000.00000" pt_clust_9="22.26315"></scales>
<clustering>
<clus scale="   22.263">  1  9  2 -1</clus>
<clus scale="   79.418">  5  6 -1 -1</clus>
<clus scale="   91.419">  7  8 -1 -1</clus>
<clus scale="  103.236">  2  5  1 -1</clus>
<clus scale="   22.263">  1  5  2 -1</clus>
</clustering>
</event>
<event>
 9    2  0.3745229E-005  0.2036367E+03  0.7546771E-02  0.1168929E+00
         21   -1    0    0  501  502  0.00000000000E+00  0.00000000000E+00  0.12130741251E+03  0.12130741251E+03  0.00000000000E+00 0. -1.
          2   -1    0    0  502    0 -0.00000000000E+00 -0.00000000000E+00 -0.66413893592E+03  0.66413893592E+03  0.00000000000E+00 0. -1.
         23    2    1    2    0    0 -0.77868612675E+02  0.19171727168E+02 -0.27670350072E+03  0.30206115988E+03  0.90802208307E+02 0.  0.
         24    2    1    2    0    0  0.65666082595E+02 -0.19757210445E+03 -0.16850472276E+03  0.27965520785E+03  0.80414071059E+02 0.  0.
        -13    1    4    4    0    0  0.20821701544E+02 -0.70811315368E+00 -0.10858992065E+02  0.23493879801E+02  0.00000000000E+00 0.  1.
         14    1    4    4    0    0  0.44844381050E+02 -0.19686399129E+03 -0.15764573070E+03  0.25616132805E+03  0.00000000000E+00 0. -1.
        -11    1    3    3    0    0 -0.10520968376E+01  0.29897871170E+02 -0.26006088596E+02  0.39639705502E+02  0.00000000000E+00 0.  1.
         11    1    3    3    0    0 -0.76816515837E+02 -0.10726144003E+02 -0.25069741213E+03  0.26242145438E+03  0.00000000000E+00 0. -1.
          1    1    1    2  501    0  0.12202530080E+02  0.17840037728E+03 -0.97623299925E+02  0.20372998071E+03  0.00000000000E+00 0. -1.
<scales pt_clust_5="13000.00000" pt_clust_6="13000.00000" pt_clust_7="13000.00000" pt_clust_8="13000.00000" pt_clust_9="187.08678"></scales>
<clustering>
<clus scale="   80.414">  5  6 -1 -1</clus>
<clus scale="   90.802">  7  8 -1 -1</clus>
<clus scale="  121.145">  2  7  1 -1</clus>
<clus scale="  187.087">  1  9  2 -1</clus>
<clus scale="  187.087">  1  5  2 -1</clus>
</clustering>
</event>
<event>
 9    2  0.3745229E-005  0.1728302E+03  0.7546771E-02  0.1176057E+00
         -1   -1    0    0    0  501 -0.00000000000E+00  0.00000000000E+00  0.11747936874E+04  0.11747936874E+04  0.00000000000E+00 0.  1.
         21   -1    0    0  501  502  0.00000000000E+00 -0.00000000000E+00 -0.52818448768E+02  0.52818448768E+02  0.00000000000E+00 0.  1.
         24    2    1    2    0    0  0.64269934838E+02 -0.13618251813E+03  0.56635604194E+03  0.59186523071E+03  0.82879323828E+02 0.  0.
         23    2    1    2    0    0  0.19878052423E+02  0.15267092940E+03  0.19359317386E+03  0.26370444461E+03  0.91423013987E+02 0.  0.
        -11    1    3    3    0    0  0.57704359487E+02 -0.14771237514E+03  0.52575158144E+03  0.54914794387E+03  0.00000000000E+00 0.  1.
         12    1    3    3    0    0  0.65655753511E+01  0.11529857015E+02  0.40604460496E+02  0.42717286836E+02  0.00000000000E+00 0. -1.
        -11    1    4    4    0    0 -0.36091136746E+02  0.48256081076E+02  0.57833739551E+02  0.83522218259E+02  0.00000000000E+00 0. -1.
         11    1    4    4    0    0  0.55969189168E+02  0.10441484833E+03  0.13575943431E+03  0.18018222635E+03  0.00000000000E+00 0.  1.
         -2    1    1    2    0  502 -0.84147987261E+02 -0.16488411277E+02  0.36202602279E+03  0.37204246081E+03  0.00000000000E+00 0.  1.
<scales pt_clust_5="13000.00000" pt_clust_6="13000.00000" pt_clust_7="13000.00000" pt_clust_8="13000.00000" pt_clust_9="85.74823"></scales>
<clustering>
<clus scale="   82.879">  5  6 -1 -1</clus>
<clus scale="   85.748">  2  9  1 -1</clus>
<clus scale="   91.423">  7  8 -1 -1</clus>
<clus scale="  168.467">  1  5  2 -1</clus>
<clus scale="   85.748">  2  5  1 -1</clus>
</clustering>
</event>
<event>
 9    2  0.3745229E-005  0.9963069E+02  0.7546771E-02  0.1283178E+00
         21   -1    0    0  501  502  0.00000000000E+00  0.00000000000E+00  0.96152002926E+02  0.96152002926E+02  0.00000000000E+00 0.  1.
         -3   -1    0    0    0  501 -0.00000000000E+00 -0.00000000000E+00 -0.16592489524E+03  0.16592489524E+03  0.00000000000E+00 0.  1.
         23    2    1    2    0    0 -0.92890683752E+01  0.47881336230E+02 -0.75623327474E+02  0.12432717575E+03  0.85787235772E+02 0.  0.
         24    2    1    2    0    0 -0.10987648745E+02 -0.57791962552E+02  0.30011659466E+02  0.10468719784E+03  0.81228506866E+02 0.  0.
        -13    1    4    4    0    0 -0.27634974156E+02 -0.72407970090E+02  0.18319927907E+02  0.79638091939E+02  0.00000000000E+00 0.  1.
         14    1    4    4    0    0  0.16647325412E+02  0.14616007538E+02  0.11691731559E+02  0.25049105903E+02  0.00000000000E+00 0. -1.
        -13    1    3    3    0    0  0.70217703453E+01 -0.21112105016E+02 -0.23536293286E+01  0.22373328049E+02  0.00000000000E+00 0. -1.
         13    1    3    3    0    0 -0.16310838720E+02  0.68993441246E+02 -0.73269698145E+02  0.10195384770E+03  0.00000000000E+00 0.  1.
         -4    1    1    2    0  502  0.20276717120E+02  0.99106263215E+01 -0.24161224310E+02  0.33062524577E+02  0.00000000000E+00 0.  1.
<scales pt_clust_5="13000.00000" pt_clust_6="13000.00000" pt_clust_7="13000.00000" pt_clust_8="13000.00000" pt_clust_9="22.56914"></scales>
<clustering>
<clus scale="   22.569">  1  9  2 -1</clus>
<clus scale="   81.229">  5  6 -1 -1</clus>
<clus scale="   85.787">  7  8 -1 -1</clus>
<clus scale="   95.733">  1  5  2 -1</clus>
<clus scale="   22.569">  1  5  2 -1</clus>
</clustering>
</event>
<event>
 9    2  0.3745229E-005  0.6303214E+03  0.7546771E-02  0.1047228E+00
         21   -1    0    0  501  502  0.00000000000E+00  0.00000000000E+00  0.35965669389E+03  0.35965669389E+03  0.00000000000E+00 0. -1.
          2   -1    0    0  502    0 -0.00000000000E+00 -0.00000000000E+00 -0.14238109065E+04  0.14238109065E+04  0.00000000000E+00 0. -1.
         23    2    1    2    0    0  0.21209083445E+02 -0.58626084833E+01 -0.59187356907E+02  0.10987045282E+03  0.89912055848E+02 0.  0.
         24    2    1    2    0    0 -0.62381672396E+03  0.10067042648E+03 -0.20915464384E+03  0.67088005520E+03  0.83979423422E+02 0.  0.
        -11    1    4    4    0    0 -0.86477840508E+02  0.40659682214E+02 -0.46444337776E+02  0.10624830901E+03  0.00000000000E+00 0.  1.
         12    1    4    4    0    0 -0.53733888345E+03  0.60010744269E+02 -0.16271030607E+03  0.56463174619E+03  0.00000000000E+00 0. -1.
        -11    1    3    3    0    0 -0.19564315993E+02  0.19809920181E+02 -0.54826597785E+02  0.61491066201E+02  0.00000000000E+00 0.  1.
         11    1    3    3    0    0  0.40773399438E+02 -0.25672528664E+02 -0.43607591227E+01  0.48379386622E+02  0.00000000000E+00 0. -1.
          1    1    1    2  501    0  0.60260764052E+03 -0.94807818000E+02 -0.79581221183E+03  0.10027170923E+04  0.00000000000E+00 0. -1.
<scales pt_clust_5="13000.00000" pt_clust_6="13000.00000" pt_clust_7="13000.00000" pt_clust_8="13000.00000" pt_clust_9="624.70228"></scales>
<clustering>
<clus scale="   83.979">  5  6 -1 -1</clus>
<clus scale="   89.912">  7  8 -1 -1</clus>
<clus scale="   92.566">  2  7  1 -1</clus>
<clus scale="  624.702">  1  9  2 -1</clus>
<clus scale="  624.702">  1  5  2 -1</clus>
</clustering>
</event>
<event>
 9    2  0.3745229E-005  0.1210639E+03  0.7546771E-02  0.1247527E+00
         21   -1    0    0  501  502  0.00000000000E+00  0.00000000000E+00  0.43600323808E+02  0.43600323808E+02  0.00000000000E+00 0. -1.
          2   -1    0    0  502    0 -0.00000000000E+00 -0.00000000000E+00 -0.66434234414E+03  0.66434234414E+03  0.00000000000E+00 0. -1.
         23    2    1    2    0    0 -0.68314762336E+02  0.74103517095E+01 -0.21311631728E+03  0.24410692491E+03  0.97199825267E+02 0.  0.
         24    2    1    2    0    0  0.53955447331E+02 -0.78760783483E+02 -0.14192139695E+03  0.18834372442E+03  0.78849377328E+02 0.  0.
        -11    1    4    4    0    0 -0.16948189415E+02 -0.23874519443E+02 -0.60564557388E+02  0.67270345731E+02  0.00000000000E+00 0.  1.
         12    1    4    4    0    0  0.70903636746E+02 -0.54886264040E+02 -0.81356839566E+02  0.12107337869E+03  0.00000000000E+00 0. -1.
        -13    1    3    3    0    0 -0.25735245426E+02  0.48155748298E+02 -0.13951035156E+03  0.14981460925E+03  0.00000000000E+00 0.  1.
         13    1    3    3    0    0 -0.42579516910E+02 -0.40745396588E+02 -0.73605965721E+02  0.94292315663E+02  0.00000000000E+00 0. -1.
          1    1    1    2  501    0  0.14359315004E+02  0.71350431774E+02 -0.26570430610E+03  0.27549201861E+03  0.00000000000E+00 0. -1.
<scales pt_clust_5="13000.00000" pt_clust_6="13000.00000" pt_clust_7="13000.00000" pt_clust_8="13000.00000" pt_clust_9="72.78104"></scales>
<clustering>
<clus scale="   72.781">  1  9  2 -1</clus>
<clus scale="   78.849">  5  6 -1 -1</clus>
<clus scale="   97.200">  7  8 -1 -1</clus>
<clus scale="  106.892">  1  5  2 -1</clus>
<clus scale="   72.781">  1  5  2 -1</clus>
</clustering>
</event>
<event>
 9    2  0.3745229E-005  0.1078331E+03  0.7546771E-02  0.1270031E+00
         -1   -1    0    0    0  501 -0.00000000000E+00  0.00000000000E+00  0.43902552014E+02  0.43902552014E+02  0.00000000000E+00 0.  1.
         21   -1    0    0  501  502  0.00000000000E+00 -0.00000000000E+00 -0.80713424454E+03  0.80713424454E+03  0.00000000000E+00 0.  1.
         23    2    1    2    0    0  0.10742244163E+02  0.29012897343E+02 -0.97435591998E+02  0.13740245089E+03  0.91807379343E+02 0.  0.
         24    2    1    2    0    0 -0.82361315225E+02 -0.86009415673E+02 -0.25055818868E+03  0.28842802176E+03  0.78932325418E+02 0.  0.
        -13    1    4    4    0    0 -0.67752836175E+02 -0.17285263893E+02 -0.15281979716E+03  0.16805688787E+03  0.00000000000E+00 0.  1.
         14    1    4    4    0    0 -0.14608479050E+02 -0.68724151780E+02 -0.97738391519E+02  0.12037113389E+03  0.00000000000E+00 0. -1.
        -13    1    3    3    0    0  0.38378907740E+02  0.68255118867E+01 -0.61305659630E+01  0.39460258626E+02  0.00000000000E+00 0.  1.
         13    1    3    3    0    0 -0.27636663577E+02  0.22187385457E+02 -0.91305026035E+02  0.97942192268E+02  0.00000000000E+00 0. -1.
         -2    1    1    2    0  502  0.71619071062E+02  0.56996518330E+02 -0.41523791185E+03  0.42520632389E+03  0.00000000000E+00 0.  1.
<scales pt_clust_5="13000.00000" pt_clust_6="13000.00000" pt_clust_7="13000.00000" pt_clust_8="13000.00000" pt_clust_9="91.53084"></scales>
<clustering>
<clus scale="   78.932">  5  6 -1 -1</clus>
<clus scale="   91.531">  2  9  1 -1</clus>
<clus scale="   91.807">  7  8 -1 -1</clus>
<clus scale="   97.107">  2  5  1 -1</clus>
<clus scale="   91.531">  2  5  1 -1</clus>
</clustering>
</event>
<event>
 9    2  0.3745229E-005  0.1106748E+03  0.7546771E-02  0.1274000E+00
          2   -1    0    0  502    0 -0.00000000000E+00  0.00000000000E+00  0.34219316087E+03  0.34219316087E+03  0.00000000000E+00 0. -1.
         21   -1    0    0  501  502  0.00000000000E+00 -0.00000000000E+00 -0.82489721757E+02  0.82489721757E+02  0.00000000000E+00 0. -1.
         23    2    1    2    0    0  0.54629136495E+02  0.16732773469E+01  0.28180470212E+03  0.30358752250E+03  0.98814732020E+02 0.  0.
         24    2    1    2    0    0 -0.32097432393E+02  0.25866788704E+02  0.15743137272E+01  0.78355848411E+02  0.66616999275E+02 0.  0.
        -13    1    4    4    0    0 -0.42545649273E+02  0.90265171687E+00 -0.16685396814E+02  0.45709402961E+02  0.00000000000E+00 0.  1.
         14    1    4    4    0    0  0.10448216880E+02  0.24964136987E+02  0.18259710542E+02  0.32646445450E+02  0.00000000000E+00 0. -1.
        -13    1    3    3    0    0  0.64196748310E+02 -0.22774428507E+02  0.26197821724E+03  0.27068890520E+03  0.00000000000E+00 0. -1.
         13    1    3    3    0    0 -0.95676118154E+01  0.24447705853E+02  0.19826484882E+02  0.32898617298E+02  0.00000000000E+00 0.  1.
          1    1    1    2  501    0 -0.22531704101E+02 -0.27540066051E+02 -0.23675576742E+02  0.42739511717E+02  0.00000000000E+00 0. -1.
<scales pt_clust_5="13000.00000" pt_clust_6="13000.00000" pt_clust_7="13000.00000" pt_clust_8="13000.00000" pt_clust_9="35.58276"></scales>
<clustering>
<clus scale="   35.583">  2  9  1 -1</clus>
<clus scale="   66.617">  5  6 -1 -1</clus>
<clus scale="   83.201">  2  5  1 -1</clus>
<clus scale="   98.815">  7  8 -1 -1</clus>
<clus scale="   35.583">  2  5  1 -1</clus>
</clustering>
</event>
<event>
 9    2  0.3745229E-005  0.1103811E+03  0.7546771E-02  0.1264250E+00
         21   -1    0    0  501  502  0.00000000000E+00  0.00000000000E+00  0.12067278053E+03  0.12067278053E+03  0.00000000000E+00 0.  1.
          4   -1    0    0  502    0 -0.00000000000E+00 -0.00000000000E+00 -0.15995711166E+03  0.15995711166E+03  0.00000000000E+00 0. -1.
         23    2    1    2    0    0 -0.16487491089E+02  0.52329860681E+02 -0.60795403924E+02  0.12335062767E+03  0.92244482361E+02 0.  0.
         24    2    1    2    0    0  0.25443995605E+02 -0.72058069255E+02  0.49429803277E+02  0.12193981492E+03  0.81155719164E+02 0.  0.
        -11    1    4    4    0    0  0.26517805641E+02 -0.12965090328E+02  0.55158644808E+02  0.62560080565E+02  0.00000000000E+00 0.  1.
         12    1    4    4    0    0 -0.10738100358E+01 -0.59092978927E+02 -0.57288415313E+01  0.59379734352E+02  0.00000000000E+00 0. -1.
        -13    1    3    3    0    0  0.16495891689E+02 -0.20934607301E+02 -0.19412023482E+02  0.32972699027E+02  0.00000000000E+00 0.  1.
         13    1    3    3    0    0 -0.32983382778E+02  0.73264467983E+02 -0.41383380442E+02  0.90377928639E+02  0.00000000000E+00 0. -1.
          3    1    1    2  501    0 -0.89565045166E+01  0.19728208573E+02 -0.27918730478E+02  0.35339449602E+02  0.00000000000E+00 0. -1.
<scales pt_clust_5="13000.00000" pt_clust_6="13000.00000" pt_clust_7="13000.00000" pt_clust_8="13000.00000" pt_clust_9="21.66614"></scales>
<clustering>
<clus scale="   21.666">  1  9  2 -1</clus>
<clus scale="   81.156">  5  6 -1 -1</clus>
<clus scale="   92.244">  7  8 -1 -1</clus>
<clus scale="  101.298">  1  5  2 -1</clus>
<clus scale="   21.666">  1  5  2 -1</clus>
</clustering>
</event>
<event>
 9    2  0.3745229E-005  0.9660378E+02  0.7546771E-02  0.1295104E+00
         21   -1    0    0  501  502  0.00000000000E+00  0.00000000000E+00  0.19196191486E+03  0.19196191486E+03  0.00000000000E+00 0. -1.
         -3   -1    0    0    0  501 -0.00000000000E+00 -0.00000000000E+00 -0.86779695625E+02  0.86779695625E+02  0.00000000000E+00 0.  1.
         24    2    1    2    0    0 -0.16068421495E+02 -0.26344138595E+02 -0.95693629799E+00  0.82327699880E+02  0.76319896703E+02 0.  0.
         23    2    1    2    0    0  0.63273418016E+02 -0.18133265358E+01  0.65728706093E+02  0.12819251394E+03  0.90034683562E+02 0.  0.
        -13    1    3    3    0    0  0.19590251042E+02  0.11645811184E+02 -0.16291399993E+02  0.28014506381E+02  0.00000000000E+00 0.  1.
         14    1    3    3    0    0 -0.35658672537E+02 -0.37989949779E+02  0.15334463695E+02  0.54313193499E+02  0.00000000000E+00 0. -1.
        -11    1    4    4    0    0  0.68471127368E+02 -0.23824800069E+02  0.16990070447E+02  0.74461929032E+02  0.00000000000E+00 0.  1.
         11    1    4    4    0    0 -0.51977093518E+01  0.22011473533E+02  0.48738635646E+02  0.53730584905E+02  0.00000000000E+00 0. -1.
         -4    1    1    2    0  502 -0.47204996522E+02  0.28157465131E+02  0.40410449437E+02  0.68221396665E+02  0.00000000000E+00 0.  1.
<scales pt_clust_5="13000.00000" pt_clust_6="13000.00000" pt_clust_7="13000.00000" pt_clust_8="13000.00000" pt_clust_9="54.96503"></scales>
<clustering>
<clus scale="   54.965">  1  9  2 -1</clus>
<clus scale="   76.320">  5  6 -1 -1</clus>
<clus scale="   83.969">  2  5  1 -1</clus>
<clus scale="   90.035">  7  8 -1 -1</clus>
<clus scale="   54.965">  1  5  2 -1</clus>
</clustering>
</event>
<event>
 9    2  0.3745229E-005  0.1192195E+03  0.7546771E-02  0.1247472E+00
          4   -1    0    0  502    0 -0.00000000000E+00  0.00000000000E+00  0.22004900278E+03  0.22004900278E+03  0.00000000000E+00 0. -1.
         21   -1    0    0  501  502  0.00000000000E+00 -0.00000000000E+00 -0.12785735054E+03  0.12785735054E+03  0.00000000000E+00 0.  1.
         23    2    1    2    0    0 -0.63813329578E+02 -0.36494346834E+02  0.13969406923E+03  0.18145191743E+03  0.89478416271E+02 0.  0.
         24    2    1    2    0    0  0.85274628118E+02  0.45249067874E+02 -0.14338487932E+02  0.12599360711E+03  0.79684104137E+02 0.  0.
        -11    1    4    4    0    0  0.29311621213E+02 -0.13922612365E+02 -0.28666556438E+02  0.43298749765E+02  0.00000000000E+00 0.  1.
         12    1    4    4    0    0  0.55963006904E+02  0.59171680239E+02  0.14328068506E+02  0.82694857344E+02  0.00000000000E+00 0. -1.
        -13    1    3    3    0    0 -0.80053707870E+02 -0.19635560305E+02  0.70696838149E+02  0.10859187031E+03  0.00000000000E+00 0.  1.
         13    1    3    3    0    0  0.16240378292E+02 -0.16858786529E+02  0.68997231076E+02  0.72860047121E+02  0.00000000000E+00 0. -1.
          3    1    1    2  501    0 -0.21461298540E+02 -0.87547210405E+01 -0.33163929059E+02  0.40460828788E+02  0.00000000000E+00 0. -1.
<scales pt_clust_5="13000.00000" pt_clust_6="13000.00000" pt_clust_7="13000.00000" pt_clust_8="13000.00000" pt_clust_9="23.17828"></scales>
<clustering>
<clus scale="   23.178">  2  9  1 -1</clus>
<clus scale="   79.684">  5  6 -1 -1</clus>
<clus scale="   89.478">  7  8 -1 -1</clus>
<clus scale="  112.056">  2  5  1 -1</clus>
<clus scale="   23.178">  2  5  1 -1</clus>
</clustering>
</event>
<event>
 9    2  0.3745229E-005  0.1107938E+03  0.7546771E-02  0.1260085E+00
          2   -1    0    0  502    0 -0.00000000000E+00  0.00000000000E+00  0.48194849565E+03  0.48194849565E+03  0.00000000000E+00 0. -1.
         21   -1    0    0  501  502  0.00000000000E+00 -0.00000000000E+00 -0.76076798335E+02  0.76076798335E+02  0.00000000000E+00 0. -1.
         23    2    1    2    0    0 -0.59170863835E+02 -0.35343488185E+02  0.38421803185E+03  0.40063551812E+03  0.90194063544E+02 0.  0.
         24    2    1    2    0    0  0.10404116574E+02  0.54237039902E+02  0.12514727573E+02  0.10429851368E+03  0.87588009510E+02 0.  0.
        -11    1    4    4    0    0  0.25921648825E+02 -0.16591560763E+02  0.36398267611E+00  0.30778957906E+02  0.00000000000E+00 0.  1.
         12    1    4    4    0    0 -0.15517532251E+02  0.70828600665E+02  0.12150744897E+02  0.73519555771E+02  0.00000000000E+00 0. -1.
        -11    1    3    3    0    0  0.21391254241E+02  0.68933978964E+01  0.70421447303E+02  0.73920801759E+02  0.00000000000E+00 0.  1.
         11    1    3    3    0    0 -0.80562118075E+02 -0.42236886081E+02  0.31379658455E+03  0.32671471636E+03  0.00000000000E+00 0. -1.
          1    1    1    2  501    0  0.48766747260E+02 -0.18893551717E+02  0.91389378934E+01  0.53091262188E+02  0.00000000000E+00 0. -1.
<scales pt_clust_5="13000.00000" pt_clust_6="13000.00000" pt_clust_7="13000.00000" pt_clust_8="13000.00000" pt_clust_9="52.29878"></scales>
<clustering>
<clus scale="   52.299">  2  9  1 -1</clus>
<clus scale="   87.588">  5  6 -1 -1</clus>
<clus scale="   90.194">  7  8 -1 -1</clus>
<clus scale="  108.683">  2  5  1 -1</clus>
<clus scale="   52.299">  2  5  1 -1</clus>
</clustering>
</event>
<event>
 9    2  0.3745229E-005  0.1379195E+03  0.7546771E-02  0.1218425E+00
         21   -1    0    0  501  502  0.00000000000E+00  0.00000000000E+00  0.17118964459E+03  0.17118964459E+03  0.00000000000E+00 0. -1.
         -3   -1    0    0    0  501 -0.00000000000E+00 -0.00000000000E+00 -0.16219112377E+03  0.16219112377E+03  0.00000000000E+00 0.  1.
         23    2    1    2    0    0  0.82265141135E+02  0.75268597023E+02 -0.68168179632E+02  0.15902669307E+03  0.90607247229E+02 0.  0.
         24    2    1    2    0    0 -0.81265139286E+02 -0.40756249685E+02  0.54672803305E+02  0.13314633898E+03  0.80459538965E+02 0.  0.
        -11    1    4    4    0    0 -0.45065399301E+02 -0.54962758384E+02  0.66990848597E+01  0.71390985154E+02  0.00000000000E+00 0.  1.
         12    1    4    4    0    0 -0.36199739986E+02  0.14206508699E+02  0.47973718445E+02  0.61755353824E+02  0.00000000000E+00 0. -1.
        -11    1    3    3    0    0  0.47954943586E+02  0.73719592282E+02 -0.61821542136E+01  0.88161635257E+02  0.00000000000E+00 0. -1.
         11    1    3    3    0    0  0.34310197548E+02  0.15490047416E+01 -0.61986025419E+02  0.70865057812E+02  0.00000000000E+00 0.  1.
         -4    1    1    2    0  502 -0.10000018482E+01 -0.34512347339E+02  0.22493897149E+02  0.41207736306E+02  0.00000000000E+00 0.  1.
<scales pt_clust_5="13000.00000" pt_clust_6="13000.00000" pt_clust_7="13000.00000" pt_clust_8="13000.00000" pt_clust_9="34.52683"></scales>
<clustering>
<clus scale="   34.527">  1  9  2 -1</clus>
<clus scale="   80.460">  5  6 -1 -1</clus>
<clus scale="   90.607">  7  8 -1 -1</clus>
<clus scale="  131.476">  1  5  2 -1</clus>
<clus scale="   34.527">  1  5  2 -1</clus>
</clustering>
</event>
<event>
 9    2  0.3745229E-005  0.1146763E+03  0.7546771E-02  0.1256190E+00
          2   -1    0    0  502    0 -0.00000000000E+00  0.00000000000E+00  0.40539393548E+03  0.40539393548E+03  0.00000000000E+00 0. -1.
         21   -1    0    0  501  502  0.00000000000E+00 -0.00000000000E+00 -0.45697203541E+02  0.45697203541E+02  0.00000000000E+00 0.  1.
         23    2    1    2    0    0 -0.18557806658E+02 -0.51272373136E+02  0.12824481847E+03  0.16676317005E+03  0.91596795709E+02 0.  0.
         24    2    1    2    0    0  0.64757022436E+02  0.58192385410E+02  0.16797033282E+03  0.20551067906E+03  0.80254475419E+02 0.  0.
        -11    1    4    4    0    0 -0.12923490220E+02  0.17103187663E+02  0.77908865611E+01  0.22808628655E+02  0.00000000000E+00 0.  1.
         12    1    4    4    0    0  0.77680512656E+02  0.41089197748E+02  0.16017944626E+03  0.18270205040E+03  0.00000000000E+00 0. -1.
        -11    1    3    3    0    0 -0.52984651202E+02 -0.13658197818E+02  0.55592500116E+02  0.78002856997E+02  0.00000000000E+00 0. -1.
         11    1    3    3    0    0  0.34426844544E+02 -0.37614175318E+02  0.72652318354E+02  0.88760313048E+02  0.00000000000E+00 0.  1.
          1    1    1    2  501    0 -0.46199215778E+02 -0.69200122745E+01  0.63481580657E+02  0.78817289925E+02  0.00000000000E+00 0. -1.
<scales pt_clust_5="13000.00000" pt_clust_6="13000.00000" pt_clust_7="13000.00000" pt_clust_8="13000.00000" pt_clust_9="46.71463"></scales>
<clustering>
<clus scale="   46.715">  2  9  1 -1</clus>
<clus scale="   80.254">  5  6 -1 -1</clus>
<clus scale="   91.597">  7  8 -1 -1</clus>
<clus scale="  105.837">  2  5  1 -1</clus>
<clus scale="   46.715">  2  5  1 -1</clus>
</clustering>
</event>
<event>
 9    2  0.3745229E-005  0.1658658E+03  0.7546771E-02  0.1184522E+00
          2   -1    0    0  502    0 -0.00000000000E+00  0.00000000000E+00  0.18291996612E+03  0.18291996612E+03  0.00000000000E+00 0. -1.
         21   -1    0    0  501  502  0.00000000000E+00 -0.00000000000E+00 -0.60565203474E+03  0.60565203474E+03  0.00000000000E+00 0. -1.
         24    2    1    2    0    0  0.44708861575E+02  0.12709539734E+03 -0.21657767439E+03  0.26783878703E+03  0.81728847189E+02 0.  0.
         23    2    1    2    0    0 -0.13735925949E+03  0.22513455519E+02 -0.28285566602E+03  0.32876970121E+03  0.93315415598E+02 0.  0.
        -11    1    3    3    0    0  0.19996860740E+02  0.78441435112E+00 -0.69856144162E+02  0.72666158716E+02  0.00000000000E+00 0.  1.
         12    1    3    3    0    0  0.24712000835E+02  0.12631098299E+03 -0.14672153023E+03  0.19517262831E+03  0.00000000000E+00 0. -1.
        -13    1    4    4    0    0 -0.22164573038E+02  0.34555653471E+02 -0.30625128191E+02  0.51217769978E+02  0.00000000000E+00 0.  1.
         13    1    4    4    0    0 -0.11519468645E+03 -0.12042197953E+02 -0.25223053782E+03  0.27755193123E+03  0.00000000000E+00 0. -1.
          1    1    1    2  501    0  0.92650397914E+02 -0.14960885286E+03  0.76701271781E+02  0.19196351263E+03  0.00000000000E+00 0. -1.
<scales pt_clust_5="13000.00000" pt_clust_6="13000.00000" pt_clust_7="13000.00000" pt_clust_8="13000.00000" pt_clust_9="137.12666"></scales>
<clustering>
<clus scale="   81.729">  5  6 -1 -1</clus>
<clus scale="   93.315">  7  8 -1 -1</clus>
<clus scale="  157.581">  1  5  2 -1</clus>
<clus scale="  137.127">  2  9  1 -1</clus>
<clus scale="  137.127">  2  5  1 -1</clus>
</clustering>
</event>
<event>
 9    2  0.3745229E-005  0.3045413E+03  0.7546771E-02  0.1083058E+00
         -3   -1    0    0    0  501 -0.00000000000E+00  0.00000000000E+00  0.22433000504E+03  0.22433000504E+03  0.00000000000E+00 0.  1.
         21   -1    0    0  501  502  0.00000000000E+00 -0.00000000000E+00 -0.47741426958E+03  0.47741426958E+03  0.00000000000E+00 0.  1.
         23    2    1    2    0    0 -0.11547366969E+03 -0.25133287921E+03 -0.11669491840E+03  0.31137520519E+03  0.82670610615E+02 0.  0.
         24    2    1    2    0    0  0.15501916252E+03  0.27032877303E+03 -0.12028460147E+03  0.34363521889E+03  0.80673366323E+02 0.  0.
        -11    1    4    4    0    0  0.14748040037E+03  0.19964474462E+03 -0.74770688800E+02  0.25922798547E+03  0.00000000000E+00 0.  1.
         12    1    4    4    0    0  0.75387621525E+01  0.70684028414E+02 -0.45513912665E+02  0.84407233420E+02  0.00000000000E+00 0. -1.
        -13    1    3    3    0    0  0.73344541248E+01 -0.64208538235E+02 -0.31387591294E+02  0.71845051930E+02  0.00000000000E+00 0.  1.
         13    1    3    3    0    0 -0.12280812381E+03 -0.18712434098E+03 -0.85307327109E+02  0.23953015326E+03  0.00000000000E+00 0. -1.
         -4    1    1    2    0  502 -0.39545492836E+02 -0.18995893819E+02 -0.16104744674E+02  0.46733850544E+02  0.00000000000E+00 0.  1.
<scales pt_clust_5="13000.00000" pt_clust_6="13000.00000" pt_clust_7="13000.00000" pt_clust_8="13000.00000" pt_clust_9="43.87131"></scales>
<clustering>
<clus scale="   43.871">  2  9  1 -1</clus>
<clus scale="   80.673">  5  6 -1 -1</clus>
<clus scale="   82.671">  7  8 -1 -1</clus>
<clus scale="  304.005">  2  5  1 -1</clus>
<clus scale="   43.871">  2  5  1 -1</clus>
</clustering>
</event>
<event>
 9    2  0.3745229E-005  0.9947139E+02  0.7546771E-02  0.1285922E+00
         -3   -1    0    0    0  501 -0.00000000000E+00  0.00000000000E+00  0.57680865055E+03  0.57680865055E+03  0.00000000000E+00 0.  1.
         21   -1    0    0  501  502  0.00000000000E+00 -0.00000000000E+00 -0.79793553478E+02  0.79793553478E+02  0.00000000000E+00 0. -1.
         24    2    1    2    0    0 -0.15322963592E+02  0.27714747677E+02  0.33981014945E+03  0.35063052339E+03  0.80423415844E+02 0.  0.
         23    2    1    2    0    0  0.72209544406E+02 -0.49683110802E+02  0.19676691855E+03  0.23328164282E+03  0.89557103778E+02 0.  0.
        -13    1    3    3    0    0 -0.28939863852E+02  0.48562146546E+02  0.17378652550E+03  0.18274997741E+03  0.00000000000E+00 0.  1.
         14    1    3    3    0    0  0.13616900260E+02 -0.20847398868E+02  0.16602362395E+03  0.16788054599E+03  0.00000000000E+00 0. -1.
        -11    1    4    4    0    0  0.42029473080E+02 -0.44631209111E+02  0.19293708739E+03  0.20244293301E+03  0.00000000000E+00 0.  1.
         11    1    4    4    0    0  0.30180071326E+02 -0.50519016904E+01  0.38298311602E+01  0.30838709808E+02  0.00000000000E+00 0. -1.
         -4    1    1    2    0  502 -0.56886580813E+02  0.21968363124E+02 -0.39561970923E+02  0.72690037820E+02  0.00000000000E+00 0.  1.
<scales pt_clust_5="13000.00000" pt_clust_6="13000.00000" pt_clust_7="13000.00000" pt_clust_8="13000.00000" pt_clust_9="60.98108"></scales>
<clustering>
<clus scale="   60.981">  2  9  1 -1</clus>
<clus scale="   80.423">  5  6 -1 -1</clus>
<clus scale="   89.557">  7  8 -1 -1</clus>
<clus scale="   91.335">  1  5  2 -1</clus>
<clus scale="   60.981">  2  5  1 -1</clus>
</clustering>
</event>
<event>
 9    2  0.3745229E-005  0.2909245E+03  0.7546771E-02  0.1129845E+00
          2   -1    0    0  502    0 -0.00000000000E+00  0.00000000000E+00  0.63775913195E+03  0.63775913195E+03  0.00000000000E+00 0. -1.
         21   -1    0    0  501  502  0.00000000000E+00 -0.00000000000E+00 -0.18495360703E+03  0.18495360703E+03  0.00000000000E+00 0.  1.
         24    2    1    2    0    0 -0.64942599058E+02 -0.72648793907E+01  0.25573997520E+02  0.10808926916E+03  0.82212779507E+02 0.  0.
         23    2    1    2    0    0  0.27578129889E+03  0.13406521869E+03  0.18266491012E+03  0.36771697854E+03  0.88433586611E+02 0.  0.
        -13    1    3    3    0    0 -0.67680241220E+02  0.25262271203E+02  0.15047302159E+02  0.73791725147E+02  0.00000000000E+00 0.  1.
         14    1    3    3    0    0  0.27376421622E+01 -0.32527150594E+02  0.10526695360E+02  0.34297544016E+02  0.00000000000E+00 0. -1.
        -13    1    4    4    0    0  0.13805811666E+03  0.28280618149E+02  0.11287929291E+03  0.18055905324E+03  0.00000000000E+00 0. -1.
         13    1    4    4    0    0  0.13772318223E+03  0.10578460054E+03  0.69785617207E+02  0.18715792530E+03  0.00000000000E+00 0.  1.
          1    1    1    2  501    0 -0.21083869983E+03 -0.12680033930E+03  0.24456661728E+03  0.34690649127E+03  0.00000000000E+00 0. -1.
<scales pt_clust_5="13000.00000" pt_clust_6="13000.00000" pt_clust_7="13000.00000" pt_clust_8="13000.00000" pt_clust_9="277.15817"></scales>
<clustering>
<clus scale="   82.213">  5  6 -1 -1</clus>
<clus scale="   88.434">  7  8 -1 -1</clus>
<clus scale="  105.020">  1  5  2 -1</clus>
<clus scale="  277.158">  2  9  1 -1</clus>
<clus scale="  277.158">  2  5  1 -1</clus>
</clustering>
</event>
<event>
 9    2  0.3745229E-005  0.1444449E+03  0.7546771E-02  0.1232759E+00
         21   -1    0    0  501  502  0.00000000000E+00  0.00000000000E+00  0.26877980781E+03  0.26877980781E+03  0.00000000000E+00 0. -1.
         -1   -1    0    0    0  501 -0.00000000000E+00 -0.00000000000E+00 -0.22668542202E+03  0.22668542202E+03  0.00000000000E+00 0.  1.
         24    2    1    2    0    0  0.25127590366E+02 -0.16282231395E+02  0.47095897754E+02  0.97123256127E+02  0.79488341527E+02 0.  0.
         23    2    1    2    0    0 -0.61619720031E+02 -0.89509176813E+02  0.14928411263E+03  0.20774409456E+03  0.95199684392E+02 0.  0.
        -11    1    3    3    0    0  0.48334752668E+02  0.88733443395E+01  0.36763885046E+02  0.61372369996E+02  0.00000000000E+00 0.  1.
         12    1    3    3    0    0 -0.23207162301E+02 -0.25155575734E+02  0.10332012708E+02  0.35750886132E+02  0.00000000000E+00 0. -1.
        -13    1    4    4    0    0  0.47550698363E+00 -0.55688958283E+02  0.11788527988E+03  0.13037800962E+03  0.00000000000E+00 0. -1.
         13    1    4    4    0    0 -0.62095227015E+02 -0.33820218530E+02  0.31398832753E+02  0.77366084932E+02  0.00000000000E+00 0.  1.
         -2    1    1    2    0  502  0.36492129664E+02  0.10579140821E+03 -0.15428562459E+03  0.19059787914E+03  0.00000000000E+00 0.  1.
<scales pt_clust_5="13000.00000" pt_clust_6="13000.00000" pt_clust_7="13000.00000" pt_clust_8="13000.00000" pt_clust_9="108.63408"></scales>
<clustering>
<clus scale="   79.488">  5  6 -1 -1</clus>
<clus scale="   84.941">  2  5  1 -1</clus>
<clus scale="   95.200">  7  8 -1 -1</clus>
<clus scale="  108.634">  1  9  2 -1</clus>
<clus scale="  108.634">  1  5  2 -1</clus>
</clustering>
</event>
<event>
 9    2  0.3745229E-005  0.2133953E+03  0.7546771E-02  0.1138905E+00
         21   -1    0    0  501  502  0.00000000000E+00  0.00000000000E+00  0.21571077336E+03  0.21571077336E+03  0.00000000000E+00 0. -1.
          2   -1    0    0  502    0 -0.00000000000E+00 -0.00000000000E+00 -0.12479375031E+03  0.12479375031E+03  0.00000000000E+00 0. -1.
         24    2    1    2    0    0 -0.29417944336E+01 -0.65051547829E+02  0.54196116055E+00  0.10460534952E+03  0.81863468021E+02 0.  0.
         23    2    1    2    0    0 -0.29182200325E+02 -0.42722558522E+02  0.39707985851E+02  0.11255266372E+03  0.91730911630E+02 0.  0.
        -13    1    3    3    0    0  0.39083117641E+02 -0.36760584714E+02  0.41613342477E+01  0.53815865465E+02  0.00000000000E+00 0.  1.
         14    1    3    3    0    0 -0.42024912074E+02 -0.28290963115E+02 -0.36193730872E+01  0.50789484053E+02  0.00000000000E+00 0. -1.
        -11    1    4    4    0    0 -0.27302406473E+02 -0.19138393454E+02 -0.26278486318E+02  0.42453013395E+02  0.00000000000E+00 0.  1.
         11    1    4    4    0    0 -0.18797938524E+01 -0.23584165068E+02  0.65986472169E+02  0.70099650328E+02  0.00000000000E+00 0. -1.
          1    1    1    2  501    0  0.32123994759E+02  0.10777410635E+03  0.50667076045E+02  0.12334651042E+03  0.00000000000E+00 0. -1.
<scales pt_clust_5="13000.00000" pt_clust_6="13000.00000" pt_clust_7="13000.00000" pt_clust_8="13000.00000" pt_clust_9="112.45981"></scales>
<clustering>
<clus scale="   81.863">  5  6 -1 -1</clus>
<clus scale="   91.731">  7  8 -1 -1</clus>
<clus scale="  101.312">  5  7 -1 -1</clus>
<clus scale="  112.460">  1  9  2 -1</clus>
<clus scale="  112.460">  1  5  2 -1</clus>
</clustering>
</event>
<event>
 9    2  0.3745229E-005  0.1043269E+03  0.7546771E-02  0.1278043E+00
         21   -1    0    0  501  502  0.00000000000E+00  0.00000000000E+00  0.83876832785E+02  0.83876832785E+02  0.00000000000E+00 0.  1.
          2   -1    0    0  502    0 -0.00000000000E+00 -0.00000000000E+00 -0.56497917739E+03  0.56497917739E+03  0.00000000000E+00 0. -1.
         23    2    1    2    0    0 -0.13592696925E+02 -0.38042545632E+02 -0.41939910994E+03  0.43172833858E+03  0.94136859059E+02 0.  0.
         24    2    1    2    0    0 -0.19802206804E+02  0.67487089782E+02 -0.10877214660E+03  0.15233814122E+03  0.80180388577E+02 0.  0.
        -11    1    4    4    0    0  0.26725440625E+02  0.19005361969E+02 -0.12851143172E+02  0.35222220841E+02  0.00000000000E+00 0.  1.
         12    1    4    4    0    0 -0.46527647429E+02  0.48481727813E+02 -0.95921003431E+02  0.11711592038E+03  0.00000000000E+00 0. -1.
        -11    1    3    3    0    0 -0.49053220332E+02 -0.43403392655E+02 -0.29960995946E+03  0.30668583391E+03  0.00000000000E+00 0. -1.
         11    1    3    3    0    0  0.35460523408E+02  0.53608470233E+01 -0.11978915048E+03  0.12504250467E+03  0.00000000000E+00 0.  1.
          1    1    1    2  501    0  0.33394903729E+02 -0.29444544151E+02  0.47068911932E+02  0.64789530372E+02  0.00000000000E+00 0. -1.
<scales pt_clust_5="13000.00000" pt_clust_6="13000.00000" pt_clust_7="13000.00000" pt_clust_8="13000.00000" pt_clust_9="44.52191"></scales>
<clustering>
<clus scale="   44.522">  1  9  2 -1</clus>
<clus scale="   80.180">  5  6 -1 -1</clus>
<clus scale="   91.931">  1  5  2 -1</clus>
<clus scale="   94.137">  7  8 -1 -1</clus>
<clus scale="   44.522">  1  5  2 -1</clus>
</clustering>
</event>
<event>
 9    2  0.3745229E-005  0.9317107E+02  0.7546771E-02  0.1296509E+00
         21   -1    0    0  501  502  0.00000000000E+00  0.00000000000E+00  0.44202201816E+02  0.44202201816E+02  0.00000000000E+00 0.  1.
          2   -1    0    0  502    0 -0.00000000000E+00 -0.00000000000E+00 -0.35030577381E+03  0.35030577381E+03  0.00000000000E+00 0. -1.
         24    2    1    2    0    0 -0.78479782123E+01  0.24247079104E+02 -0.21738021432E+03  0.23598295096E+03  0.88228589240E+02 0.  0.
         23    2    1    2    0    0 -0.25816511574E+02 -0.19789293561E+02 -0.75435481026E+02  0.12205946022E+03  0.90276750174E+02 0.  0.
        -13    1    3    3    0    0 -0.27915427880E+02  0.40202510290E+02 -0.19768473943E+03  0.20365355178E+03  0.00000000000E+00 0.  1.
         14    1    3    3    0    0  0.20067449667E+02 -0.15955431186E+02 -0.19695474888E+02  0.32329399184E+02  0.00000000000E+00 0. -1.
        -13    1    4    4    0    0  0.14776246681E+01 -0.52875705482E+02 -0.45259768064E+02  0.69616594358E+02  0.00000000000E+00 0. -1.
         13    1    4    4    0    0 -0.27294136242E+02  0.33086411921E+02 -0.30175712962E+02  0.52442865861E+02  0.00000000000E+00 0.  1.
          1    1    1    2  501    0  0.33664489787E+02 -0.44577855426E+01 -0.13287876648E+02  0.36465564446E+02  0.00000000000E+00 0. -1.
<scales pt_clust_5="13000.00000" pt_clust_6="13000.00000" pt_clust_7="13000.00000" pt_clust_8="13000.00000" pt_clust_9="33.95835"></scales>
<clustering>
<clus scale="   33.958">  1  9  2 -1</clus>
<clus scale="   88.229">  5  6 -1 -1</clus>
<clus scale="   90.277">  7  8 -1 -1</clus>
<clus scale="   91.188">  2  5  1 -1</clus>
<clus scale="   33.958">  1  5  2 -1</clus>
</clustering>
</event>
<event>
 9    2  0.3745229E-005  0.2039541E+03  0.7546771E-02  0.1177347E+00
         21   -1    0    0  501  502  0.00000000000E+00  0.00000000000E+00  0.10011610665E+03  0.10011610665E+03  0.00000000000E+00 0.  1.
          2   -1    0    0  502    0 -0.00000000000E+00 -0.00000000000E+00 -0.83114666808E+03  0.83114666808E+03  0.00000000000E+00 0. -1.
         23    2    1    2    0    0  0.34596124173E+02 -0.22693841495E+02 -0.27510393933E+03  0.29256683118E+03  0.90560869157E+02 0.  0.
         24    2    1    2    0    0 -0.11486594563E+03 -0.15096663140E+03 -0.85019864989E+02  0.22135552309E+03  0.76057747136E+02 0.  0.
        -13    1    4    4    0    0 -0.12046393384E+03 -0.11079204896E+03 -0.71463558117E+02  0.17858745087E+03  0.00000000000E+00 0.  1.
         14    1    4    4    0    0  0.55979882058E+01 -0.40174582435E+02 -0.13556306873E+02  0.42768072225E+02  0.00000000000E+00 0. -1.
        -11    1    3    3    0    0  0.38927246654E+02  0.28258063953E+02 -0.14521193466E+03  0.15297174470E+03  0.00000000000E+00 0.  1.
         11    1    3    3    0    0 -0.43311224809E+01 -0.50951905449E+02 -0.12989200467E+03  0.13959508647E+03  0.00000000000E+00 0. -1.
          1    1    1    2  501    0  0.80269821457E+02  0.17366047289E+03 -0.37090675711E+03  0.41734042046E+03  0.00000000000E+00 0. -1.
<scales pt_clust_5="13000.00000" pt_clust_6="13000.00000" pt_clust_7="13000.00000" pt_clust_8="13000.00000" pt_clust_9="189.24203"></scales>
<clustering>
<clus scale="   76.058">  5  6 -1 -1</clus>
<clus scale="   90.561">  7  8 -1 -1</clus>
<clus scale="   99.565">  2  7  1 -1</clus>
<clus scale="  189.242">  1  9  2 -1</clus>
<clus scale="  189.242">  1  5  2 -1</clus>
</clustering>
</event>
<event>
 9    2  0.3745229E-005  0.9290760E+02  0.7546771E-02  0.1296436E+00
          2   -1    0    0  502    0 -0.00000000000E+00  0.00000000000E+00  0.16835550667E+02  0.16835550667E+02  0.00000000000E+00 0. -1.
         21   -1    0    0  501  502  0.00000000000E+00 -0.00000000000E+00 -0.72884784042E+03  0.72884784042E+03  0.00000000000E+00 0.  1.
         24    2    1    2    0    0 -0.21579227427E+02  0.41768818389E+02 -0.28377861633E+03  0.29954269409E+03  0.83577659967E+02 0.  0.
         23    2    1    2    0    0 -0.10857428768E+02 -0.37970590750E+02 -0.33727052772E+03  0.34949258748E+03  0.82668073130E+02 0.  0.
        -11    1    3    3    0    0 -0.36896420256E+02  0.25350990143E+01 -0.22016661128E+03  0.22325122458E+03  0.00000000000E+00 0.  1.
         12    1    3    3    0    0  0.15317192829E+02  0.39233719375E+02 -0.63612005059E+02  0.76291469509E+02  0.00000000000E+00 0. -1.
        -13    1    4    4    0    0 -0.18186312767E+02  0.22888450284E+02 -0.85204127923E+02  0.90079778771E+02  0.00000000000E+00 0.  1.
         13    1    4    4    0    0  0.73288839992E+01 -0.60859041034E+02 -0.25206639980E+03  0.25941280871E+03  0.00000000000E+00 0. -1.
          1    1    1    2  501    0  0.32436656195E+02 -0.37982276388E+01 -0.90963145696E+02  0.96648109517E+02  0.00000000000E+00 0. -1.
<scales pt_clust_5="13000.00000" pt_clust_6="13000.00000" pt_clust_7="13000.00000" pt_clust_8="13000.00000" pt_clust_9="32.65830"></scales>
<clustering>
<clus scale="   32.658">  2  9  1 -1</clus>
<clus scale="   82.668">  7  8 -1 -1</clus>
<clus scale="   83.578">  5  6 -1 -1</clus>
<clus scale="   92.090">  2  7  1 -1</clus>
<clus scale="   32.658">  2  5  1 -1</clus>
</clustering>
</event>
<event>
 9    2  0.3745229E-005  0.3910320E+03  0.7546771E-02  0.1062740E+00
          2   -1    0    0  502    0 -0.00000000000E+00  0.00000000000E+00  0.26665238395E+04  0.26665238395E+04  0.00000000000E+00 0. -1.
         21   -1    0    0  501  502  0.00000000000E+00 -0.00000000000E+00 -0.12365067372E+03  0.12365067372E+03  0.00000000000E+00 0.  1.
         24    2    1    2    0    0 -0.16238577681E+03  0.17209462665E+03  0.10770715965E+04  0.11057285704E+04  0.81035463840E+02 0.  0.
         23    2    1    2    0    0  0.35599942393E+03  0.17474661648E+03  0.94927121118E+03  0.10328412290E+04  0.91505202412E+02 0.  0.
        -13    1    3    3    0    0 -0.13025704834E+03  0.16096071803E+03  0.79137862350E+03  0.81801917894E+03  0.00000000000E+00 0.  1.
         14    1    3    3    0    0 -0.32128728476E+02  0.11133908618E+02  0.28569297300E+03  0.28770939146E+03  0.00000000000E+00 0. -1.
        -11    1    4    4    0    0  0.37571306622E+02  0.23760066827E+02  0.49573286786E+02  0.66585693806E+02  0.00000000000E+00 0. -1.
         11    1    4    4    0    0  0.31842811730E+03  0.15098654965E+03  0.89969792440E+03  0.96625553516E+03  0.00000000000E+00 0.  1.
          1    1    1    2  501    0 -0.19361364711E+03 -0.34684124313E+03  0.51653035813E+03  0.65160471388E+03  0.00000000000E+00 0. -1.
<scales pt_clust_5="13000.00000" pt_clust_6="13000.00000" pt_clust_7="13000.00000" pt_clust_8="13000.00000" pt_clust_9="380.17475"></scales>
<clustering>
<clus scale="   81.035">  5  6 -1 -1</clus>
<clus scale="   91.505">  7  8 -1 -1</clus>
<clus scale="  250.105">  1  5  2 -1</clus>
<clus scale="  380.175">  2  9  1 -1</clus>
<clus scale="  380.175">  2  5  1 -1</clus>
</clustering>
</event>
<event>
 9    2  0.3745229E-005  0.1288177E+03  0.7546771E-02  0.1230378E+00
         21   -1    0    0  501  502  0.00000000000E+00  0.00000000000E+00  0.74432201686E+02  0.74432201686E+02  0.00000000000E+00 0. -1.
         -3   -1    0    0    0  501 -0.00000000000E+00 -0.00000000000E+00 -0.27414385829E+03  0.27414385829E+03  0.00000000000E+00 0.  1.
         24    2    1    2    0    0  0.99985874142E+02 -0.53914722256E+01 -0.12125017514E+03  0.18005293731E+03  0.87699556797E+02 0.  0.
         23    2    1    2    0    0 -0.77724610511E+02 -0.11719650401E+02 -0.61917752010E+02  0.13593402387E+03  0.92009703551E+02 0.  0.
        -11    1    3    3    0    0  0.77587819744E+02  0.36098183131E+02 -0.71539033288E+02  0.11153825300E+03  0.00000000000E+00 0.  1.
         12    1    3    3    0    0  0.22398054398E+02 -0.41489655357E+02 -0.49711141848E+02  0.68514684311E+02  0.00000000000E+00 0. -1.
        -13    1    4    4    0    0 -0.25073565610E+02 -0.11422362331E+02 -0.76491375530E+02  0.81302426680E+02  0.00000000000E+00 0.  1.
         13    1    4    4    0    0 -0.52651044901E+02 -0.29728807018E+00  0.14573623519E+02  0.54631597193E+02  0.00000000000E+00 0. -1.
         -4    1    1    2    0  502 -0.22261263631E+02  0.17111122627E+02 -0.16543729461E+02  0.32589098799E+02  0.00000000000E+00 0.  1.
<scales pt_clust_5="13000.00000" pt_clust_6="13000.00000" pt_clust_7="13000.00000" pt_clust_8="13000.00000" pt_clust_9="28.07765"></scales>
<clustering>
<clus scale="   28.078">  1  9  2 -1</clus>
<clus scale="   87.700">  5  6 -1 -1</clus>
<clus scale="   92.010">  7  8 -1 -1</clus>
<clus scale="  125.775">  2  5  1 -1</clus>
<clus scale="   28.078">  1  5  2 -1</clus>
</clustering>
</event>
<event>
 9    2  0.3745229E-005  0.1173344E+03  0.7546771E-02  0.1250043E+00
         21   -1    0    0  501  502  0.00000000000E+00  0.00000000000E+00  0.36841956258E+02  0.36841956258E+02  0.00000000000E+00 0.  1.
          2   -1    0    0  502    0 -0.00000000000E+00 -0.00000000000E+00 -0.11118805299E+04  0.11118805299E+04  0.00000000000E+00 0. -1.
         24    2    1    2    0    0  0.90544872382E+02  0.34284500186E+02 -0.48755295899E+03  0.50372372028E+03  0.81583685167E+02 0.  0.
         23    2    1    2    0    0  0.39275270623E+00 -0.33250525691E+02 -0.66488520737E+02  0.11612383489E+03  0.89209135889E+02 0.  0.
        -13    1    3    3    0    0  0.70341719455E+01  0.38970925126E+02 -0.10714748725E+03  0.11423132935E+03  0.00000000000E+00 0.  1.
         14    1    3    3    0    0  0.83510700436E+02 -0.46864249395E+01 -0.38040547174E+03  0.38949239093E+03  0.00000000000E+00 0. -1.
        -11    1    4    4    0    0 -0.39860936935E+02 -0.11660291616E+02 -0.86491126495E+01  0.42422445044E+02  0.00000000000E+00 0.  1.
         11    1    4    4    0    0  0.40253689641E+02 -0.21590234075E+02 -0.57839408088E+02  0.73701389845E+02  0.00000000000E+00 0. -1.
          1    1    1    2  501    0 -0.90937625088E+02 -0.10339744951E+01 -0.52099709389E+03  0.52887493096E+03  0.00000000000E+00 0. -1.
<scales pt_clust_5="13000.00000" pt_clust_6="13000.00000" pt_clust_7="13000.00000" pt_clust_8="13000.00000" pt_clust_9="90.94355"></scales>
<clustering>
<clus scale="   81.584">  5  6 -1 -1</clus>
<clus scale="   89.209">  7  8 -1 -1</clus>
<clus scale="   90.944">  1  9  2 -1</clus>
<clus scale="  111.647">  2  5  1 -1</clus>
<clus scale="   90.944">  1  5  2 -1</clus>
</clustering>
</event>
<event>
 9    2  0.3745229E-005  0.1346219E+03  0.7546771E-02  0.1223430E+00
         -1   -1    0    0    0  501 -0.00000000000E+00  0.00000000000E+00  0.98238721992E+02  0.98238721992E+02  0.00000000000E+00 0.  1.
         21   -1    0    0  501  502  0.00000000000E+00 -0.00000000000E+00 -0.47654450137E+03  0.47654450137E+03  0.00000000000E+00 0.  1.
         24    2    1    2    0    0 -0.12940130991E+02 -0.10474630501E+03  0.16127792215E+02  0.13357656937E+03  0.80270535066E+02 0.  0.
         23    2    1    2    0    0 -0.38920926403E+02  0.64063483741E+02 -0.32322256265E+03  0.34417228372E+03  0.91448167892E+02 0.  0.
        -13    1    3    3    0    0  0.25259360867E+02 -0.79311922322E+02  0.24840125757E+02  0.86864539263E+02  0.00000000000E+00 0.  1.
         14    1    3    3    0    0 -0.38199491859E+02 -0.25434382687E+02 -0.87123335415E+01  0.46712030106E+02  0.00000000000E+00 0. -1.
        -11    1    4    4    0    0 -0.60339158495E+02  0.48382796537E+02 -0.29682712966E+03  0.30673776088E+03  0.00000000000E+00 0.  1.
         11    1    4    4    0    0  0.21418232092E+02  0.15680687204E+02 -0.26395432995E+02  0.37434522838E+02  0.00000000000E+00 0. -1.
         -2    1    1    2    0  502  0.51861057394E+02  0.40682821267E+02 -0.71211008943E+02  0.97034370277E+02  0.00000000000E+00 0.  1.
<scales pt_clust_5="13000.00000" pt_clust_6="13000.00000" pt_clust_7="13000.00000" pt_clust_8="13000.00000" pt_clust_9="65.91404"></scales>
<clustering>
<clus scale="   65.914">  2  9  1 -1</clus>
<clus scale="   80.271">  5  6 -1 -1</clus>
<clus scale="   91.448">  7  8 -1 -1</clus>
<clus scale="  127.294">  1  5  2 -1</clus>
<clus scale="   65.914">  2  5  1 -1</clus>
</clustering>
</event>
<event>
 9    2  0.3745229E-005  0.2789149E+03  0.7546771E-02  0.1096750E+00
         -1   -1    0    0    0  501 -0.00000000000E+00  0.00000000000E+00  0.21454552799E+03  0.21454552799E+03  0.00000000000E+00 0.  1.
         21   -1    0    0  501  502  0.00000000000E+00 -0.00000000000E+00 -0.67122306216E+03  0.67122306216E+03  0.00000000000E+00 0.  1.
         24    2    1    2    0    0 -0.40011365268E+02 -0.26081404400E+03  0.57624601158E+02  0.28178182846E+03  0.80346308549E+02 0.  0.
         23    2    1    2    0    0  0.70940631635E+02  0.25412563565E+03 -0.41833169033E+03  0.50293390108E+03  0.91261677710E+02 0.  0.
        -11    1    3    3    0    0 -0.36486115962E+02 -0.24591868152E+03  0.73976610473E+02  0.25938344874E+03  0.00000000000E+00 0.  1.
         12    1    3    3    0    0 -0.35252493062E+01 -0.14895362471E+02 -0.16352009314E+02  0.22398379728E+02  0.00000000000E+00 0. -1.
        -11    1    4    4    0    0  0.89154439273E+02  0.15939958592E+03 -0.26799277272E+03  0.32430983374E+03  0.00000000000E+00 0.  1.
         11    1    4    4    0    0 -0.18213807638E+02  0.94726049730E+02 -0.15033891761E+03  0.17862406734E+03  0.00000000000E+00 0. -1.
         -2    1    1    2    0  502 -0.30929266367E+02  0.66884083502E+01 -0.95970444998E+02  0.10105286061E+03  0.00000000000E+00 0.  1.
<scales pt_clust_5="13000.00000" pt_clust_6="13000.00000" pt_clust_7="13000.00000" pt_clust_8="13000.00000" pt_clust_9="31.64418"></scales>
<clustering>
<clus scale="   31.644">  2  9  1 -1</clus>
<clus scale="   80.346">  5  6 -1 -1</clus>
<clus scale="   91.262">  7  8 -1 -1</clus>
<clus scale="  275.536">  1  5  2 -1</clus>
<clus scale="   31.644">  2  5  1 -1</clus>
</clustering>
</event>
<event>
 9    2  0.3745229E-005  0.1263529E+03  0.7546771E-02  0.1236099E+00
         21   -1    0    0  501  502  0.00000000000E+00  0.00000000000E+00  0.32443198685E+02  0.32443198685E+02  0.00000000000E+00 0.  1.
          2   -1    0    0  502    0 -0.00000000000E+00 -0.00000000000E+00 -0.91162567253E+03  0.91162567253E+03  0.00000000000E+00 0. -1.
         24    2    1    2    0    0 -0.80101132953E+02  0.34521867202E+02 -0.57241071922E+03  0.58543223029E+03  0.86422878695E+02 0.  0.
         23    2    1    2    0    0  0.52988982108E+02 -0.50470259791E+02 -0.30364630250E+03  0.32702669944E+03  0.96903590122E+02 0.  0.
        -13    1    3    3    0    0 -0.81232580362E+02 -0.67310816767E+01 -0.38324328660E+03  0.39181558966E+03  0.00000000000E+00 0.  1.
         14    1    3    3    0    0  0.11314474090E+01  0.41252948878E+02 -0.18916743262E+03  0.19361664063E+03  0.00000000000E+00 0. -1.
        -13    1    4    4    0    0  0.17641510615E+02 -0.75811135783E+02 -0.18832210180E+03  0.20377380900E+03  0.00000000000E+00 0.  1.
         13    1    4    4    0    0  0.35347471493E+02  0.25340875992E+02 -0.11532420069E+03  0.12325289044E+03  0.00000000000E+00 0. -1.
          1    1    1    2  501    0  0.27112150845E+02  0.15948392589E+02 -0.31254521205E+01  0.31609941483E+02  0.00000000000E+00 0. -1.
<scales pt_clust_5="13000.00000" pt_clust_6="13000.00000" pt_clust_7="13000.00000" pt_clust_8="13000.00000" pt_clust_9="31.45505"></scales>
<clustering>
<clus scale="   31.455">  1  9  2 -1</clus>
<clus scale="   86.423">  5  6 -1 -1</clus>
<clus scale="   96.904">  7  8 -1 -1</clus>
<clus scale="  118.506">  2  5  1 -1</clus>
<clus scale="   31.455">  1  5  2 -1</clus>
</clustering>
</event>
<event>
 9    2  0.3745229E-005  0.1000389E+03  0.7546771E-02  0.1285097E+00
         21   -1    0    0  501  502  0.00000000000E+00  0.00000000000E+00  0.11563638959E+02  0.11563638959E+02  0.00000000000E+00 0. -1.
          2   -1    0    0  502    0 -0.00000000000E+00 -0.00000000000E+00 -0.20751609103E+04  0.20751609103E+04  0.00000000000E+00 0. -1.
         24    2    1    2    0    0  0.79250919238E+01  0.38791438828E+02 -0.12931107531E+04  0.12962244865E+04  0.80591045951E+02 0.  0.
         23    2    1    2    0    0 -0.64212444094E+02 -0.39451377298E+02 -0.45252255189E+03  0.46759173923E+03  0.90474999227E+02 0.  0.
        -11    1    3    3    0    0  0.20186694014E+02  0.49608800122E+01 -0.82483642285E+02  0.85062707400E+02  0.00000000000E+00 0.  1.
         12    1    3    3    0    0 -0.12261602090E+02  0.33830558816E+02 -0.12106271108E+04  0.12111617791E+04  0.00000000000E+00 0. -1.
        -13    1    4    4    0    0 -0.66417315765E+02 -0.75741529207E+01 -0.40399948146E+03  0.40949262343E+03  0.00000000000E+00 0.  1.
         13    1    4    4    0    0  0.22048716713E+01 -0.31877224378E+02 -0.48523070430E+02  0.58099115802E+02  0.00000000000E+00 0. -1.
          1    1    1    2  501    0  0.56287352170E+02  0.65993846992E+00 -0.31796396631E+03  0.32290832353E+03  0.00000000000E+00 0. -1.
<scales pt_clust_5="13000.00000" pt_clust_6="13000.00000" pt_clust_7="13000.00000" pt_clust_8="13000.00000" pt_clust_9="56.29122"></scales>
<clustering>
<clus scale="   56.291">  1  9  2 -1</clus>
<clus scale="   80.591">  5  6 -1 -1</clus>
<clus scale="   90.475">  7  8 -1 -1</clus>
<clus scale="   91.197">  2  5  1 -1</clus>
<clus scale="   56.291">  1  5  2 -1</clus>
</clustering>
</event>
<event>
 9    2  0.3745229E-005  0.1011097E+03  0.7546771E-02  0.1284137E+00
         21   -1    0    0  501  502  0.00000000000E+00  0.00000000000E+00  0.49842502606E+02  0.49842502606E+02  0.00000000000E+00 0.  1.
          2   -1    0    0  502    0 -0.00000000000E+00 -0.00000000000E+00 -0.10005365372E+04  0.10005365372E+04  0.00000000000E+00 0. -1.
         24    2    1    2    0    0 -0.14576432735E+02 -0.36635792721E+02 -0.85246858362E+03  0.85713687986E+03  0.80164150710E+02 0.  0.
         23    2    1    2    0    0 -0.48269413476E+01  0.71154025565E+02 -0.41299833246E+02  0.12389862905E+03  0.92514860090E+02 0.  0.
        -11    1    3    3    0    0 -0.32805565379E+02 -0.33974430117E+02 -0.25209465098E+03  0.25648036976E+03  0.00000000000E+00 0.  1.
         12    1    3    3    0    0  0.18229132644E+02 -0.26613626040E+01 -0.60037393265E+03  0.60065651010E+03  0.00000000000E+00 0. -1.
        -13    1    4    4    0    0 -0.31531961207E+02  0.40497641540E+00  0.93389219026E+01  0.32888357298E+02  0.00000000000E+00 0. -1.
         13    1    4    4    0    0  0.26705019860E+02  0.70749049149E+02 -0.50638755148E+02  0.91010271751E+02  0.00000000000E+00 0.  1.
          1    1    1    2  501    0  0.19403374082E+02 -0.34518232843E+02 -0.56925617775E+02  0.69343530942E+02  0.00000000000E+00 0. -1.
<scales pt_clust_5="13000.00000" pt_clust_6="13000.00000" pt_clust_7="13000.00000" pt_clust_8="13000.00000" pt_clust_9="39.59797"></scales>
<clustering>
<clus scale="   39.598">  1  9  2 -1</clus>
<clus scale="   80.164">  5  6 -1 -1</clus>
<clus scale="   89.947">  2  5  1 -1</clus>
<clus scale="   92.515">  7  8 -1 -1</clus>
<clus scale="   39.598">  1  5  2 -1</clus>
</clustering>
</event>
<event>
 9    2  0.3745229E-005  0.9584013E+02  0.7546771E-02  0.1299914E+00
          2   -1    0    0  502    0 -0.00000000000E+00  0.00000000000E+00  0.26807553637E+03  0.26807553637E+03  0.00000000000E+00 0. -1.
         21   -1    0    0  501  502  0.00000000000E+00 -0.00000000000E+00 -0.53987546624E+02  0.53987546624E+02  0.00000000000E+00 0. -1.
         24    2    1    2    0    0  0.34353191196E+02 -0.19698658494E+02  0.87976727321E+02  0.12115606759E+03  0.73285123135E+02 0.  0.
         23    2    1    2    0    0 -0.18416375203E+02 -0.29912991395E+02  0.53824122702E+02  0.11179625018E+03  0.91473577824E+02 0.  0.
        -13    1    3    3    0    0  0.34482140293E+02 -0.82425847617E+01  0.31878232015E+01  0.35596634946E+02  0.00000000000E+00 0.  1.
         14    1    3    3    0    0 -0.12894909686E+00 -0.11456073732E+02  0.84788904119E+02  0.85559432647E+02  0.00000000000E+00 0. -1.
        -11    1    4    4    0    0  0.13204354297E+02 -0.52452421123E+02  0.13361378207E+02  0.55714790511E+02  0.00000000000E+00 0. -1.
         11    1    4    4    0    0 -0.31620729500E+02  0.22539429728E+02  0.40462744495E+02  0.56081459670E+02  0.00000000000E+00 0.  1.
          1    1    1    2  501    0 -0.15936815993E+02  0.49611649889E+02  0.72287139723E+02  0.89110765220E+02  0.00000000000E+00 0. -1.
<scales pt_clust_5="13000.00000" pt_clust_6="13000.00000" pt_clust_7="13000.00000" pt_clust_8="13000.00000" pt_clust_9="52.10855"></scales>
<clustering>
<clus scale="   52.109">  2  9  1 -1</clus>
<clus scale="   73.285">  5  6 -1 -1</clus>
<clus scale="   78.668">  1  5  2 -1</clus>
<clus scale="   91.474">  7  8 -1 -1</clus>
<clus scale="   52.109">  2  5  1 -1</clus>
</clustering>
</event>
<event>
 9    2  0.3745229E-005  0.1130262E+03  0.7546771E-02  0.1259208E+00
         -3   -1    0    0    0  501 -0.00000000000E+00  0.00000000000E+00  0.40887270505E+03  0.40887270505E+03  0.00000000000E+00 0.  1.
         21   -1    0    0  501  502  0.00000000000E+00 -0.00000000000E+00 -0.21668248900E+03  0.21668248900E+03  0.00000000000E+00 0.  1.
         23    2    1    2    0    0  0.67900890366E+02 -0.97783816215E+01  0.34656661846E+03  0.36520632759E+03  0.92526174810E+02 0.  0.
         24    2    1    2    0    0 -0.48833023744E+02 -0.59540160938E+01  0.85727482933E+01  0.95535282097E+02  0.81445586722E+02 0.  0.
        -13    1    4    4    0    0  0.28595991399E+01 -0.22973044587E+02  0.29262781622E+02  0.37312845953E+02  0.00000000000E+00 0.  1.
         14    1    4    4    0    0 -0.51692622884E+02  0.17019028493E+02 -0.20690033329E+02  0.58222436144E+02  0.00000000000E+00 0. -1.
        -13    1    3    3    0    0  0.43023751974E+02 -0.50975718458E+02  0.18705789277E+03  0.19859562522E+03  0.00000000000E+00 0.  1.
         13    1    3    3    0    0  0.24877138392E+02  0.41197336836E+02  0.15950872569E+03  0.16661070238E+03  0.00000000000E+00 0. -1.
         -4    1    1    2    0  502 -0.19067866622E+02  0.15732397715E+02 -0.16294915070E+03  0.16481358436E+03  0.00000000000E+00 0.  1.
<scales pt_clust_5="13000.00000" pt_clust_6="13000.00000" pt_clust_7="13000.00000" pt_clust_8="13000.00000" pt_clust_9="24.72027"></scales>
<clustering>
<clus scale="   24.720">  2  9  1 -1</clus>
<clus scale="   81.446">  5  6 -1 -1</clus>
<clus scale="   92.526">  7  8 -1 -1</clus>
<clus scale="  104.150">  2  5  1 -1</clus>
<clus scale="   24.720">  2  5  1 -1</clus>
</clustering>
</event>
<event>
 9    2  0.3745229E-005  0.1152942E+03  0.7546771E-02  0.1255136E+00
          2   -1    0    0  502    0 -0.00000000000E+00  0.00000000000E+00  0.29599589403E+03  0.29599589403E+03  0.00000000000E+00 0. -1.
         21   -1    0    0  501  502  0.00000000000E+00 -0.00000000000E+00 -0.70715253736E+02  0.70715253736E+02  0.00000000000E+00 0.  1.
         24    2    1    2    0    0 -0.69285455397E+02  0.61720906775E+01  0.19388523446E+03  0.22088403910E+03  0.79747762052E+02 0.  0.
         23    2    1    2    0    0  0.70089956615E+02 -0.29292956673E+02  0.21847699360E+02  0.12079951659E+03  0.91348354727E+02 0.  0.
        -11    1    3    3    0    0 -0.28701626966E+02  0.27629034741E+02  0.27821989382E+02  0.48592283795E+02  0.00000000000E+00 0.  1.
         12    1    3    3    0    0 -0.40583828431E+02 -0.21456944063E+02  0.16606324508E+03  0.17229175530E+03  0.00000000000E+00 0. -1.
        -11    1    4    4    0    0  0.77002196749E+02 -0.52972774420E+02  0.11968844622E+02  0.94226887753E+02  0.00000000000E+00 0.  1.
         11    1    4    4    0    0 -0.69122401342E+01  0.23679817747E+02  0.98788547378E+01  0.26572628834E+02  0.00000000000E+00 0. -1.
          1    1    1    2  501    0 -0.80450121736E+00  0.23120865995E+02  0.95477064711E+01  0.25027592082E+02  0.00000000000E+00 0. -1.
<scales pt_clust_5="13000.00000" pt_clust_6="13000.00000" pt_clust_7="13000.00000" pt_clust_8="13000.00000" pt_clust_9="23.13486"></scales>
<clustering>
<clus scale="   23.135">  2  9  1 -1</clus>
<clus scale="   79.748">  5  6 -1 -1</clus>
<clus scale="   91.348">  7  8 -1 -1</clus>
<clus scale="  106.339">  1  5  2 -1</clus>
<clus scale="   23.135">  2  5  1 -1</clus>
</clustering>
</event>
<event>
 9    2  0.3745229E-005  0.1111078E+03  0.7546771E-02  0.1263646E+00
         -1   -1    0    0    0  501 -0.00000000000E+00  0.00000000000E+00  0.76465821493E+02  0.76465821493E+02  0.00000000000E+00 0.  1.
         21   -1    0    0  501  502  0.00000000000E+00 -0.00000000000E+00 -0.29089651838E+03  0.29089651838E+03  0.00000000000E+00 0. -1.
         23    2    1    2    0    0 -0.25728449596E+02 -0.39531729825E+02 -0.27224967484E+02  0.10728378427E+03  0.92433223091E+02 0.  0.
         24    2    1    2    0    0  0.34435658872E+02  0.92282217258E+02 -0.14087259718E+03  0.18933119834E+03  0.79368707976E+02 0.  0.
        -11    1    4    4    0    0  0.26607824487E+02  0.30118902235E+02 -0.60235821002E+01  0.40637521296E+02  0.00000000000E+00 0.  1.
         12    1    4    4    0    0  0.78278343853E+01  0.62163315023E+02 -0.13484901508E+03  0.14869367705E+03  0.00000000000E+00 0. -1.
        -11    1    3    3    0    0 -0.15922708936E+02 -0.67496917401E+02 -0.37023043814E+01  0.69448351861E+02  0.00000000000E+00 0.  1.
         11    1    3    3    0    0 -0.98057406599E+01  0.27965187576E+02 -0.23522663102E+02  0.37835432408E+02  0.00000000000E+00 0. -1.
         -2    1    1    2    0  502 -0.87072092760E+01 -0.52750487433E+02 -0.46333132224E+02  0.70747357262E+02  0.00000000000E+00 0.  1.
<scales pt_clust_5="13000.00000" pt_clust_6="13000.00000" pt_clust_7="13000.00000" pt_clust_8="13000.00000" pt_clust_9="53.46428"></scales>
<clustering>
<clus scale="   53.464">  2  9  1 -1</clus>
<clus scale="   79.369">  5  6 -1 -1</clus>
<clus scale="   92.433">  7  8 -1 -1</clus>
<clus scale="  100.501">  2  5  1 -1</clus>
<clus scale="   53.464">  2  5  1 -1</clus>
</clustering>
</event>
<event>
 9    2  0.3745229E-005  0.1387418E+03  0.7546771E-02  0.1217923E+00
         -3   -1    0    0    0  501 -0.00000000000E+00  0.00000000000E+00  0.30882991263E+03  0.30882991263E+03  0.00000000000E+00 0.  1.
         21   -1    0    0  501  502  0.00000000000E+00 -0.00000000000E+00 -0.16366713945E+03  0.16366713945E+03  0.00000000000E+00 0.  1.
         23    2    1    2    0    0  0.99178623702E+02 -0.27054814325E+02  0.24535864149E+03  0.28169528621E+03  0.92644530034E+02 0.  0.
         24    2    1    2    0    0 -0.10888282743E+03  0.29565126931E+01 -0.74325448248E+02  0.15413872800E+03  0.79813934469E+02 0.  0.
        -11    1    4    4    0    0 -0.28710114429E+02 -0.35280363847E+02 -0.32853340968E+02  0.56109863272E+02  0.00000000000E+00 0.  1.
         12    1    4    4    0    0 -0.80172713000E+02  0.38236876540E+02 -0.41472107280E+02  0.98028864726E+02  0.00000000000E+00 0. -1.
        -13    1    3    3    0    0  0.23255695602E+02 -0.48642113243E+02  0.62584926017E+02  0.82606025950E+02  0.00000000000E+00 0. -1.
         13    1    3    3    0    0  0.75922928100E+02  0.21587298918E+02  0.18277371547E+03  0.19908926026E+03  0.00000000000E+00 0.  1.
         -4    1    1    2    0  502  0.97042037265E+01  0.24098301631E+02 -0.25870420062E+02  0.36663037867E+02  0.00000000000E+00 0.  1.
<scales pt_clust_5="13000.00000" pt_clust_6="13000.00000" pt_clust_7="13000.00000" pt_clust_8="13000.00000" pt_clust_9="25.97883"></scales>
<clustering>
<clus scale="   25.979">  2  9  1 -1</clus>
<clus scale="   79.814">  5  6 -1 -1</clus>
<clus scale="   92.645">  7  8 -1 -1</clus>
<clus scale="  130.524">  2  5  1 -1</clus>
<clus scale="   25.979">  2  5  1 -1</clus>
</clustering>
</event>
<event>
 9    2  0.3745229E-005  0.9328410E+02  0.7546771E-02  0.1299202E+00
          2   -1    0    0  502    0 -0.00000000000E+00  0.00000000000E+00  0.28104214227E+03  0.28104214227E+03  0.00000000000E+00 0. -1.
         21   -1    0    0  501  502  0.00000000000E+00 -0.00000000000E+00 -0.86677944547E+02  0.86677944547E+02  0.00000000000E+00 0.  1.
         23    2    1    2    0    0 -0.24948535078E+02 -0.20356225170E+02  0.21294417838E+03  0.23267758858E+03  0.88072877871E+02 0.  0.
         24    2    1    2    0    0 -0.10423065492E+02  0.42425647800E+02 -0.16358046724E+02  0.93291491870E+02  0.80790722718E+02 0.  0.
        -11    1    4    4    0    0 -0.18141217748E+02  0.29984251865E+02 -0.47412647473E+02  0.58958614992E+02  0.00000000000E+00 0.  1.
         12    1    4    4    0    0  0.77181522556E+01  0.12441395935E+02  0.31054600750E+02  0.34332876879E+02  0.00000000000E+00 0. -1.
        -13    1    3    3    0    0 -0.52859789738E+02 -0.27086752117E+02  0.17684456593E+03  0.18655253954E+03  0.00000000000E+00 0.  1.
         13    1    3    3    0    0  0.27911254660E+02  0.67305269465E+01  0.36099612448E+02  0.46125049036E+02  0.00000000000E+00 0. -1.
          1    1    1    2  501    0  0.35371600571E+02 -0.22069422630E+02 -0.22219339326E+01  0.41751006366E+02  0.00000000000E+00 0. -1.
<scales pt_clust_5="13000.00000" pt_clust_6="13000.00000" pt_clust_7="13000.00000" pt_clust_8="13000.00000" pt_clust_9="41.69184"></scales>
<clustering>
<clus scale="   41.692">  2  9  1 -1</clus>
<clus scale="   80.791">  5  6 -1 -1</clus>
<clus scale="   86.442">  2  5  1 -1</clus>
<clus scale="   88.073">  7  8 -1 -1</clus>
<clus scale="   41.692">  2  5  1 -1</clus>
</clustering>
</event>
<event>
 9    2  0.3745229E-005  0.1191391E+03  0.7546771E-02  0.1249055E+00
          2   -1    0    0  502    0 -0.00000000000E+00  0.00000000000E+00  0.97379875389E+03  0.97379875389E+03  0.00000000000E+00 0. -1.
         21   -1    0    0  501  502  0.00000000000E+00 -0.00000000000E+00 -0.25552997653E+02  0.25552997653E+02  0.00000000000E+00 0.  1.
         24    2    1    2    0    0  0.79922543384E+02  0.74307259441E+01  0.44367674471E+03  0.45742471378E+03  0.77106979940E+02 0.  0.
         23    2    1    2    0    0 -0.53362227645E+02 -0.71563378777E+02  0.34847747491E+03  0.37109666770E+03  0.91144619897E+02 0.  0.
        -11    1    3    3    0    0  0.45083558021E+02  0.41921585553E+02  0.22093136137E+03  0.22934823517E+03  0.00000000000E+00 0.  1.
         12    1    3    3    0    0  0.34838985363E+02 -0.34490859609E+02  0.22274538334E+03  0.22807647861E+03  0.00000000000E+00 0. -1.
        -13    1    4    4    0    0 -0.19133292175E+02  0.21178649275E+02  0.70127750937E+02  0.75713403741E+02  0.00000000000E+00 0. -1.
         13    1    4    4    0    0 -0.34228935470E+02 -0.92742028052E+02  0.27834972397E+03  0.29538326395E+03  0.00000000000E+00 0.  1.
          1    1    1    2  501    0 -0.26560315739E+02  0.64132652833E+02  0.15609153662E+03  0.17083037007E+03  0.00000000000E+00 0. -1.
<scales pt_clust_5="13000.00000" pt_clust_6="13000.00000" pt_clust_7="13000.00000" pt_clust_8="13000.00000" pt_clust_9="69.41504"></scales>
<clustering>
<clus scale="   69.415">  2  9  1 -1</clus>
<clus scale="   77.107">  5  6 -1 -1</clus>
<clus scale="   91.145">  7  8 -1 -1</clus>
<clus scale="  108.776">  1  5  2 -1</clus>
<clus scale="   69.415">  2  5  1 -1</clus>
</clustering>
</event>
<event>
 9    2  0.3745229E-005  0.1904157E+03  0.7546771E-02  0.1158538E+00
         -3   -1    0    0    0  501 -0.00000000000E+00  0.00000000000E+00  0.96909605396E+03  0.96909605396E+03  0.00000000000E+00 0.  1.
         21   -1    0    0  501  502  0.00000000000E+00 -0.00000000000E+00 -0.51971217389E+02  0.51971217389E+02  0.00000000000E+00 0.  1.
         23    2    1    2    0    0 -0.17416073381E+03  0.52146813127E+02  0.64281509018E+03  0.67331338154E+03  0.84192744812E+02 0.  0.
         24    2    1    2    0    0  0.13505441412E+03 -0.61786882317E+02  0.18766597858E+03  0.25220611288E+03  0.79574432205E+02 0.  0.
        -13    1    4    4    0    0  0.35718661793E+02  0.16127887786E+02  0.66691985163E+02  0.77354718342E+02  0.00000000000E+00 0.  1.
         14    1    4    4    0    0  0.99335752326E+02 -0.77914770104E+02  0.12097399341E+03  0.17485139454E+03  0.00000000000E+00 0. -1.
        -11    1    3    3    0    0 -0.50752944633E+02 -0.75734329125E+01  0.88549114166E+02  0.10234336273E+03  0.00000000000E+00 0.  1.
         11    1    3    3    0    0 -0.12340778918E+03  0.59720246040E+02  0.55426597601E+03  0.57097001881E+03  0.00000000000E+00 0. -1.
         -4    1    1    2    0  502  0.39106319696E+02  0.96400691903E+01  0.86643767815E+02  0.95547776925E+02  0.00000000000E+00 0.  1.
<scales pt_clust_5="13000.00000" pt_clust_6="13000.00000" pt_clust_7="13000.00000" pt_clust_8="13000.00000" pt_clust_9="40.27700"></scales>
<clustering>
<clus scale="   40.277">  2  9  1 -1</clus>
<clus scale="   79.574">  5  6 -1 -1</clus>
<clus scale="   84.193">  7  8 -1 -1</clus>
<clus scale="  188.419">  2  5  1 -1</clus>
<clus scale="   40.277">  2  5  1 -1</clus>
</clustering>
</event>
<event>
 9    2  0.3745229E-005  0.4185964E+03  0.7546771E-02  0.1037687E+00
         21   -1    0    0  501  502  0.00000000000E+00  0.00000000000E+00  0.24375894734E+03  0.24375894734E+03  0.00000000000E+00 0. -1.
          2   -1    0    0  502    0 -0.00000000000E+00 -0.00000000000E+00 -0.12297199549E+04  0.12297199549E+04  0.00000000000E+00 0. -1.
         23    2    1    2    0    0  0.23008366582E+03  0.24132167492E+03 -0.25591277482E+03  0.43019040238E+03  0.91639456125E+02 0.  0.
         24    2    1    2    0    0 -0.25370178880E+03 -0.45326901339E+03 -0.45608350982E+03  0.69610532139E+03  0.82055191177E+02 0.  0.
        -11    1    4    4    0    0 -0.28272999914E+02 -0.23777995444E+02 -0.13068400561E+02  0.39185950093E+02  0.00000000000E+00 0.  1.
         12    1    4    4    0    0 -0.22542878889E+03 -0.42949101794E+03 -0.44301510926E+03  0.65691937130E+03  0.00000000000E+00 0. -1.
        -13    1    3    3    0    0  0.21527756800E+02  0.73919287501E+02 -0.73740586944E+02  0.10660759607E+03  0.00000000000E+00 0.  1.
         13    1    3    3    0    0  0.20855590902E+03  0.16740238742E+03 -0.18217218788E+03  0.32358280631E+03  0.00000000000E+00 0. -1.
          1    1    1    2  501    0  0.23618122979E+02  0.21194733847E+03 -0.27396472295E+03  0.34718317850E+03  0.00000000000E+00 0. -1.
<scales pt_clust_5="13000.00000" pt_clust_6="13000.00000" pt_clust_7="13000.00000" pt_clust_8="13000.00000" pt_clust_9="213.25932"></scales>
<clustering>
<clus scale="   82.055">  5  6 -1 -1</clus>
<clus scale="   91.639">  7  8 -1 -1</clus>
<clus scale="  213.259">  1  9  2 -1</clus>
<clus scale="  416.603">  1  5  2 -1</clus>
<clus scale="  213.259">  1  5  2 -1</clus>
</clustering>
</event>
<event>
 9    2  0.3745229E-005  0.9022156E+02  0.7546771E-02  0.1308444E+00
         21   -1    0    0  501  502  0.00000000000E+00  0.00000000000E+00  0.50778964900E+02  0.50778964900E+02  0.00000000000E+00 0.  1.
          2   -1    0    0  502    0 -0.00000000000E+00 -0.00000000000E+00 -0.24201498408E+03  0.24201498408E+03  0.00000000000E+00 0. -1.
         24    2    1    2    0    0 -0.11088344011E+01 -0.19315297366E+02 -0.68583680389E+02  0.10745452450E+03  0.80426633607E+02 0.  0.
         23    2    1    2    0    0  0.11036340554E+02 -0.18774805094E+02 -0.56862595281E+02  0.10867325440E+03  0.90012373374E+02 0.  0.
        -13    1    3    3    0    0  0.22460052501E+02 -0.26251592657E+02  0.57955059335E-01  0.34548566311E+02  0.00000000000E+00 0.  1.
         14    1    3    3    0    0 -0.23568886902E+02  0.69362952910E+01 -0.68641635449E+02  0.72905958187E+02  0.00000000000E+00 0. -1.
        -13    1    4    4    0    0  0.46767334243E+02  0.46730202739E+01 -0.43111340097E+02  0.63777804255E+02  0.00000000000E+00 0.  1.
         13    1    4    4    0    0 -0.35730993689E+02 -0.23447825368E+02 -0.13751255184E+02  0.44895450144E+02  0.00000000000E+00 0. -1.
          1    1    1    2  501    0 -0.99275061532E+01  0.38090102460E+02 -0.65789743506E+02  0.76666170078E+02  0.00000000000E+00 0. -1.
<scales pt_clust_5="13000.00000" pt_clust_6="13000.00000" pt_clust_7="13000.00000" pt_clust_8="13000.00000" pt_clust_9="39.36258"></scales>
<clustering>
<clus scale="   39.363">  1  9  2 -1</clus>
<clus scale="   80.427">  5  6 -1 -1</clus>
<clus scale="   80.661">  2  5  1 -1</clus>
<clus scale="   90.012">  7  8 -1 -1</clus>
<clus scale="   39.363">  1  5  2 -1</clus>
</clustering>
</event>
<event>
 9    2  0.3745229E-005  0.2072255E+03  0.7546771E-02  0.1144510E+00
          2   -1    0    0  502    0 -0.00000000000E+00  0.00000000000E+00  0.14243216979E+04  0.14243216979E+04  0.00000000000E+00 0. -1.
         21   -1    0    0  501  502  0.00000000000E+00 -0.00000000000E+00 -0.47039069370E+02  0.47039069370E+02  0.00000000000E+00 0. -1.
         23    2    1    2    0    0 -0.20215393148E+03  0.51635596277E+02  0.79763728566E+03  0.82935169421E+03  0.89813954396E+02 0.  0.
         24    2    1    2    0    0  0.16110206976E+03  0.26755002535E+02  0.32856721528E+03  0.37579380774E+03  0.81208767602E+02 0.  0.
        -11    1    4    4    0    0  0.18381741742E+02  0.18372376143E+02  0.12380177412E+02  0.28787174703E+02  0.00000000000E+00 0.  1.
         12    1    4    4    0    0  0.14272032802E+03  0.83826263920E+01  0.31618703787E+03  0.34700663303E+03  0.00000000000E+00 0. -1.
        -13    1    3    3    0    0 -0.78870343481E+02  0.62630681345E+02  0.42185028834E+03  0.43370589009E+03  0.00000000000E+00 0.  1.
         13    1    3    3    0    0 -0.12328358800E+03 -0.10995085068E+02  0.37578699732E+03  0.39564580413E+03  0.00000000000E+00 0. -1.
          1    1    1    2  501    0  0.41051861722E+02 -0.78390598812E+02  0.25107812754E+03  0.26621526527E+03  0.00000000000E+00 0. -1.
<scales pt_clust_5="13000.00000" pt_clust_6="13000.00000" pt_clust_7="13000.00000" pt_clust_8="13000.00000" pt_clust_9="88.48926"></scales>
<clustering>
<clus scale="   81.209">  5  6 -1 -1</clus>
<clus scale="   88.489">  2  9  1 -1</clus>
<clus scale="   89.814">  7  8 -1 -1</clus>
<clus scale="  203.644">  2  5  1 -1</clus>
<clus scale="   88.489">  2  5  1 -1</clus>
</clustering>
</event>
<event>
 9    2  0.8849920E-005  0.9830071E+02  0.7546771E-02  0.1287758E+00
         21   -1    0    0  501  502  0.00000000000E+00  0.00000000000E+00  0.10823214692E+03  0.10823214692E+03  0.00000000000E+00 0. -1.
          2   -1    0    0  502    0 -0.00000000000E+00 -0.00000000000E+00 -0.11542621225E+04  0.11542621225E+04  0.00000000000E+00 0. -1.
         24    2    1    2    0    0 -0.20268839005E+02 -0.39545260778E+02 -0.92976851732E+03  0.93446415614E+03  0.82335349755E+02 0.  0.
         23    2    1    2    0    0  0.20713513912E+02  0.11473051771E+02 -0.21027519232E+03  0.22991370880E+03  0.89910936012E+02 0.  0.
        -11    1    3    3    0    0  0.27401236545E+02 -0.10063393889E+02 -0.15878327728E+03  0.16144419718E+03  0.00000000000E+00 0.  1.
         12    1    3    3    0    0 -0.47670075550E+02 -0.29481866888E+02 -0.77098524005E+03  0.77301995896E+03  0.00000000000E+00 0. -1.
        -11    1    4    4    0    0  0.19439140397E+02  0.44760540493E+02 -0.67430167408E+02  0.83235891545E+02  0.00000000000E+00 0.  1.
         11    1    4    4    0    0  0.12743735158E+01 -0.33287488722E+02 -0.14284502491E+03  0.14667781726E+03  0.00000000000E+00 0. -1.
          1    1    1    2  501    0 -0.44467490736E+00  0.28072209006E+02  0.94013734010E+02  0.98116404524E+02  0.00000000000E+00 0. -1.
<scales pt_clust_5="13000.00000" pt_clust_6="13000.00000" pt_clust_7="13000.00000" pt_clust_8="13000.00000" pt_clust_9="28.07573"></scales>
<clustering>
<clus scale="   28.076">  1  9  2 -1</clus>
<clus scale="   82.335">  5  6 -1 -1</clus>
<clus scale="   89.911">  7  8 -1 -1</clus>
<clus scale="   91.423">  2  5  1 -1</clus>
<clus scale="   28.076">  1  5  2 -1</clus>
</clustering>
</event>
<event>
 9    2  0.3745229E-005  0.9972770E+02  0.7546771E-02  0.1286769E+00
         21   -1    0    0  501  502  0.00000000000E+00  0.00000000000E+00  0.14303027932E+03  0.14303027932E+03  0.00000000000E+00 0. -1.
         -1   -1    0    0    0  501 -0.00000000000E+00 -0.00000000000E+00 -0.44350371242E+03  0.44350371242E+03  0.00000000000E+00 0.  1.
         24    2    1    2    0    0 -0.19224223290E+02 -0.20121133467E+02 -0.23344837484E+03  0.24881928260E+03  0.81476750688E+02 0.  0.
         23    2    1    2    0    0  0.67763105375E+02 -0.69632783869E+01 -0.17890973423E+03  0.21278365153E+03  0.92886294265E+02 0.  0.
        -13    1    3    3    0    0 -0.40524546695E+02 -0.11958096242E+02 -0.21601743395E+03  0.22011080555E+03  0.00000000000E+00 0.  1.
         14    1    3    3    0    0  0.21300323406E+02 -0.81630372255E+01 -0.17430940896E+02  0.28708477049E+02  0.00000000000E+00 0. -1.
        -11    1    4    4    0    0  0.83551598232E+02 -0.19552791388E+02 -0.17056599782E+03  0.19093438881E+03  0.00000000000E+00 0.  1.
         11    1    4    4    0    0 -0.15788492857E+02  0.12589513002E+02 -0.83437364097E+01  0.21849262724E+02  0.00000000000E+00 0. -1.
         -2    1    1    2    0  502 -0.48538882086E+02  0.27084411854E+02  0.11188467597E+03  0.12493105761E+03  0.00000000000E+00 0.  1.
<scales pt_clust_5="13000.00000" pt_clust_6="13000.00000" pt_clust_7="13000.00000" pt_clust_8="13000.00000" pt_clust_9="55.58407"></scales>
<clustering>
<clus scale="   55.584">  1  9  2 -1</clus>
<clus scale="   81.477">  5  6 -1 -1</clus>
<clus scale="   89.198">  2  5  1 -1</clus>
<clus scale="   92.886">  7  8 -1 -1</clus>
<clus scale="   55.584">  1  5  2 -1</clus>
</clustering>
</event>
<event>
 9    2  0.3745229E-005  0.2170911E+03  0.7546771E-02  0.1164911E+00
          2   -1    0    0  502    0 -0.00000000000E+00  0.00000000000E+00  0.13579638912E+03  0.13579638912E+03  0.00000000000E+00 0. -1.
         21   -1    0    0  501  502  0.00000000000E+00 -0.00000000000E+00 -0.56938522742E+03  0.56938522742E+03  0.00000000000E+00 0. -1.
         23    2    1    2    0    0 -0.58108200058E+02  0.27813550481E+01 -0.50218426942E+02  0.12061858200E+03  0.92965870461E+02 0.  0.
         24    2    1    2    0    0 -0.83982320526E+02  0.17092363314E+03 -0.24690353319E+03  0.32191051161E+03  0.79981899557E+02 0.  0.
        -13    1    4    4    0    0 -0.36749114072E+02  0.59433722568E+02 -0.15459720648E+03  0.16965600789E+03  0.00000000000E+00 0.  1.
         14    1    4    4    0    0 -0.47233206454E+02  0.11148991057E+03 -0.92306326714E+02  0.15225450372E+03  0.00000000000E+00 0. -1.
        -13    1    3    3    0    0 -0.29991007400E+02 -0.40106122940E+02 -0.47875818764E+02  0.69282433881E+02  0.00000000000E+00 0.  1.
         13    1    3    3    0    0 -0.28117192658E+02  0.42887477988E+02 -0.23426081777E+01  0.51336148124E+02  0.00000000000E+00 0. -1.
          1    1    1    2  501    0  0.14209052058E+03 -0.17370498819E+03 -0.13646687816E+03  0.26265252292E+03  0.00000000000E+00 0. -1.
<scales pt_clust_5="13000.00000" pt_clust_6="13000.00000" pt_clust_7="13000.00000" pt_clust_8="13000.00000" pt_clust_9="201.82045"></scales>
<clustering>
<clus scale="   79.982">  5  6 -1 -1</clus>
<clus scale="   92.966">  7  8 -1 -1</clus>
<clus scale="  109.667">  1  7  2 -1</clus>
<clus scale="  201.820">  2  9  1 -1</clus>
<clus scale="  201.820">  2  5  1 -1</clus>
</clustering>
</event>
<event>
 9    2  0.3745229E-005  0.2263324E+03  0.7546771E-02  0.1129853E+00
          2   -1    0    0  502    0 -0.00000000000E+00  0.00000000000E+00  0.11903983171E+04  0.11903983171E+04  0.00000000000E+00 0. -1.
         21   -1    0    0  501  502  0.00000000000E+00 -0.00000000000E+00 -0.30397128169E+03  0.30397128169E+03  0.00000000000E+00 0.  1.
         23    2    1    2    0    0 -0.12689060037E+03  0.16490376985E+03  0.11202330803E+04  0.11429317307E+04  0.89868287832E+02 0.  0.
         24    2    1    2    0    0  0.15413060961E+03 -0.13423420490E+03 -0.18255262561E+03  0.28579068001E+03  0.81091214566E+02 0.  0.
        -13    1    4    4    0    0  0.15548964792E+03 -0.14124028947E+03 -0.18306295636E+03  0.27863577654E+03  0.00000000000E+00 0.  1.
         14    1    4    4    0    0 -0.13590383056E+01  0.70060845732E+01  0.51033074704E+00  0.71549034678E+01  0.00000000000E+00 0. -1.
        -13    1    3    3    0    0 -0.59463312253E+02  0.30036853685E+02  0.21058097931E+03  0.22086748727E+03  0.00000000000E+00 0.  1.
         13    1    3    3    0    0 -0.67427288117E+02  0.13486691616E+03  0.90965210094E+03  0.92206424343E+03  0.00000000000E+00 0. -1.
          1    1    1    2  501    0 -0.27240009243E+02 -0.30669564955E+02 -0.51253419238E+02  0.65647188071E+02  0.00000000000E+00 0. -1.
<scales pt_clust_5="13000.00000" pt_clust_6="13000.00000" pt_clust_7="13000.00000" pt_clust_8="13000.00000" pt_clust_9="41.02000"></scales>
<clustering>
<clus scale="   41.020">  2  9  1 -1</clus>
<clus scale="   81.091">  5  6 -1 -1</clus>
<clus scale="   89.868">  7  8 -1 -1</clus>
<clus scale="  222.993">  2  5  1 -1</clus>
<clus scale="   41.020">  2  5  1 -1</clus>
</clustering>
</event>
<event>
 9    2  0.3745229E-005  0.1159835E+03  0.7546771E-02  0.1253095E+00
          2   -1    0    0  502    0 -0.00000000000E+00  0.00000000000E+00  0.20140574039E+03  0.20140574039E+03  0.00000000000E+00 0. -1.
         21   -1    0    0  501  502  0.00000000000E+00 -0.00000000000E+00 -0.19269271056E+03  0.19269271056E+03  0.00000000000E+00 0.  1.
         24    2    1    2    0    0 -0.68353984297E+02  0.19815839882E+02  0.14653643868E+03  0.18251335690E+03  0.82299835399E+02 0.  0.
         23    2    1    2    0    0  0.59017800626E+02 -0.48062366273E+02 -0.13738961792E+03  0.18183246806E+03  0.91619034511E+02 0.  0.
        -11    1    3    3    0    0 -0.45297235996E+01  0.40968328538E+02  0.62877216774E+02  0.75182888534E+02  0.00000000000E+00 0.  1.
         12    1    3    3    0    0 -0.63824260697E+02 -0.21152488656E+02  0.83659221906E+02  0.10733046837E+03  0.00000000000E+00 0. -1.
        -11    1    4    4    0    0  0.62881903105E+02 -0.35672928659E+01 -0.11669829971E+03  0.13260977517E+03  0.00000000000E+00 0.  1.
         11    1    4    4    0    0 -0.38641024791E+01 -0.44495073407E+02 -0.20691318215E+02  0.49222692886E+02  0.00000000000E+00 0. -1.
          1    1    1    2  501    0  0.93361836711E+01  0.28246526391E+02 -0.43379092790E+00  0.29752625990E+02  0.00000000000E+00 0. -1.
<scales pt_clust_5="13000.00000" pt_clust_6="13000.00000" pt_clust_7="13000.00000" pt_clust_8="13000.00000" pt_clust_9="29.74946"></scales>
<clustering>
<clus scale="   29.749">  2  9  1 -1</clus>
<clus scale="   82.300">  5  6 -1 -1</clus>
<clus scale="   91.619">  7  8 -1 -1</clus>
<clus scale="  108.772">  1  5  2 -1</clus>
<clus scale="   29.749">  2  5  1 -1</clus>
</clustering>
</event>
<event>
 9    2  0.3745229E-005  0.9207096E+02  0.7546771E-02  0.1304647E+00
         21   -1    0    0  501  502  0.00000000000E+00  0.00000000000E+00  0.33526893743E+03  0.33526893743E+03  0.00000000000E+00 0.  1.
          4   -1    0    0  502    0 -0.00000000000E+00 -0.00000000000E+00 -0.56913940887E+02  0.56913940887E+02  0.00000000000E+00 0. -1.
         23    2    1    2    0    0  0.16126800716E+02 -0.80477107622E+01  0.73060515044E-01  0.92095916396E+02  0.90315076976E+02 0.  0.
         24    2    1    2    0    0 -0.24279388119E+02 -0.17164697058E+02  0.22824841650E+03  0.24346997449E+03  0.79348429917E+02 0.  0.
        -13    1    4    4    0    0  0.22006882505E+02 -0.17571344965E+02  0.14946516931E+03  0.15209500938E+03  0.00000000000E+00 0.  1.
         14    1    4    4    0    0 -0.46286270624E+02  0.40664790627E+00  0.78783247192E+02  0.91374965111E+02  0.00000000000E+00 0. -1.
        -11    1    3    3    0    0  0.36780199779E+02 -0.23365611870E+02  0.29800674028E+02  0.52790293486E+02  0.00000000000E+00 0. -1.
         11    1    3    3    0    0 -0.20653399063E+02  0.15317901108E+02 -0.29727613512E+02  0.39305622910E+02  0.00000000000E+00 0.  1.
          3    1    1    2  501    0  0.81525874029E+01  0.25212407821E+02  0.50033519527E+02  0.56616987431E+02  0.00000000000E+00 0. -1.
<scales pt_clust_5="13000.00000" pt_clust_6="13000.00000" pt_clust_7="13000.00000" pt_clust_8="13000.00000" pt_clust_9="26.49774"></scales>
<clustering>
<clus scale="   26.498">  1  9  2 -1</clus>
<clus scale="   79.348">  5  6 -1 -1</clus>
<clus scale="   81.341">  1  5  2 -1</clus>
<clus scale="   90.315">  7  8 -1 -1</clus>
<clus scale="   26.498">  1  5  2 -1</clus>
</clustering>
</event>
<event>
 9    2  0.3745229E-005  0.1491582E+03  0.7546771E-02  0.1203947E+00
         21   -1    0    0  501  502  0.00000000000E+00  0.00000000000E+00  0.21999098366E+03  0.21999098366E+03  0.00000000000E+00 0. -1.
          2   -1    0    0  502    0 -0.00000000000E+00 -0.00000000000E+00 -0.65582288789E+03  0.65582288789E+03  0.00000000000E+00 0. -1.
         24    2    1    2    0    0  0.82117939035E+02 -0.85842432557E+02 -0.59326735776E+03  0.61034658148E+03  0.80277721735E+02 0.  0.
         23    2    1    2    0    0 -0.75577805527E+01  0.96024208032E+02  0.12601425698E+03  0.18391867035E+03  0.93105938398E+02 0.  0.
        -13    1    3    3    0    0  0.19704662238E+02 -0.54439613775E+02 -0.13656118287E+03  0.14832701011E+03  0.00000000000E+00 0.  1.
         14    1    3    3    0    0  0.62413276797E+02 -0.31402818782E+02 -0.45670617489E+03  0.46201957138E+03  0.00000000000E+00 0. -1.
        -11    1    4    4    0    0 -0.24430874944E+02  0.10719242368E+03  0.12013361292E+03  0.16284707028E+03  0.00000000000E+00 0.  1.
         11    1    4    4    0    0  0.16873094391E+02 -0.11168215644E+02  0.58806440578E+01  0.21071600070E+02  0.00000000000E+00 0. -1.
          1    1    1    2  501    0 -0.74560158482E+02 -0.10181775475E+02  0.31421196556E+02  0.81548619717E+02  0.00000000000E+00 0. -1.
<scales pt_clust_5="13000.00000" pt_clust_6="13000.00000" pt_clust_7="13000.00000" pt_clust_8="13000.00000" pt_clust_9="75.25215"></scales>
<clustering>
<clus scale="   75.252">  1  9  2 -1</clus>
<clus scale="   80.278">  5  6 -1 -1</clus>
<clus scale="   93.106">  7  8 -1 -1</clus>
<clus scale="  141.506">  2  5  1 -1</clus>
<clus scale="   75.252">  1  5  2 -1</clus>
</clustering>
</event>
<event>
 9    2  0.3745229E-005  0.1007121E+03  0.7546771E-02  0.1282989E+00
         21   -1    0    0  501  502  0.00000000000E+00  0.00000000000E+00  0.74370366888E+02  0.74370366888E+02  0.00000000000E+00 0.  1.
         -3   -1    0    0    0  501 -0.00000000000E+00 -0.00000000000E+00 -0.25553577593E+03  0.25553577593E+03  0.00000000000E+00 0.  1.
         24    2    1    2    0    0  0.42194981541E+01  0.17620533661E+02 -0.58895973686E+02  0.10157716212E+03  0.80752069805E+02 0.  0.
         23    2    1    2    0    0 -0.16000903252E+02 -0.77933424225E+02 -0.11571460938E+03  0.16652758898E+03  0.89509326624E+02 0.  0.
        -11    1    3    3    0    0  0.31761246604E+00 -0.32315490242E+02 -0.27738035945E+02  0.42588618496E+02  0.00000000000E+00 0.  1.
         12    1    3    3    0    0  0.39018856881E+01  0.49936023904E+02 -0.31157937740E+02  0.58988543629E+02  0.00000000000E+00 0. -1.
        -13    1    4    4    0    0  0.84364901908E+01 -0.49013098780E+02 -0.11854947537E+03  0.12855907719E+03  0.00000000000E+00 0.  1.
         13    1    4    4    0    0 -0.24437393442E+02 -0.28920325445E+02  0.28348659937E+01  0.37968511787E+02  0.00000000000E+00 0. -1.
         -4    1    1    2    0  502  0.11781405097E+02  0.60312890564E+02 -0.65548259832E+01  0.61801391715E+02  0.00000000000E+00 0.  1.
<scales pt_clust_5="13000.00000" pt_clust_6="13000.00000" pt_clust_7="13000.00000" pt_clust_8="13000.00000" pt_clust_9="61.45280"></scales>
<clustering>
<clus scale="   61.453">  1  9  2 -1</clus>
<clus scale="   80.752">  5  6 -1 -1</clus>
<clus scale="   89.509">  7  8 -1 -1</clus>
<clus scale="   93.016">  2  5  1 -1</clus>
<clus scale="   61.453">  1  5  2 -1</clus>
</clustering>
</event>
<event>
 9    2  0.3745229E-005  0.1903802E+03  0.7546771E-02  0.1159252E+00
          2   -1    0    0  502    0 -0.00000000000E+00  0.00000000000E+00  0.96990441789E+03  0.96990441789E+03  0.00000000000E+00 0. -1.
         21   -1    0    0  501  502  0.00000000000E+00 -0.00000000000E+00 -0.15119585065E+03  0.15119585065E+03  0.00000000000E+00 0. -1.
         24    2    1    2    0    0  0.14780615607E+03 -0.44545040077E+02  0.67318922301E+03  0.69529228119E+03  0.80104344078E+02 0.  0.
         23    2    1    2    0    0 -0.22869590209E+03  0.90893027069E+02  0.18857140491E+03  0.32312027222E+03  0.91017457492E+02 0.  0.
        -13    1    3    3    0    0  0.12565643043E+03 -0.44302749382E+02  0.40853841982E+03  0.42971608369E+03  0.00000000000E+00 0.  1.
         14    1    3    3    0    0  0.22149725633E+02 -0.24229069465E+00  0.26465080319E+03  0.26557619750E+03  0.00000000000E+00 0. -1.
        -13    1    4    4    0    0 -0.85149256360E+02 -0.46577561060E+01  0.34895548977E+02  0.92140055834E+02  0.00000000000E+00 0.  1.
         13    1    4    4    0    0 -0.14354664573E+03  0.95550783175E+02  0.15367585593E+03  0.23098021639E+03  0.00000000000E+00 0. -1.
          1    1    1    2  501    0  0.80889746022E+02 -0.46347986992E+02 -0.43052060687E+02  0.10268771513E+03  0.00000000000E+00 0. -1.
<scales pt_clust_5="13000.00000" pt_clust_6="13000.00000" pt_clust_7="13000.00000" pt_clust_8="13000.00000" pt_clust_9="93.22707"></scales>
<clustering>
<clus scale="   80.104">  5  6 -1 -1</clus>
<clus scale="   91.017">  7  8 -1 -1</clus>
<clus scale="   93.227">  2  9  1 -1</clus>
<clus scale="  185.411">  1  5  2 -1</clus>
<clus scale="   93.227">  2  5  1 -1</clus>
</clustering>
</event>
<event>
 9    2  0.3745229E-005  0.1228589E+03  0.7546771E-02  0.1243944E+00
          2   -1    0    0  502    0 -0.00000000000E+00  0.00000000000E+00  0.60506433088E+03  0.60506433088E+03  0.00000000000E+00 0. -1.
         21   -1    0    0  501  502  0.00000000000E+00 -0.00000000000E+00 -0.55755664296E+02  0.55755664296E+02  0.00000000000E+00 0.  1.
         24    2    1    2    0    0  0.46352316455E+02  0.67719535731E+02  0.14732365608E+03  0.18655176366E+03  0.79767337447E+02 0.  0.
         23    2    1    2    0    0 -0.87048194392E+02 -0.42337355774E+01  0.10342601188E+03  0.16633304847E+03  0.96821642283E+02 0.  0.
        -13    1    3    3    0    0  0.44865962951E+02  0.59678258797E+01  0.31045816116E+02  0.54885446847E+02  0.00000000000E+00 0.  1.
         14    1    3    3    0    0  0.14863535039E+01  0.61751709851E+02  0.11627783996E+03  0.13166631681E+03  0.00000000000E+00 0. -1.
        -13    1    4    4    0    0 -0.19648019900E+02  0.41542209336E+02  0.21307299191E+02  0.50653734722E+02  0.00000000000E+00 0.  1.
         13    1    4    4    0    0 -0.67400174492E+02 -0.45775944913E+02  0.82118712692E+02  0.11567931374E+03  0.00000000000E+00 0. -1.
          1    1    1    2  501    0  0.40695877936E+02 -0.63485800154E+02  0.29855899862E+03  0.30793518305E+03  0.00000000000E+00 0. -1.
<scales pt_clust_5="13000.00000" pt_clust_6="13000.00000" pt_clust_7="13000.00000" pt_clust_8="13000.00000" pt_clust_9="75.40959"></scales>
<clustering>
<clus scale="   75.410">  2  9  1 -1</clus>
<clus scale="   79.767">  5  6 -1 -1</clus>
<clus scale="   96.822">  7  8 -1 -1</clus>
<clus scale="  109.921">  1  5  2 -1</clus>
<clus scale="   75.410">  2  5  1 -1</clus>
</clustering>
</event>
<event>
 9    2  0.3745229E-005  0.9146519E+02  0.7546771E-02  0.1303100E+00
         -3   -1    0    0    0  501 -0.00000000000E+00  0.00000000000E+00  0.37222255507E+03  0.37222255507E+03  0.00000000000E+00 0.  1.
         21   -1    0    0  501  502  0.00000000000E+00 -0.00000000000E+00 -0.33733833936E+02  0.33733833936E+02  0.00000000000E+00 0.  1.
         24    2    1    2    0    0  0.25567028001E+02 -0.19747268130E+02  0.15617039374E+03  0.18040748598E+03  0.84344778117E+02 0.  0.
         23    2    1    2    0    0  0.68361148946E+01 -0.56768805650E+01  0.13542625064E+03  0.16313722248E+03  0.90523613257E+02 0.  0.
        -11    1    3    3    0    0  0.28030292302E+02 -0.48214530028E+02  0.69274169526E+02  0.88933957271E+02  0.00000000000E+00 0.  1.
         12    1    3    3    0    0 -0.24632643012E+01  0.28467261898E+02  0.86896224218E+02  0.91473528708E+02  0.00000000000E+00 0. -1.
        -13    1    4    4    0    0  0.41159263991E+02  0.22035977891E+02  0.64830919019E+02  0.79891910697E+02  0.00000000000E+00 0. -1.
         13    1    4    4    0    0 -0.34323149096E+02 -0.27712858456E+02  0.70595331622E+02  0.83245311787E+02  0.00000000000E+00 0.  1.
         -4    1    1    2    0  502 -0.32403142895E+02  0.25424148695E+02  0.46892076749E+02  0.62411680543E+02  0.00000000000E+00 0.  1.
<scales pt_clust_5="13000.00000" pt_clust_6="13000.00000" pt_clust_7="13000.00000" pt_clust_8="13000.00000" pt_clust_9="41.18678"></scales>
<clustering>
<clus scale="   41.187">  2  9  1 -1</clus>
<clus scale="   84.345">  5  6 -1 -1</clus>
<clus scale="   85.355">  1  5  2 -1</clus>
<clus scale="   90.524">  7  8 -1 -1</clus>
<clus scale="   41.187">  2  5  1 -1</clus>
</clustering>
</event>
<event>
 9    2  0.3745229E-005  0.1430330E+03  0.7546771E-02  0.1226152E+00
         -1   -1    0    0    0  501 -0.00000000000E+00  0.00000000000E+00  0.11803293952E+03  0.11803293952E+03  0.00000000000E+00 0.  1.
         21   -1    0    0  501  502  0.00000000000E+00 -0.00000000000E+00 -0.53742661188E+03  0.53742661188E+03  0.00000000000E+00 0.  1.
         24    2    1    2    0    0  0.47676632451E+02  0.23807364869E+01 -0.36815142121E+03  0.38156487308E+03  0.88190443037E+02 0.  0.
         23    2    1    2    0    0  0.42037281343E+02  0.54274240853E+02  0.42484513565E+02  0.13232109600E+03  0.10483850586E+03 0.  0.
        -11    1    3    3    0    0  0.52910809423E+02 -0.34378335223E+02 -0.23768904619E+03  0.24592174846E+03  0.00000000000E+00 0.  1.
         12    1    3    3    0    0 -0.52341769723E+01  0.36759071710E+02 -0.13046237502E+03  0.13564312462E+03  0.00000000000E+00 0. -1.
        -11    1    4    4    0    0  0.68246507606E+02  0.47400123992E+02  0.57779230038E+02  0.10120670422E+03  0.00000000000E+00 0.  1.
         11    1    4    4    0    0 -0.26209226263E+02  0.68741168607E+01 -0.15294716473E+02  0.31114391781E+02  0.00000000000E+00 0. -1.
         -2    1    1    2    0  502 -0.89713913794E+02 -0.56654977340E+02 -0.93726764722E+02  0.14157358232E+03  0.00000000000E+00 0.  1.
<scales pt_clust_5="13000.00000" pt_clust_6="13000.00000" pt_clust_7="13000.00000" pt_clust_8="13000.00000" pt_clust_9="97.30012"></scales>
<clustering>
<clus scale="   88.190">  5  6 -1 -1</clus>
<clus scale="  100.281">  1  5  2 -1</clus>
<clus scale="   97.300">  2  9  1 -1</clus>
<clus scale="  104.839">  7  8 -1 -1</clus>
<clus scale="   97.300">  2  5  1 -1</clus>
</clustering>
</event>
<event>
 9    2  0.3745229E-005  0.2112552E+03  0.7546771E-02  0.1140576E+00
         -1   -1    0    0    0  501 -0.00000000000E+00  0.00000000000E+00  0.18341314366E+03  0.18341314366E+03  0.00000000000E+00 0.  1.
         21   -1    0    0  501  502  0.00000000000E+00 -0.00000000000E+00 -0.15057030874E+03  0.15057030874E+03  0.00000000000E+00 0.  1.
         24    2    1    2    0    0 -0.67290044257E+02 -0.26940313974E+02  0.21319956734E+02  0.11112372163E+03  0.81487486037E+02 0.  0.
         23    2    1    2    0    0 -0.22385394212E+02 -0.42348256807E+02  0.34161502146E+02  0.10729547332E+03  0.89726415500E+02 0.  0.
        -13    1    3    3    0    0 -0.31136730720E+02 -0.54827224853E+02  0.16736964264E+02  0.65235316798E+02  0.00000000000E+00 0.  1.
         14    1    3    3    0    0 -0.36153313537E+02  0.27886910878E+02  0.45829924699E+01  0.45888404832E+02  0.00000000000E+00 0. -1.
        -11    1    4    4    0    0  0.15158093752E+02 -0.18108244827E+02  0.53592703124E+02  0.58564956801E+02  0.00000000000E+00 0. -1.
         11    1    4    4    0    0 -0.37543487964E+02 -0.24240011980E+02 -0.19431200978E+02  0.48730516524E+02  0.00000000000E+00 0.  1.
         -2    1    1    2    0  502  0.89675438469E+02  0.69288570781E+02 -0.22638623963E+02  0.11556425745E+03  0.00000000000E+00 0.  1.
<scales pt_clust_5="13000.00000" pt_clust_6="13000.00000" pt_clust_7="13000.00000" pt_clust_8="13000.00000" pt_clust_9="113.32515"></scales>
<clustering>
<clus scale="   81.487">  5  6 -1 -1</clus>
<clus scale="   89.726">  7  8 -1 -1</clus>
<clus scale="   96.945">  5  7 -1 -1</clus>
<clus scale="  113.325">  2  9  1 -1</clus>
<clus scale="  113.325">  2  5  1 -1</clus>
</clustering>
</event>
<event>
 9    2  0.3745229E-005  0.1027111E+03  0.7546771E-02  0.1280497E+00
         21   -1    0    0  501  502  0.00000000000E+00  0.00000000000E+00  0.25053257648E+03  0.25053257648E+03  0.00000000000E+00 0. -1.
         -1   -1    0    0    0  501 -0.00000000000E+00 -0.00000000000E+00 -0.39860250215E+03  0.39860250215E+03  0.00000000000E+00 0.  1.
         23    2    1    2    0    0  0.24489129834E+02  0.41507031480E+02 -0.37632184395E+03  0.39027457532E+03  0.91507173294E+02 0.  0.
         24    2    1    2    0    0 -0.28403116760E+01 -0.20225910402E+02  0.11192908470E+03  0.13864170673E+03  0.79222774632E+02 0.  0.
        -13    1    4    4    0    0 -0.36902285723E+02 -0.16261697031E+02  0.31380950833E+02  0.51097803838E+02  0.00000000000E+00 0.  1.
         14    1    4    4    0    0  0.34061974047E+02 -0.39642133713E+01  0.80548133866E+02  0.87543902889E+02  0.00000000000E+00 0. -1.
        -13    1    3    3    0    0  0.39219851940E+02 -0.87633562040E+01 -0.81893354819E+02  0.91222336967E+02  0.00000000000E+00 0. -1.
         13    1    3    3    0    0 -0.14730722106E+02  0.50270387684E+02 -0.29442848913E+03  0.29905223835E+03  0.00000000000E+00 0.  1.
         -2    1    1    2    0  502 -0.21648818158E+02 -0.21281121077E+02  0.11632283358E+03  0.12021879659E+03  0.00000000000E+00 0.  1.
<scales pt_clust_5="13000.00000" pt_clust_6="13000.00000" pt_clust_7="13000.00000" pt_clust_8="13000.00000" pt_clust_9="30.35716"></scales>
<clustering>
<clus scale="   30.357">  1  9  2 -1</clus>
<clus scale="   79.223">  5  6 -1 -1</clus>
<clus scale="   91.507">  7  8 -1 -1</clus>
<clus scale="   91.936">  1  5  2 -1</clus>
<clus scale="   30.357">  1  5  2 -1</clus>
</clustering>
</event>
<event>
 9    2  0.3745229E-005  0.9623759E+02  0.7546771E-02  0.1294044E+00
          2   -1    0    0  502    0 -0.00000000000E+00  0.00000000000E+00  0.35585025712E+03  0.35585025712E+03  0.00000000000E+00 0. -1.
         21   -1    0    0  501  502  0.00000000000E+00 -0.00000000000E+00 -0.61007065329E+02  0.61007065329E+02  0.00000000000E+00 0.  1.
         24    2    1    2    0    0 -0.10581970888E+02 -0.19151551953E+02  0.19716765536E+03  0.21417817101E+03  0.80736884810E+02 0.  0.
         23    2    1    2    0    0  0.62270140526E+02  0.45243809799E+02  0.58362089174E+02  0.13269329618E+03  0.90976945834E+02 0.  0.
        -11    1    3    3    0    0 -0.63693699020E+01  0.29876634501E+02  0.46141396911E+02  0.55337244880E+02  0.00000000000E+00 0.  1.
         12    1    3    3    0    0 -0.42126009858E+01 -0.49028186453E+02  0.15102625845E+03  0.15884092613E+03  0.00000000000E+00 0. -1.
        -11    1    4    4    0    0  0.35150669671E+02  0.22419669216E+02 -0.20331543248E+02  0.46385157075E+02  0.00000000000E+00 0.  1.
         11    1    4    4    0    0  0.27119470855E+02  0.22824140583E+02  0.78693632422E+02  0.86308139110E+02  0.00000000000E+00 0. -1.
          1    1    1    2  501    0 -0.51688169638E+02 -0.26092257847E+02  0.39313447261E+02  0.69985855254E+02  0.00000000000E+00 0. -1.
<scales pt_clust_5="13000.00000" pt_clust_6="13000.00000" pt_clust_7="13000.00000" pt_clust_8="13000.00000" pt_clust_9="57.90054"></scales>
<clustering>
<clus scale="   57.901">  2  9  1 -1</clus>
<clus scale="   80.737">  5  6 -1 -1</clus>
<clus scale="   86.622">  1  5  2 -1</clus>
<clus scale="   90.977">  7  8 -1 -1</clus>
<clus scale="   57.901">  2  5  1 -1</clus>
</clustering>
</event>
<event>
 9    2  0.3745229E-005  0.3645137E+03  0.7546771E-02  0.1056811E+00
          2   -1    0    0  502    0 -0.00000000000E+00  0.00000000000E+00  0.17758663695E+04  0.17758663695E+04  0.00000000000E+00 0. -1.
         21   -1    0    0  501  502  0.00000000000E+00 -0.00000000000E+00 -0.14932221362E+03  0.14932221362E+03  0.00000000000E+00 0. -1.
         24    2    1    2    0    0 -0.20105249972E+03 -0.88558033947E+02  0.12478395966E+04  0.12696029426E+04  0.80767196595E+02 0.  0.
         23    2    1    2    0    0 -0.44907712637E+02 -0.22209962727E+02  0.36669321997E+03  0.38556666454E+03  0.10810989842E+03 0.  0.
        -11    1    3    3    0    0 -0.40588761591E+02 -0.55664546335E+02  0.30957942790E+03  0.31715203210E+03  0.00000000000E+00 0.  1.
         12    1    3    3    0    0 -0.16046373813E+03 -0.32893487612E+02  0.93826016865E+03  0.95245091047E+03  0.00000000000E+00 0. -1.
        -13    1    4    4    0    0 -0.16444861825E+02  0.42382168308E+02  0.18845738836E+03  0.19386301581E+03  0.00000000000E+00 0.  1.
         13    1    4    4    0    0 -0.28462850812E+02 -0.64592131034E+02  0.17823583161E+03  0.19170364873E+03  0.00000000000E+00 0. -1.
          1    1    1    2  501    0  0.24596021235E+03  0.11076799667E+03  0.12011339394E+02  0.27001897604E+03  0.00000000000E+00 0. -1.
<scales pt_clust_5="13000.00000" pt_clust_6="13000.00000" pt_clust_7="13000.00000" pt_clust_8="13000.00000" pt_clust_9="269.75169"></scales>
<clustering>
<clus scale="   80.767">  5  6 -1 -1</clus>
<clus scale="  108.110">  7  8 -1 -1</clus>
<clus scale="  108.138">  5  7 -1 -1</clus>
<clus scale="  269.752">  2  9  1 -1</clus>
<clus scale="  269.752">  2  5  1 -1</clus>
</clustering>
</event>
<event>
 9    2  0.3745229E-005  0.9969840E+02  0.7546771E-02  0.1285791E+00
         21   -1    0    0  501  502  0.00000000000E+00  0.00000000000E+00  0.21524683979E+02  0.21524683979E+02  0.00000000000E+00 0. -1.
          2   -1    0    0  502    0 -0.00000000000E+00 -0.00000000000E+00 -0.11639963163E+04  0.11639963163E+04  0.00000000000E+00 0. -1.
         24    2    1    2    0    0  0.42895256479E+02 -0.22456687031E+01 -0.91149132861E+03  0.91599779493E+03  0.79940428654E+02 0.  0.
         23    2    1    2    0    0 -0.42256245141E+02  0.33452669248E+02 -0.19879492507E+03  0.22468813183E+03  0.89781195231E+02 0.  0.
        -11    1    3    3    0    0  0.64348921183E+01 -0.24394764582E+02 -0.91994067619E+02  0.95390884536E+02  0.00000000000E+00 0.  1.
         12    1    3    3    0    0  0.36460364361E+02  0.22149095879E+02 -0.81949726099E+03  0.82060691040E+03  0.00000000000E+00 0. -1.
        -13    1    4    4    0    0 -0.56639975201E+02 -0.10841441943E+02 -0.12052536317E+03  0.13361132744E+03  0.00000000000E+00 0.  1.
         13    1    4    4    0    0  0.14383730060E+02  0.44294111191E+02 -0.78269561904E+02  0.91076804386E+02  0.00000000000E+00 0. -1.
          1    1    1    2  501    0 -0.63901133771E+00 -0.31207000545E+02 -0.32185378608E+02  0.44835073487E+02  0.00000000000E+00 0. -1.
<scales pt_clust_5="13000.00000" pt_clust_6="13000.00000" pt_clust_7="13000.00000" pt_clust_8="13000.00000" pt_clust_9="31.21354"></scales>
<clustering>
<clus scale="   31.214">  1  9  2 -1</clus>
<clus scale="   79.940">  5  6 -1 -1</clus>
<clus scale="   89.781">  7  8 -1 -1</clus>
<clus scale="   90.937">  2  5  1 -1</clus>
<clus scale="   31.214">  1  5  2 -1</clus>
</clustering>
</event>
<event>
 9    2  0.3745229E-005  0.1068029E+03  0.7546771E-02  0.1270875E+00
         21   -1    0    0  501  502  0.00000000000E+00  0.00000000000E+00  0.16475090510E+02  0.16475090510E+02  0.00000000000E+00 0.  1.
          2   -1    0    0  502    0 -0.00000000000E+00 -0.00000000000E+00 -0.86095097714E+03  0.86095097714E+03  0.00000000000E+00 0. -1.
         23    2    1    2    0    0  0.56699196438E+02  0.30235898810E+02 -0.52406486883E+03  0.53579306383E+03  0.91110987560E+02 0.  0.
         24    2    1    2    0    0 -0.32459095189E+02 -0.28573854509E+02 -0.22147580397E+03  0.23975797530E+03  0.81008005495E+02 0.  0.
        -11    1    4    4    0    0 -0.73516365237E+01 -0.44279161546E+02 -0.56569514428E+02  0.72213576767E+02  0.00000000000E+00 0.  1.
         12    1    4    4    0    0 -0.25107458666E+02  0.15705307037E+02 -0.16490628954E+03  0.16754439854E+03  0.00000000000E+00 0. -1.
        -11    1    3    3    0    0  0.33120958024E+02 -0.30356316701E+02 -0.17175162862E+03  0.17753063330E+03  0.00000000000E+00 0.  1.
         11    1    3    3    0    0  0.23578238415E+02  0.60592215511E+02 -0.35231324021E+03  0.35826243054E+03  0.00000000000E+00 0. -1.
          1    1    1    2  501    0 -0.24240101249E+02 -0.16620443015E+01 -0.98935213826E+02  0.10187502851E+03  0.00000000000E+00 0. -1.
<scales pt_clust_5="13000.00000" pt_clust_6="13000.00000" pt_clust_7="13000.00000" pt_clust_8="13000.00000" pt_clust_9="24.29703"></scales>
<clustering>
<clus scale="   24.297">  1  9  2 -1</clus>
<clus scale="   81.008">  5  6 -1 -1</clus>
<clus scale="   91.111">  7  8 -1 -1</clus>
<clus scale="   98.326">  1  5  2 -1</clus>
<clus scale="   24.297">  1  5  2 -1</clus>
</clustering>
</event>
<event>
 9    2  0.3745229E-005  0.1509817E+03  0.7546771E-02  0.1201446E+00
         21   -1    0    0  501  502  0.00000000000E+00  0.00000000000E+00  0.48560750110E+02  0.48560750110E+02  0.00000000000E+00 0. -1.
          2   -1    0    0  502    0 -0.00000000000E+00 -0.00000000000E+00 -0.10764433468E+04  0.10764433468E+04  0.00000000000E+00 0. -1.
         23    2    1    2    0    0  0.67787403952E+02  0.73514158906E+02 -0.39952893055E+03  0.42251521477E+03  0.94320075667E+02 0.  0.
         24    2    1    2    0    0 -0.99928700243E+02 -0.13901242472E+03 -0.23432949702E+03  0.30176686926E+03  0.82720800592E+02 0.  0.
        -13    1    4    4    0    0 -0.59766498443E+01 -0.47861485375E+02 -0.23619186305E+02  0.53705754695E+02  0.00000000000E+00 0.  1.
         14    1    4    4    0    0 -0.93952050399E+02 -0.91150939346E+02 -0.21071031071E+03  0.24806111456E+03  0.00000000000E+00 0. -1.
        -13    1    3    3    0    0  0.65078699698E+02  0.63735471574E+01 -0.25299980210E+03  0.26131352648E+03  0.00000000000E+00 0.  1.
         13    1    3    3    0    0  0.27087042546E+01  0.67140611749E+02 -0.14652912845E+03  0.16120168829E+03  0.00000000000E+00 0. -1.
          1    1    1    2  501    0  0.32141296291E+02  0.65498265815E+02 -0.39402416913E+03  0.40072201289E+03  0.00000000000E+00 0. -1.
<scales pt_clust_5="13000.00000" pt_clust_6="13000.00000" pt_clust_7="13000.00000" pt_clust_8="13000.00000" pt_clust_9="72.95952"></scales>
<clustering>
<clus scale="   72.960">  1  9  2 -1</clus>
<clus scale="   82.721">  5  6 -1 -1</clus>
<clus scale="   94.320">  7  8 -1 -1</clus>
<clus scale="  144.021">  1  5  2 -1</clus>
<clus scale="   72.960">  1  5  2 -1</clus>
</clustering>
</event>
<event>
 9    2  0.3745229E-005  0.9067544E+02  0.7546771E-02  0.1305531E+00
         21   -1    0    0  501  502  0.00000000000E+00  0.00000000000E+00  0.20831405255E+03  0.20831405255E+03  0.00000000000E+00 0. -1.
          4   -1    0    0  502    0 -0.00000000000E+00 -0.00000000000E+00 -0.79929173565E+02  0.79929173565E+02  0.00000000000E+00 0. -1.
         23    2    1    2    0    0  0.19667488625E+02 -0.46287046968E+01 -0.29427306934E+02  0.95097636513E+02  0.88143967809E+02 0.  0.
         24    2    1    2    0    0 -0.18835494306E+02  0.26319024975E+02  0.14043545458E+03  0.16534067996E+03  0.81042930750E+02 0.  0.
        -11    1    4    4    0    0  0.23303041813E+02  0.36861538404E+02  0.76214384222E+02  0.87809094823E+02  0.00000000000E+00 0.  1.
         12    1    4    4    0    0 -0.42138536119E+02 -0.10542513429E+02  0.64221070360E+02  0.77531585137E+02  0.00000000000E+00 0. -1.
        -13    1    3    3    0    0  0.54272141905E+02 -0.60388263095E+01 -0.25418082937E+02  0.60232978927E+02  0.00000000000E+00 0. -1.
         13    1    3    3    0    0 -0.34604653280E+02  0.14101216127E+01 -0.40092239965E+01  0.34864657587E+02  0.00000000000E+00 0.  1.
          3    1    1    2  501    0 -0.83199431917E+00 -0.21690320278E+02  0.17376731337E+02  0.27804909644E+02  0.00000000000E+00 0. -1.
<scales pt_clust_5="13000.00000" pt_clust_6="13000.00000" pt_clust_7="13000.00000" pt_clust_8="13000.00000" pt_clust_9="21.70627"></scales>
<clustering>
<clus scale="   21.706">  1  9  2 -1</clus>
<clus scale="   81.043">  5  6 -1 -1</clus>
<clus scale="   83.789">  1  5  2 -1</clus>
<clus scale="   88.144">  7  8 -1 -1</clus>
<clus scale="   21.706">  1  5  2 -1</clus>
</clustering>
</event>
<event>
 9    2  0.3745229E-005  0.1410515E+03  0.7546771E-02  0.1230195E+00
         21   -1    0    0  501  502  0.00000000000E+00  0.00000000000E+00  0.14892175928E+03  0.14892175928E+03  0.00000000000E+00 0. -1.
          2   -1    0    0  502    0 -0.00000000000E+00 -0.00000000000E+00 -0.38244520806E+03  0.38244520806E+03  0.00000000000E+00 0. -1.
         23    2    1    2    0    0 -0.16322958084E+02  0.32838184917E+02 -0.14054562576E+02  0.97189027451E+02  0.88901017870E+02 0.  0.
         24    2    1    2    0    0  0.12830221907E+03 -0.34150183216E+01 -0.26888736092E+03  0.30829202620E+03  0.79186102235E+02 0.  0.
        -11    1    4    4    0    0  0.26133705406E+02 -0.32995297907E+02 -0.10258228130E+03  0.11088185009E+03  0.00000000000E+00 0.  1.
         12    1    4    4    0    0  0.10216851367E+03  0.29580279585E+02 -0.16630507961E+03  0.19741017611E+03  0.00000000000E+00 0. -1.
        -11    1    3    3    0    0  0.22786218590E+02  0.20509791696E+02  0.25753166038E+02  0.40038592309E+02  0.00000000000E+00 0. -1.
         11    1    3    3    0    0 -0.39109176674E+02  0.12328393221E+02 -0.39807728614E+02  0.57150435142E+02  0.00000000000E+00 0.  1.
          1    1    1    2  501    0 -0.11197926099E+03 -0.29423166596E+02  0.49418474706E+02  0.12588591369E+03  0.00000000000E+00 0. -1.
<scales pt_clust_5="13000.00000" pt_clust_6="13000.00000" pt_clust_7="13000.00000" pt_clust_8="13000.00000" pt_clust_9="116.72651"></scales>
<clustering>
<clus scale="   79.186">  5  6 -1 -1</clus>
<clus scale="   88.901">  7  8 -1 -1</clus>
<clus scale="   96.167">  2  7  1 -1</clus>
<clus scale="  116.727">  1  9  2 -1</clus>
<clus scale="  116.727">  1  5  2 -1</clus>
</clustering>
</event>
<event>
 9    2  0.3745229E-005  0.1030281E+03  0.7546771E-02  0.1274995E+00
          2   -1    0    0  502    0 -0.00000000000E+00  0.00000000000E+00  0.57383454694E+03  0.57383454694E+03  0.00000000000E+00 0. -1.
         21   -1    0    0  501  502  0.00000000000E+00 -0.00000000000E+00 -0.84940680098E+02  0.84940680098E+02  0.00000000000E+00 0. -1.
         24    2    1    2    0    0  0.64448310078E+02  0.17626166670E+02  0.27068111849E+03  0.29175567781E+03  0.85958369024E+02 0.  0.
         23    2    1    2    0    0 -0.29790987389E+02  0.69419984224E+02  0.24369445975E+03  0.26992433813E+03  0.88122196219E+02 0.  0.
        -11    1    3    3    0    0 -0.68214485280E+00  0.31202374235E+02  0.15670572164E+03  0.15978340550E+03  0.00000000000E+00 0.  1.
         12    1    3    3    0    0  0.65130454931E+02 -0.13576207565E+02  0.11397539685E+03  0.13197227231E+03  0.00000000000E+00 0. -1.
        -11    1    4    4    0    0  0.12638657956E+02  0.70210406534E+02  0.17744550653E+03  0.19124890757E+03  0.00000000000E+00 0. -1.
         11    1    4    4    0    0 -0.42429645345E+02 -0.79042230918E+00  0.66248953219E+02  0.78675430562E+02  0.00000000000E+00 0.  1.
          1    1    1    2  501    0 -0.34657322689E+02 -0.87046150895E+02 -0.25481711394E+02  0.97095211093E+02  0.00000000000E+00 0. -1.
<scales pt_clust_5="13000.00000" pt_clust_6="13000.00000" pt_clust_7="13000.00000" pt_clust_8="13000.00000" pt_clust_9="93.69185"></scales>
<clustering>
<clus scale="   85.958">  5  6 -1 -1</clus>
<clus scale="   88.122">  7  8 -1 -1</clus>
<clus scale="   93.692">  2  9  1 -1</clus>
<clus scale="  101.184">  1  5  2 -1</clus>
<clus scale="   93.692">  2  5  1 -1</clus>
</clustering>
</event>
<event>
 9    2  0.3745229E-005  0.4623727E+03  0.7546771E-02  0.1047713E+00
         21   -1    0    0  501  502  0.00000000000E+00  0.00000000000E+00  0.27173638374E+03  0.27173638374E+03  0.00000000000E+00 0. -1.
          2   -1    0    0  502    0 -0.00000000000E+00 -0.00000000000E+00 -0.17016846590E+04  0.17016846590E+04  0.00000000000E+00 0. -1.
         23    2    1    2    0    0  0.12753116241E+03  0.17964967411E+03 -0.65530214560E+03  0.69491555068E+03  0.70345701712E+02 0.  0.
         24    2    1    2    0    0 -0.17027674082E+02  0.39911693893E+03 -0.19216627641E+03  0.44997390381E+03  0.77229293010E+02 0.  0.
        -11    1    4    4    0    0 -0.15994380973E+02  0.80269140139E+02 -0.92125524064E+01  0.82363986081E+02  0.00000000000E+00 0.  1.
         12    1    4    4    0    0 -0.10332931094E+01  0.31884779879E+03 -0.18295372401E+03  0.36760991773E+03  0.00000000000E+00 0. -1.
        -11    1    3    3    0    0  0.68827604899E+02  0.43148843605E+02 -0.19567938797E+03  0.21187138734E+03  0.00000000000E+00 0.  1.
         11    1    3    3    0    0  0.58703557511E+02  0.13650083051E+03 -0.45962275763E+03  0.48304416333E+03  0.00000000000E+00 0. -1.
          1    1    1    2  501    0 -0.11050348833E+03 -0.57876661304E+03 -0.58247985328E+03  0.82853158828E+03  0.00000000000E+00 0. -1.
<scales pt_clust_5="13000.00000" pt_clust_6="13000.00000" pt_clust_7="13000.00000" pt_clust_8="13000.00000" pt_clust_9="455.87755"></scales>
<clustering>
<clus scale="   70.346">  7  8 -1 -1</clus>
<clus scale="   77.229">  5  6 -1 -1</clus>
<clus scale="  231.272">  2  7  1 -1</clus>
<clus scale="  455.878">  1  9  2 -1</clus>
<clus scale="  455.878">  1  5  2 -1</clus>
</clustering>
</event>
<event>
 9    2  0.3745229E-005  0.1155880E+03  0.7546771E-02  0.1255044E+00
         21   -1    0    0  501  502  0.00000000000E+00  0.00000000000E+00  0.49246113548E+02  0.49246113548E+02  0.00000000000E+00 0.  1.
          2   -1    0    0  502    0 -0.00000000000E+00 -0.00000000000E+00 -0.54743914841E+03  0.54743914841E+03  0.00000000000E+00 0. -1.
         23    2    1    2    0    0  0.59361249800E+02  0.50061160067E+02 -0.42211952029E+03  0.43903055966E+03  0.92374591637E+02 0.  0.
         24    2    1    2    0    0 -0.16105127264E+02 -0.41088388282E+02 -0.35792366028E+02  0.97870308866E+02  0.79686091107E+02 0.  0.
        -11    1    4    4    0    0 -0.49931374294E+01 -0.56705994380E+02 -0.48573545550E+02  0.74832416421E+02  0.00000000000E+00 0.  1.
         12    1    4    4    0    0 -0.11111989834E+02  0.15617606099E+02  0.12781179522E+02  0.23037892445E+02  0.00000000000E+00 0. -1.
        -11    1    3    3    0    0  0.63237085957E+02  0.69693190306E+02 -0.38995229898E+03  0.40114693728E+03  0.00000000000E+00 0. -1.
         11    1    3    3    0    0 -0.38758361564E+01 -0.19632030239E+02 -0.32167221309E+02  0.37883622371E+02  0.00000000000E+00 0.  1.
          1    1    1    2  501    0 -0.43256122536E+02 -0.89727717853E+01 -0.40281148551E+02  0.59784393440E+02  0.00000000000E+00 0. -1.
<scales pt_clust_5="13000.00000" pt_clust_6="13000.00000" pt_clust_7="13000.00000" pt_clust_8="13000.00000" pt_clust_9="44.17695"></scales>
<clustering>
<clus scale="   44.177">  1  9  2 -1</clus>
<clus scale="   79.686">  5  6 -1 -1</clus>
<clus scale="   92.375">  7  8 -1 -1</clus>
<clus scale="  105.723">  1  5  2 -1</clus>
<clus scale="   44.177">  1  5  2 -1</clus>
</clustering>
</event>
<event>
 9    2  0.3745229E-005  0.3811739E+03  0.7546771E-02  0.1050501E+00
          2   -1    0    0  502    0 -0.00000000000E+00  0.00000000000E+00  0.36627696506E+03  0.36627696506E+03  0.00000000000E+00 0. -1.
         21   -1    0    0  501  502  0.00000000000E+00 -0.00000000000E+00 -0.41550653626E+03  0.41550653626E+03  0.00000000000E+00 0.  1.
         24    2    1    2    0    0 -0.14772251694E+03  0.13956646097E+03 -0.12441683824E+03  0.25156818852E+03  0.80661420766E+02 0.  0.
         23    2    1    2    0    0 -0.10040873984E+03  0.85691660711E+02 -0.56225481014E+02  0.17024357457E+03  0.91632931934E+02 0.  0.
        -13    1    3    3    0    0 -0.14384028974E+03  0.12988660859E+03 -0.13540282706E+03  0.23642014639E+03  0.00000000000E+00 0.  1.
         14    1    3    3    0    0 -0.38822272020E+01  0.96798523816E+01  0.10985988819E+02  0.15148042134E+02  0.00000000000E+00 0. -1.
        -11    1    4    4    0    0 -0.47122380165E+02 -0.11863205097E+02 -0.25693855380E+02  0.54967522701E+02  0.00000000000E+00 0.  1.
         11    1    4    4    0    0 -0.53286359675E+02  0.97554865809E+02 -0.30531625634E+02  0.11527605187E+03  0.00000000000E+00 0. -1.
          1    1    1    2  501    0  0.24813125678E+03 -0.22525812168E+03  0.13141274806E+03  0.35997173823E+03  0.00000000000E+00 0. -1.
<scales pt_clust_5="13000.00000" pt_clust_6="13000.00000" pt_clust_7="13000.00000" pt_clust_8="13000.00000" pt_clust_9="335.12752"></scales>
<clustering>
<clus scale="   80.661">  5  6 -1 -1</clus>
<clus scale="   91.633">  7  8 -1 -1</clus>
<clus scale="   94.700">  5  7 -1 -1</clus>
<clus scale="  335.128">  2  9  1 -1</clus>
<clus scale="  335.128">  2  5  1 -1</clus>
</clustering>
</event>
<event>
 9    2  0.3745229E-005  0.9328340E+02  0.7546771E-02  0.1296763E+00
          4   -1    0    0  502    0 -0.00000000000E+00  0.00000000000E+00  0.33969981323E+03  0.33969981323E+03  0.00000000000E+00 0. -1.
         21   -1    0    0  501  502  0.00000000000E+00 -0.00000000000E+00 -0.43845409622E+03  0.43845409622E+03  0.00000000000E+00 0. -1.
         23    2    1    2    0    0 -0.18392352024E+02  0.11472350126E+02  0.32146563552E+03  0.33480038457E+03  0.91001369530E+02 0.  0.
         24    2    1    2    0    0 -0.18195305239E+02 -0.56647743178E+00 -0.19272389546E+03  0.21267618479E+03  0.88075363564E+02 0.  0.
        -11    1    4    4    0    0  0.22343636770E+02  0.25271028150E+02 -0.12600746945E+03  0.13044441469E+03  0.00000000000E+00 0.  1.
         12    1    4    4    0    0 -0.40538942009E+02 -0.25837505582E+02 -0.66716426015E+02  0.82231770102E+02  0.00000000000E+00 0. -1.
        -11    1    3    3    0    0  0.20352322045E+02 -0.30305929429E+02  0.13157934198E+03  0.13654958662E+03  0.00000000000E+00 0.  1.
         11    1    3    3    0    0 -0.38744674069E+02  0.41778279555E+02  0.18988629355E+03  0.19825079795E+03  0.00000000000E+00 0. -1.
          3    1    1    2  501    0  0.36587657262E+02 -0.10905872695E+02 -0.22749602305E+03  0.23067734008E+03  0.00000000000E+00 0. -1.
<scales pt_clust_5="13000.00000" pt_clust_6="13000.00000" pt_clust_7="13000.00000" pt_clust_8="13000.00000" pt_clust_9="38.17846"></scales>
<clustering>
<clus scale="   38.178">  2  9  1 -1</clus>
<clus scale="   88.075">  5  6 -1 -1</clus>
<clus scale="   90.431">  2  5  1 -1</clus>
<clus scale="   91.001">  7  8 -1 -1</clus>
<clus scale="   38.178">  2  5  1 -1</clus>
</clustering>
</event>
<event>
 9    2  0.3745229E-005  0.2389447E+03  0.7546771E-02  0.1149359E+00
          2   -1    0    0  502    0 -0.00000000000E+00  0.00000000000E+00  0.89296570383E+03  0.89296570383E+03  0.00000000000E+00 0. -1.
         21   -1    0    0  501  502  0.00000000000E+00 -0.00000000000E+00 -0.13770805544E+03  0.13770805544E+03  0.00000000000E+00 0. -1.
         23    2    1    2    0    0 -0.72641832888E+02  0.21500830139E+02  0.97994599320E+02  0.15364849826E+03  0.90916433825E+02 0.  0.
         24    2    1    2    0    0 -0.37231702239E+02  0.18543543023E+03  0.60190867407E+03  0.63627867970E+03  0.82365089004E+02 0.  0.
        -11    1    4    4    0    0 -0.16604134651E+01  0.47503320874E+02  0.63343035373E+02  0.79193829288E+02  0.00000000000E+00 0.  1.
         12    1    4    4    0    0 -0.35571288774E+02  0.13793210936E+03  0.53856563870E+03  0.55708485042E+03  0.00000000000E+00 0. -1.
        -13    1    3    3    0    0 -0.66689743086E+02 -0.15947052318E+02  0.92787281688E+02  0.11537465039E+03  0.00000000000E+00 0. -1.
         13    1    3    3    0    0 -0.59520898024E+01  0.37447882457E+02  0.52073176323E+01  0.38273847866E+02  0.00000000000E+00 0.  1.
          1    1    1    2  501    0  0.10987353513E+03 -0.20693626037E+03  0.55354375000E+02  0.24074658130E+03  0.00000000000E+00 0. -1.
<scales pt_clust_5="13000.00000" pt_clust_6="13000.00000" pt_clust_7="13000.00000" pt_clust_8="13000.00000" pt_clust_9="224.30019"></scales>
<clustering>
<clus scale="   82.365">  5  6 -1 -1</clus>
<clus scale="   90.916">  7  8 -1 -1</clus>
<clus scale="  118.342">  1  7  2 -1</clus>
<clus scale="  224.300">  2  9  1 -1</clus>
<clus scale="  224.300">  2  5  1 -1</clus>
</clustering>
</event>
<event>
 9    2  0.3745229E-005  0.9406569E+02  0.7546771E-02  0.1298274E+00
         21   -1    0    0  501  502  0.00000000000E+00  0.00000000000E+00  0.15270131481E+03  0.15270131481E+03  0.00000000000E+00 0.  1.
         -3   -1    0    0    0  501 -0.00000000000E+00 -0.00000000000E+00 -0.11202036823E+03  0.11202036823E+03  0.00000000000E+00 0.  1.
         24    2    1    2    0    0  0.87149338409E+01  0.73082600161E+01 -0.24017157977E+02  0.88101955681E+02  0.83998630829E+02 0.  0.
         23    2    1    2    0    0 -0.35120471211E+02 -0.17268392903E+02  0.92852657209E+02  0.13675576511E+03  0.92460145185E+02 0.  0.
        -13    1    3    3    0    0  0.43647441496E+02  0.11337818029E+01  0.26196308431E+01  0.43740679877E+02  0.00000000000E+00 0.  1.
         14    1    3    3    0    0 -0.34932507655E+02  0.61744782132E+01 -0.26636788820E+02  0.44361275804E+02  0.00000000000E+00 0. -1.
        -11    1    4    4    0    0  0.74743265936E+01 -0.47143432020E+02  0.36738027708E+02  0.60233308231E+02  0.00000000000E+00 0. -1.
         11    1    4    4    0    0 -0.42594797805E+02  0.29875039117E+02  0.56114629501E+02  0.76522456876E+02  0.00000000000E+00 0.  1.
         -4    1    1    2    0  502  0.26405537370E+02  0.99601328867E+01 -0.28154552655E+02  0.39863962249E+02  0.00000000000E+00 0.  1.
<scales pt_clust_5="13000.00000" pt_clust_6="13000.00000" pt_clust_7="13000.00000" pt_clust_8="13000.00000" pt_clust_9="28.22158"></scales>
<clustering>
<clus scale="   28.222">  1  9  2 -1</clus>
<clus scale="   83.999">  5  6 -1 -1</clus>
<clus scale="   85.763">  2  5  1 -1</clus>
<clus scale="   92.460">  7  8 -1 -1</clus>
<clus scale="   28.222">  1  5  2 -1</clus>
</clustering>
</event>
<event>
 9    2  0.3745229E-005  0.1103544E+03  0.7546771E-02  0.1260679E+00
         21   -1    0    0  501  502  0.00000000000E+00  0.00000000000E+00  0.12250141831E+03  0.12250141831E+03  0.00000000000E+00 0.  1.
          2   -1    0    0  502    0 -0.00000000000E+00 -0.00000000000E+00 -0.21581302272E+03  0.21581302272E+03  0.00000000000E+00 0. -1.
         24    2    1    2    0    0  0.74229983217E+02  0.46155574914E+01 -0.14580630745E+03  0.18224735919E+03  0.80145036401E+02 0.  0.
         23    2    1    2    0    0 -0.69070325450E+02  0.15057491939E+02  0.70065776815E+02  0.12918970146E+03  0.82360961392E+02 0.  0.
        -11    1    3    3    0    0  0.38352842949E+02 -0.36134841397E+02 -0.53071626490E+02  0.74788133172E+02  0.00000000000E+00 0.  1.
         12    1    3    3    0    0  0.35877140268E+02  0.40750398888E+02 -0.92734680959E+02  0.10745922602E+03  0.00000000000E+00 0. -1.
        -11    1    4    4    0    0 -0.45987491248E+02 -0.32067772797E+02  0.36325507013E+02  0.66803696479E+02  0.00000000000E+00 0.  1.
         11    1    4    4    0    0 -0.23082834202E+02  0.47125264736E+02  0.33740269802E+02  0.62386004981E+02  0.00000000000E+00 0. -1.
          1    1    1    2  501    0 -0.51596577675E+01 -0.19673049431E+02 -0.17571073777E+02  0.26877380376E+02  0.00000000000E+00 0. -1.
<scales pt_clust_5="13000.00000" pt_clust_6="13000.00000" pt_clust_7="13000.00000" pt_clust_8="13000.00000" pt_clust_9="20.33842"></scales>
<clustering>
<clus scale="   20.338">  1  9  2 -1</clus>
<clus scale="   80.145">  5  6 -1 -1</clus>
<clus scale="   82.361">  7  8 -1 -1</clus>
<clus scale="  108.711">  2  5  1 -1</clus>
<clus scale="   20.338">  1  5  2 -1</clus>
</clustering>
</event>
<event>
 9    2  0.3745229E-005  0.1139017E+03  0.7546771E-02  0.1254518E+00
         21   -1    0    0  501  502  0.00000000000E+00  0.00000000000E+00  0.11165969965E+03  0.11165969965E+03  0.00000000000E+00 0. -1.
          2   -1    0    0  502    0 -0.00000000000E+00 -0.00000000000E+00 -0.33578178527E+03  0.33578178527E+03  0.00000000000E+00 0. -1.
         23    2    1    2    0    0 -0.45496764019E+02 -0.55764693068E+02 -0.79207050918E+02  0.14061759906E+03  0.91213462393E+02 0.  0.
         24    2    1    2    0    0 -0.65697606757E+02  0.85286681627E+02 -0.18530011657E+02  0.13591774217E+03  0.80871983451E+02 0.  0.
        -11    1    4    4    0    0 -0.56225767482E+01  0.28814848765E+02 -0.41030679075E+02  0.50452210100E+02  0.00000000000E+00 0.  1.
         12    1    4    4    0    0 -0.60075030009E+02  0.56471832862E+02  0.22500667417E+02  0.85465532067E+02  0.00000000000E+00 0. -1.
        -11    1    3    3    0    0  0.28056316243E+02 -0.14122924770E+02 -0.25675460913E+02  0.40568992818E+02  0.00000000000E+00 0.  1.
         11    1    3    3    0    0 -0.73553080262E+02 -0.41641768298E+02 -0.53531590006E+02  0.10004860624E+03  0.00000000000E+00 0. -1.
          1    1    1    2  501    0  0.11119437078E+03 -0.29521988559E+02 -0.12638502305E+03  0.17090614369E+03  0.00000000000E+00 0. -1.
<scales pt_clust_5="13000.00000" pt_clust_6="13000.00000" pt_clust_7="13000.00000" pt_clust_8="13000.00000" pt_clust_9="115.04673"></scales>
<clustering>
<clus scale="   80.872">  5  6 -1 -1</clus>
<clus scale="   91.213">  7  8 -1 -1</clus>
<clus scale="  115.047">  1  9  2 -1</clus>
<clus scale="  115.047">  1  5  2 -1</clus>
<clus scale="  113.902">  1  5  2 -1</clus>
</clustering>
</event>
<event>
 9    2  0.3745229E-005  0.1637830E+03  0.7546771E-02  0.1209453E+00
         21   -1    0    0  501  502  0.00000000000E+00  0.00000000000E+00  0.11263910885E+04  0.11263910885E+04  0.00000000000E+00 0. -1.
          2   -1    0    0  502    0 -0.00000000000E+00 -0.00000000000E+00 -0.40254064554E+02  0.40254064554E+02  0.00000000000E+00 0. -1.
         23    2    1    2    0    0 -0.29196810745E+02 -0.63585341257E+01  0.17472981782E+03  0.19886891612E+03  0.90141288276E+02 0.  0.
         24    2    1    2    0    0 -0.10209076858E+03 -0.84672584979E+02  0.57107462941E+03  0.59181166958E+03  0.80764151792E+02 0.  0.
        -13    1    4    4    0    0 -0.59956651858E+02 -0.66954286578E+02  0.21813930506E+03  0.23592887276E+03  0.00000000000E+00 0.  1.
         14    1    4    4    0    0 -0.42134116717E+02 -0.17718298401E+02  0.35293532435E+03  0.35588279681E+03  0.00000000000E+00 0. -1.
        -13    1    3    3    0    0  0.23254174807E+02  0.15581331636E+02  0.10619031246E+03  0.10981765342E+03  0.00000000000E+00 0.  1.
         13    1    3    3    0    0 -0.52450985552E+02 -0.21939865762E+02  0.68539505352E+02  0.89051262703E+02  0.00000000000E+00 0. -1.
          1    1    1    2  501    0  0.13128757932E+03  0.91031119105E+02  0.34033257672E+03  0.37596456735E+03  0.00000000000E+00 0. -1.
<scales pt_clust_5="13000.00000" pt_clust_6="13000.00000" pt_clust_7="13000.00000" pt_clust_8="13000.00000" pt_clust_9="142.48529"></scales>
<clustering>
<clus scale="   80.764">  5  6 -1 -1</clus>
<clus scale="   90.141">  7  8 -1 -1</clus>
<clus scale="   94.965">  2  7  1 -1</clus>
<clus scale="  142.485">  1  9  2 -1</clus>
<clus scale="  142.485">  1  5  2 -1</clus>
</clustering>
</event>
<event>
 9    2  0.3745229E-005  0.1409761E+03  0.7546771E-02  0.1228607E+00
         21   -1    0    0  501  502  0.00000000000E+00  0.00000000000E+00  0.62704696063E+02  0.62704696063E+02  0.00000000000E+00 0. -1.
          2   -1    0    0  502    0 -0.00000000000E+00 -0.00000000000E+00 -0.59269271396E+03  0.59269271396E+03  0.00000000000E+00 0. -1.
         24    2    1    2    0    0  0.10801368997E+02  0.56952854540E+02 -0.19105074330E+03  0.21542474184E+03  0.80914372451E+02 0.  0.
         23    2    1    2    0    0 -0.12109649039E+02  0.88012558798E+02 -0.10469461610E+03  0.16449797657E+03  0.90585691741E+02 0.  0.
        -11    1    3    3    0    0  0.68141149011E+01  0.73663513388E+02 -0.18096766683E+03  0.19550458257E+03  0.00000000000E+00 0.  1.
         12    1    3    3    0    0  0.39872540960E+01 -0.16710658848E+02 -0.10083076466E+02  0.19920159271E+02  0.00000000000E+00 0. -1.
        -11    1    4    4    0    0  0.32570792693E+02  0.70307695246E+02 -0.52787418307E+02  0.93757880090E+02  0.00000000000E+00 0.  1.
         11    1    4    4    0    0 -0.44680441732E+02  0.17704863551E+02 -0.51907197792E+02  0.70740096476E+02  0.00000000000E+00 0. -1.
          1    1    1    2  501    0  0.13082800415E+01 -0.14496541334E+03 -0.23424265850E+03  0.27547469162E+03  0.00000000000E+00 0. -1.
<scales pt_clust_5="13000.00000" pt_clust_6="13000.00000" pt_clust_7="13000.00000" pt_clust_8="13000.00000" pt_clust_9="108.02090"></scales>
<clustering>
<clus scale="   80.914">  5  6 -1 -1</clus>
<clus scale="   90.586">  7  8 -1 -1</clus>
<clus scale="   99.536">  2  5  1 -1</clus>
<clus scale="  108.021">  1  9  2 -1</clus>
<clus scale="  108.021">  1  5  2 -1</clus>
</clustering>
</event>
<event>
 9    2  0.3745229E-005  0.3027060E+03  0.7546771E-02  0.1116126E+00
          2   -1    0    0  502    0 -0.00000000000E+00  0.00000000000E+00  0.67375799248E+03  0.67375799248E+03  0.00000000000E+00 0. -1.
         21   -1    0    0  501  502  0.00000000000E+00 -0.00000000000E+00 -0.45096807603E+03  0.45096807603E+03  0.00000000000E+00 0. -1.
         24    2    1    2    0    0 -0.51697735199E+02  0.88054529913E+02  0.18494775953E+03  0.22672655351E+03  0.82298239648E+02 0.  0.
         23    2    1    2    0    0  0.28779811249E+03  0.57517443451E+02 -0.32135090157E+03  0.44417769881E+03  0.88833644095E+02 0.  0.
        -11    1    3    3    0    0 -0.71075879675E+02  0.53678040399E+02  0.10589942666E+03  0.13837558043E+03  0.00000000000E+00 0.  1.
         12    1    3    3    0    0  0.19378144476E+02  0.34376489514E+02  0.79048332877E+02  0.88350973086E+02  0.00000000000E+00 0. -1.
        -13    1    4    4    0    0  0.15912053076E+03  0.22118446821E+01 -0.12188565689E+03  0.20045036523E+03  0.00000000000E+00 0. -1.
         13    1    4    4    0    0  0.12867758173E+03  0.55305598769E+02 -0.19946524469E+03  0.24372733358E+03  0.00000000000E+00 0.  1.
          1    1    1    2  501    0 -0.23610037729E+03 -0.14557197336E+03  0.35919305849E+03  0.45382181619E+03  0.00000000000E+00 0. -1.
<scales pt_clust_5="13000.00000" pt_clust_6="13000.00000" pt_clust_7="13000.00000" pt_clust_8="13000.00000" pt_clust_9="289.37798"></scales>
<clustering>
<clus scale="   82.298">  5  6 -1 -1</clus>
<clus scale="   88.834">  7  8 -1 -1</clus>
<clus scale="  131.146">  1  5  2 -1</clus>
<clus scale="  289.378">  2  9  1 -1</clus>
<clus scale="  289.378">  2  5  1 -1</clus>
</clustering>
</event>
<event>
 9    2  0.3745229E-005  0.3209960E+03  0.7546771E-02  0.1075616E+00
         21   -1    0    0  501  502  0.00000000000E+00  0.00000000000E+00  0.12629065683E+03  0.12629065683E+03  0.00000000000E+00 0. -1.
          2   -1    0    0  502    0 -0.00000000000E+00 -0.00000000000E+00 -0.14889550373E+04  0.14889550373E+04  0.00000000000E+00 0. -1.
         23    2    1    2    0    0  0.49361832251E+02  0.29776718553E+03 -0.11084443666E+04  0.11524730412E+04  0.91887483550E+02 0.  0.
         24    2    1    2    0    0 -0.68548527614E+02 -0.32206043851E+03 -0.26518874176E+03  0.42993053948E+03  0.78060062327E+02 0.  0.
        -13    1    4    4    0    0 -0.26337247921E+02 -0.85657731188E+02 -0.31883524715E+02  0.95118119665E+02  0.00000000000E+00 0.  1.
         14    1    4    4    0    0 -0.42211279693E+02 -0.23640270732E+03 -0.23330521704E+03  0.33481241981E+03  0.00000000000E+00 0. -1.
        -13    1    3    3    0    0 -0.23793303842E+02  0.12655666879E+03 -0.42012813125E+03  0.43942048017E+03  0.00000000000E+00 0.  1.
         13    1    3    3    0    0  0.73155136093E+02  0.17121051674E+03 -0.68831623537E+03  0.71305256107E+03  0.00000000000E+00 0. -1.
          1    1    1    2  501    0  0.19186695364E+02  0.24293252982E+02  0.10968727930E+02  0.32842113388E+02  0.00000000000E+00 0. -1.
<scales pt_clust_5="13000.00000" pt_clust_6="13000.00000" pt_clust_7="13000.00000" pt_clust_8="13000.00000" pt_clust_9="30.95628"></scales>
<clustering>
<clus scale="   30.956">  1  9  2 -1</clus>
<clus scale="   78.060">  5  6 -1 -1</clus>
<clus scale="   91.887">  7  8 -1 -1</clus>
<clus scale="  317.314">  1  5  2 -1</clus>
<clus scale="   30.956">  1  5  2 -1</clus>
</clustering>
</event>
<event>
 9    2  0.3745229E-005  0.1496389E+03  0.7546771E-02  0.1206370E+00
         21   -1    0    0  501  502  0.00000000000E+00  0.00000000000E+00  0.32118315015E+03  0.32118315015E+03  0.00000000000E+00 0. -1.
         -3   -1    0    0    0  501 -0.00000000000E+00 -0.00000000000E+00 -0.50356667333E+03  0.50356667333E+03  0.00000000000E+00 0.  1.
         23    2    1    2    0    0  0.71150545704E+02  0.80647215002E+02 -0.47382072647E+03  0.49710409874E+03  0.10507155044E+03 0.  0.
         24    2    1    2    0    0 -0.61796207385E+02 -0.55305071501E+02  0.26894516408E+03  0.29249434196E+03  0.79649335320E+02 0.  0.
        -13    1    4    4    0    0 -0.24815393954E+02 -0.23749084892E+02  0.21955935678E+02  0.40766235070E+02  0.00000000000E+00 0.  1.
         14    1    4    4    0    0 -0.36980813430E+02 -0.31555986610E+02  0.24698922840E+03  0.25172810689E+03  0.00000000000E+00 0. -1.
        -13    1    3    3    0    0  0.62740860064E+02  0.31237207034E+02 -0.41003909465E+03  0.41598586246E+03  0.00000000000E+00 0.  1.
         13    1    3    3    0    0  0.84096856403E+01  0.49410007968E+02 -0.63781631822E+02  0.81118236284E+02  0.00000000000E+00 0. -1.
         -4    1    1    2    0  502 -0.93543383199E+01 -0.25342143501E+02  0.22492039215E+02  0.35151382770E+02  0.00000000000E+00 0.  1.
<scales pt_clust_5="13000.00000" pt_clust_6="13000.00000" pt_clust_7="13000.00000" pt_clust_8="13000.00000" pt_clust_9="27.01348"></scales>
<clustering>
<clus scale="   27.013">  1  9  2 -1</clus>
<clus scale="   79.649">  5  6 -1 -1</clus>
<clus scale="  105.072">  7  8 -1 -1</clus>
<clus scale="  133.025">  1  5  2 -1</clus>
<clus scale="   27.013">  1  5  2 -1</clus>
</clustering>
</event>
<event>
 9    2  0.3745229E-005  0.1276596E+03  0.7546771E-02  0.1234226E+00
         21   -1    0    0  501  502  0.00000000000E+00  0.00000000000E+00  0.94167474538E+02  0.94167474538E+02  0.00000000000E+00 0. -1.
          2   -1    0    0  502    0 -0.00000000000E+00 -0.00000000000E+00 -0.25227859148E+03  0.25227859148E+03  0.00000000000E+00 0. -1.
         24    2    1    2    0    0  0.74331979892E+02  0.42349383743E+02 -0.14729181169E+03  0.18806652483E+03  0.79720928446E+02 0.  0.
         23    2    1    2    0    0 -0.78069489378E+02 -0.63444840273E+02 -0.49579702350E+01  0.13616822624E+03  0.91635754157E+02 0.  0.
        -13    1    3    3    0    0  0.24867974169E+02  0.39152087747E+02 -0.18269564704E+02  0.49850567787E+02  0.00000000000E+00 0.  1.
         14    1    3    3    0    0  0.49464005723E+02  0.31972959964E+01 -0.12902224699E+03  0.13821595704E+03  0.00000000000E+00 0. -1.
        -11    1    4    4    0    0 -0.17426912258E+02 -0.18174211655E+02 -0.44240114957E+02  0.50903703319E+02  0.00000000000E+00 0.  1.
         11    1    4    4    0    0 -0.60642577120E+02 -0.45270628618E+02  0.39282144722E+02  0.85264522922E+02  0.00000000000E+00 0. -1.
          1    1    1    2  501    0  0.37375094864E+01  0.21095456530E+02 -0.58613350119E+01  0.22211314943E+02  0.00000000000E+00 0. -1.
<scales pt_clust_5="13000.00000" pt_clust_6="13000.00000" pt_clust_7="13000.00000" pt_clust_8="13000.00000" pt_clust_9="21.42399"></scales>
<clustering>
<clus scale="   21.424">  1  9  2 -1</clus>
<clus scale="   79.721">  5  6 -1 -1</clus>
<clus scale="   91.636">  7  8 -1 -1</clus>
<clus scale="  119.395">  2  5  1 -1</clus>
<clus scale="   21.424">  1  5  2 -1</clus>
</clustering>
</event>
<event>
 9    2  0.3745229E-005  0.1111588E+03  0.7546771E-02  0.1261757E+00
          2   -1    0    0  502    0 -0.00000000000E+00  0.00000000000E+00  0.95967933019E+03  0.95967933019E+03  0.00000000000E+00 0. -1.
         21   -1    0    0  501  502  0.00000000000E+00 -0.00000000000E+00 -0.43460916057E+02  0.43460916057E+02  0.00000000000E+00 0. -1.
         24    2    1    2    0    0  0.18510774930E+02 -0.75072697085E+02  0.70194847006E+03  0.71079867203E+03  0.80774617942E+02 0.  0.
         23    2    1    2    0    0  0.53672665122E+02  0.17133718035E+02  0.10459092457E+03  0.14882550672E+03  0.89640675326E+02 0.  0.
        -13    1    3    3    0    0 -0.21677951760E+02 -0.14842559175E+02  0.70925118186E+02  0.75634698023E+02  0.00000000000E+00 0.  1.
         14    1    3    3    0    0  0.40188726690E+02 -0.60230137910E+02  0.63102335187E+03  0.63516397400E+03  0.00000000000E+00 0. -1.
        -13    1    4    4    0    0  0.64284389751E+02 -0.19784421577E+02  0.70950479902E+02  0.97764393830E+02  0.00000000000E+00 0. -1.
         13    1    4    4    0    0 -0.10611724628E+02  0.36918139612E+02  0.33640444666E+02  0.51061112887E+02  0.00000000000E+00 0.  1.
          1    1    1    2  501    0 -0.72183440052E+02  0.57938979051E+02  0.10967901951E+03  0.14351606751E+03  0.00000000000E+00 0. -1.
<scales pt_clust_5="13000.00000" pt_clust_6="13000.00000" pt_clust_7="13000.00000" pt_clust_8="13000.00000" pt_clust_9="92.56011"></scales>
<clustering>
<clus scale="   80.775">  5  6 -1 -1</clus>
<clus scale="   89.641">  7  8 -1 -1</clus>
<clus scale="   92.560">  2  9  1 -1</clus>
<clus scale="  104.141">  1  5  2 -1</clus>
<clus scale="   92.560">  2  5  1 -1</clus>
</clustering>
</event>
<event>
 9    2  0.3745229E-005  0.9608653E+02  0.7546771E-02  0.1296190E+00
         21   -1    0    0  501  502  0.00000000000E+00  0.00000000000E+00  0.15615995396E+03  0.15615995396E+03  0.00000000000E+00 0. -1.
          2   -1    0    0  502    0 -0.00000000000E+00 -0.00000000000E+00 -0.13450519383E+03  0.13450519383E+03  0.00000000000E+00 0. -1.
         23    2    1    2    0    0 -0.62883471533E+01 -0.28562080493E+02 -0.90695345730E+02  0.13291616771E+03  0.92659193544E+02 0.  0.
         24    2    1    2    0    0 -0.87233916427E+01  0.12599790361E+02  0.59719194954E+02  0.10073880739E+03  0.79668518184E+02 0.  0.
        -13    1    4    4    0    0 -0.42572158373E+01  0.43116638170E+02  0.54229916736E+02  0.69412190882E+02  0.00000000000E+00 0.  1.
         14    1    4    4    0    0 -0.44661758054E+01 -0.30516847809E+02  0.54892782174E+01  0.31326616508E+02  0.00000000000E+00 0. -1.
        -13    1    3    3    0    0 -0.75973251388E+01 -0.58482755076E+02 -0.32181971001E+02  0.67183563824E+02  0.00000000000E+00 0.  1.
         13    1    3    3    0    0  0.13089779855E+01  0.29920674583E+02 -0.58513374729E+02  0.65732603882E+02  0.00000000000E+00 0. -1.
          1    1    1    2  501    0  0.15011738796E+02  0.15962290132E+02  0.52630910904E+02  0.57010172693E+02  0.00000000000E+00 0. -1.
<scales pt_clust_5="13000.00000" pt_clust_6="13000.00000" pt_clust_7="13000.00000" pt_clust_8="13000.00000" pt_clust_9="21.91226"></scales>
<clustering>
<clus scale="   21.912">  1  9  2 -1</clus>
<clus scale="   79.669">  5  6 -1 -1</clus>
<clus scale="   83.630">  1  5  2 -1</clus>
<clus scale="   92.659">  7  8 -1 -1</clus>
<clus scale="   21.912">  1  5  2 -1</clus>
</clustering>
</event>
<event>
 9    2  0.3745229E-005  0.9396651E+02  0.7546771E-02  0.1300849E+00
         21   -1    0    0  501  502  0.00000000000E+00  0.00000000000E+00  0.50833795331E+03  0.50833795331E+03  0.00000000000E+00 0.  1.
         -1   -1    0    0    0  501 -0.00000000000E+00 -0.00000000000E+00 -0.74313830176E+02  0.74313830176E+02  0.00000000000E+00 0.  1.
         23    2    1    2    0    0 -0.11663033307E+02 -0.15160912876E+02  0.71318490500E+01  0.95654169098E+02  0.93450399517E+02 0.  0.
         24    2    1    2    0    0 -0.17983156377E+00 -0.38556487811E+02  0.44199181479E+02  0.10037141803E+03  0.81450714064E+02 0.  0.
        -11    1    4    4    0    0 -0.38806051091E+02 -0.31272582583E+02  0.31948533074E+02  0.59199601250E+02  0.00000000000E+00 0.  1.
         12    1    4    4    0    0  0.38626219527E+02 -0.72839052289E+01  0.12250648406E+02  0.41171816777E+02  0.00000000000E+00 0. -1.
        -11    1    3    3    0    0 -0.45681882166E+02  0.15182872077E+02 -0.52305370093E+01  0.48422231259E+02  0.00000000000E+00 0. -1.
         11    1    3    3    0    0  0.34018848859E+02 -0.30343784953E+02  0.12362386059E+02  0.47231937839E+02  0.00000000000E+00 0.  1.
         -2    1    1    2    0  502  0.11842864871E+02  0.53717400687E+02  0.38269309261E+03  0.38662619636E+03  0.00000000000E+00 0.  1.
<scales pt_clust_5="13000.00000" pt_clust_6="13000.00000" pt_clust_7="13000.00000" pt_clust_8="13000.00000" pt_clust_9="55.00739"></scales>
<clustering>
<clus scale="   55.007">  1  9  2 -1</clus>
<clus scale="   81.451">  5  6 -1 -1</clus>
<clus scale="   82.042">  1  5  2 -1</clus>
<clus scale="   93.450">  7  8 -1 -1</clus>
<clus scale="   55.007">  1  5  2 -1</clus>
</clustering>
</event>
<event>
 9    2  0.3745229E-005  0.1812574E+03  0.7546771E-02  0.1189462E+00
         21   -1    0    0  501  502  0.00000000000E+00  0.00000000000E+00  0.77852346568E+02  0.77852346568E+02  0.00000000000E+00 0.  1.
         -1   -1    0    0    0  501 -0.00000000000E+00 -0.00000000000E+00 -0.71646522137E+03  0.71646522137E+03  0.00000000000E+00 0.  1.
         23    2    1    2    0    0  0.11019973666E+02  0.61547644475E+02 -0.22626628816E+03  0.25080748173E+03  0.88308591735E+02 0.  0.
         24    2    1    2    0    0  0.15838221954E+03 -0.55596254956E+02 -0.19027250578E+03  0.26413682426E+03  0.73408204202E+02 0.  0.
        -11    1    4    4    0    0  0.12234407589E+03 -0.68543036330E+01 -0.12429777799E+03  0.17454223557E+03  0.00000000000E+00 0.  1.
         12    1    4    4    0    0  0.36038143650E+02 -0.48741951322E+02 -0.65974727784E+02  0.89594588691E+02  0.00000000000E+00 0. -1.
        -13    1    3    3    0    0  0.40081721498E+02  0.56398763219E+01 -0.12641900211E+03  0.13274078762E+03  0.00000000000E+00 0.  1.
         13    1    3    3    0    0 -0.29061747833E+02  0.55907768153E+02 -0.99847286054E+02  0.11806669411E+03  0.00000000000E+00 0. -1.
         -2    1    1    2    0  502 -0.16940219321E+03 -0.59513895190E+01 -0.22207408087E+03  0.27937326195E+03  0.00000000000E+00 0.  1.
<scales pt_clust_5="13000.00000" pt_clust_6="13000.00000" pt_clust_7="13000.00000" pt_clust_8="13000.00000" pt_clust_9="165.72720"></scales>
<clustering>
<clus scale="   73.408">  5  6 -1 -1</clus>
<clus scale="   88.309">  7  8 -1 -1</clus>
<clus scale="  108.203">  2  7  1 -1</clus>
<clus scale="  165.727">  1  9  2 -1</clus>
<clus scale="  165.727">  1  5  2 -1</clus>
</clustering>
</event>
<event>
 9    2  0.3745229E-005  0.1915607E+03  0.7546771E-02  0.1173715E+00
         21   -1    0    0  501  502  0.00000000000E+00  0.00000000000E+00  0.57633219134E+03  0.57633219134E+03  0.00000000000E+00 0. -1.
          2   -1    0    0  502    0 -0.00000000000E+00 -0.00000000000E+00 -0.38650253113E+03  0.38650253113E+03  0.00000000000E+00 0. -1.
         23    2    1    2    0    0  0.53476163008E+02  0.70914672602E+02  0.10249620979E+03  0.16591854105E+03  0.95576662648E+02 0.  0.
         24    2    1    2    0    0 -0.18997984711E+03 -0.17807465297E+03 -0.28116904296E+03  0.38959492640E+03  0.70180136934E+02 0.  0.
        -13    1    4    4    0    0 -0.14261218988E+03 -0.93993293818E+02 -0.15417684164E+03  0.23009449034E+03  0.00000000000E+00 0.  1.
         14    1    4    4    0    0 -0.47367657227E+02 -0.84081359149E+02 -0.12699220132E+03  0.15950043606E+03  0.00000000000E+00 0. -1.
        -13    1    3    3    0    0  0.54647001074E+02  0.91850345567E+02  0.71842750731E+02  0.12877950745E+03  0.00000000000E+00 0.  1.
         13    1    3    3    0    0 -0.11708380661E+01 -0.20935672965E+02  0.30653459063E+02  0.37139033601E+02  0.00000000000E+00 0. -1.
          1    1    1    2  501    0  0.13650368410E+03  0.10715998037E+03  0.36850249338E+03  0.40732125502E+03  0.00000000000E+00 0. -1.
<scales pt_clust_5="13000.00000" pt_clust_6="13000.00000" pt_clust_7="13000.00000" pt_clust_8="13000.00000" pt_clust_9="178.24214"></scales>
<clustering>
<clus scale="   70.180">  5  6 -1 -1</clus>
<clus scale="   95.577">  7  8 -1 -1</clus>
<clus scale="  130.474">  2  7  1 -1</clus>
<clus scale="  178.242">  1  9  2 -1</clus>
<clus scale="  178.242">  1  5  2 -1</clus>
</clustering>
</event>
<event>
 9    2  0.3745229E-005  0.1023209E+03  0.7546771E-02  0.1280050E+00
         21   -1    0    0  501  502  0.00000000000E+00  0.00000000000E+00  0.26049124819E+03  0.26049124819E+03  0.00000000000E+00 0. -1.
          4   -1    0    0  502    0 -0.00000000000E+00 -0.00000000000E+00 -0.62440332775E+02  0.62440332775E+02  0.00000000000E+00 0. -1.
         24    2    1    2    0    0  0.34554812908E+02 -0.50484138759E+02  0.50806435585E+02  0.11291782789E+03  0.80165195673E+02 0.  0.
         23    2    1    2    0    0 -0.42248948384E+02  0.11159503778E+01  0.10469895668E+03  0.14438952520E+03  0.90001358163E+02 0.  0.
        -11    1    3    3    0    0  0.16633662268E+02  0.21101150591E+02  0.10628376530E+02  0.28894630373E+02  0.00000000000E+00 0.  1.
         12    1    3    3    0    0  0.17921150641E+02 -0.71585289351E+02  0.40178059055E+02  0.84023197518E+02  0.00000000000E+00 0. -1.
        -13    1    4    4    0    0  0.12984348042E+02 -0.18243227169E+02 -0.22175903598E+01  0.22501696350E+02  0.00000000000E+00 0.  1.
         13    1    4    4    0    0 -0.55233296426E+02  0.19359177547E+02  0.10691654704E+03  0.12188782885E+03  0.00000000000E+00 0. -1.
          3    1    1    2  501    0  0.76941354757E+01  0.49368188381E+02  0.42545523146E+02  0.65624227878E+02  0.00000000000E+00 0. -1.
<scales pt_clust_5="13000.00000" pt_clust_6="13000.00000" pt_clust_7="13000.00000" pt_clust_8="13000.00000" pt_clust_9="49.96416"></scales>
<clustering>
<clus scale="   49.964">  1  9  2 -1</clus>
<clus scale="   80.165">  5  6 -1 -1</clus>
<clus scale="   90.001">  7  8 -1 -1</clus>
<clus scale="   93.786">  2  5  1 -1</clus>
<clus scale="   49.964">  1  5  2 -1</clus>
</clustering>
</event>
<event>
 9    2  0.3745229E-005  0.2614037E+03  0.7546771E-02  0.1137604E+00
         21   -1    0    0  501  502  0.00000000000E+00  0.00000000000E+00  0.81686004352E+02  0.81686004352E+02  0.00000000000E+00 0. -1.
          2   -1    0    0  502    0 -0.00000000000E+00 -0.00000000000E+00 -0.19941438519E+04  0.19941438519E+04  0.00000000000E+00 0. -1.
         23    2    1    2    0    0  0.51546941066E+02 -0.54871893773E+02 -0.33596061330E+03  0.35668288313E+03  0.93194064028E+02 0.  0.
         24    2    1    2    0    0  0.16304217838E+03 -0.16967854258E+03 -0.23547068289E+03  0.34262105615E+03  0.81050514328E+02 0.  0.
        -11    1    4    4    0    0  0.99000540708E+02 -0.46568390658E+02 -0.91083034471E+02  0.14235814426E+03  0.00000000000E+00 0.  1.
         12    1    4    4    0    0  0.64041637672E+02 -0.12311015192E+03 -0.14438764842E+03  0.20026291188E+03  0.00000000000E+00 0. -1.
        -11    1    3    3    0    0  0.16994897713E+02  0.13625174564E+02 -0.14435058881E+02  0.26131262026E+02  0.00000000000E+00 0.  1.
         11    1    3    3    0    0  0.34552043353E+02 -0.68497068337E+02 -0.32152555442E+03  0.33055162111E+03  0.00000000000E+00 0. -1.
          1    1    1    2  501    0 -0.21458911945E+03  0.22455043635E+03 -0.13410265513E+04  0.13765259170E+04  0.00000000000E+00 0. -1.
<scales pt_clust_5="13000.00000" pt_clust_6="13000.00000" pt_clust_7="13000.00000" pt_clust_8="13000.00000" pt_clust_9="248.52122"></scales>
<clustering>
<clus scale="   81.051">  5  6 -1 -1</clus>
<clus scale="   93.194">  7  8 -1 -1</clus>
<clus scale="  119.805">  2  7  1 -1</clus>
<clus scale="  248.521">  1  9  2 -1</clus>
<clus scale="  248.521">  1  5  2 -1</clus>
</clustering>
</event>
<event>
 9    2  0.3745229E-005  0.2650692E+03  0.7546771E-02  0.1104680E+00
          2   -1    0    0  502    0 -0.00000000000E+00  0.00000000000E+00  0.99894558455E+03  0.99894558455E+03  0.00000000000E+00 0. -1.
         21   -1    0    0  501  502  0.00000000000E+00 -0.00000000000E+00 -0.18675579291E+03  0.18675579291E+03  0.00000000000E+00 0.  1.
         23    2    1    2    0    0 -0.33201676564E+02 -0.25939297551E+03  0.80636057195E+03  0.85266293244E+03  0.91813056143E+02 0.  0.
         24    2    1    2    0    0  0.81786572338E+02  0.16450047094E+03 -0.57972374292E+02  0.20879786021E+03  0.80537580617E+02 0.  0.
        -13    1    4    4    0    0  0.74261808114E+02  0.16839297966E+03 -0.67517993838E+02  0.19603492351E+03  0.00000000000E+00 0.  1.
         14    1    4    4    0    0  0.75247642241E+01 -0.38925087163E+01  0.95456195458E+01  0.12762936702E+02  0.00000000000E+00 0. -1.
        -13    1    3    3    0    0 -0.32122830427E+01 -0.36918386994E+02  0.41963665711E+02  0.55984241537E+02  0.00000000000E+00 0.  1.
         13    1    3    3    0    0 -0.29989393521E+02 -0.22247458852E+03  0.76439690624E+03  0.79667869090E+03  0.00000000000E+00 0. -1.
          1    1    1    2  501    0 -0.48584895775E+02  0.94892504571E+02  0.63801593975E+02  0.12424058481E+03  0.00000000000E+00 0. -1.
<scales pt_clust_5="13000.00000" pt_clust_6="13000.00000" pt_clust_7="13000.00000" pt_clust_8="13000.00000" pt_clust_9="106.60713"></scales>
<clustering>
<clus scale="   80.538">  5  6 -1 -1</clus>
<clus scale="   91.813">  7  8 -1 -1</clus>
<clus scale="  106.607">  2  9  1 -1</clus>
<clus scale="  261.378">  2  5  1 -1</clus>
<clus scale="  106.607">  2  5  1 -1</clus>
</clustering>
</event>
<event>
 9    2  0.3745229E-005  0.1258385E+03  0.7546771E-02  0.1236199E+00
         -1   -1    0    0    0  501 -0.00000000000E+00  0.00000000000E+00  0.25730262912E+03  0.25730262912E+03  0.00000000000E+00 0.  1.
         21   -1    0    0  501  502  0.00000000000E+00 -0.00000000000E+00 -0.90518567182E+02  0.90518567182E+02  0.00000000000E+00 0.  1.
         24    2    1    2    0    0  0.87654789406E+02  0.31140839306E+02  0.16034522276E+03  0.20207777585E+03  0.80447020161E+02 0.  0.
         23    2    1    2    0    0 -0.64713884760E+02 -0.43934567693E+02  0.60971924376E-01  0.11871303417E+03  0.89300882663E+02 0.  0.
        -11    1    3    3    0    0  0.95691151457E+02  0.24514570941E+02  0.16364844782E+03  0.19115066081E+03  0.00000000000E+00 0.  1.
         12    1    3    3    0    0 -0.80363620509E+01  0.66262683644E+01 -0.33032250523E+01  0.10927115045E+02  0.00000000000E+00 0. -1.
        -13    1    4    4    0    0 -0.32938499348E+02  0.22449948848E+02  0.16765322481E+02  0.43243739205E+02  0.00000000000E+00 0. -1.
         13    1    4    4    0    0 -0.31775385411E+02 -0.66384516541E+02 -0.16704350556E+02  0.75469294961E+02  0.00000000000E+00 0.  1.
         -2    1    1    2    0  502 -0.22940904646E+02  0.12793728387E+02  0.63778672540E+01  0.27030386286E+02  0.00000000000E+00 0.  1.
<scales pt_clust_5="13000.00000" pt_clust_6="13000.00000" pt_clust_7="13000.00000" pt_clust_8="13000.00000" pt_clust_9="26.26718"></scales>
<clustering>
<clus scale="   26.267">  2  9  1 -1</clus>
<clus scale="   80.447">  5  6 -1 -1</clus>
<clus scale="   89.301">  7  8 -1 -1</clus>
<clus scale="  119.718">  1  5  2 -1</clus>
<clus scale="   26.267">  2  5  1 -1</clus>
</clustering>
</event>
<event>
 9    2  0.3745229E-005  0.1021951E+03  0.7546771E-02  0.1280491E+00
          2   -1    0    0  502    0 -0.00000000000E+00  0.00000000000E+00  0.54592362933E+03  0.54592362933E+03  0.00000000000E+00 0. -1.
         21   -1    0    0  501  502  0.00000000000E+00 -0.00000000000E+00 -0.31392394638E+02  0.31392394638E+02  0.00000000000E+00 0. -1.
         24    2    1    2    0    0  0.47454069605E+02  0.26462560253E+02  0.34611314095E+03  0.35963995759E+03  0.81206138582E+02 0.  0.
         23    2    1    2    0    0 -0.15448651749E+02 -0.29291128698E+02  0.15494196300E+03  0.18283422843E+03  0.91239860399E+02 0.  0.
        -11    1    3    3    0    0 -0.20871828419E+02 -0.64487772527E+01  0.74257667424E+02  0.77404270689E+02  0.00000000000E+00 0.  1.
         12    1    3    3    0    0  0.68325898025E+02  0.32911337505E+02  0.27185547352E+03  0.28223568690E+03  0.00000000000E+00 0. -1.
        -11    1    4    4    0    0 -0.48191258616E+02 -0.99388809386E+01  0.45675351201E+02  0.67137295661E+02  0.00000000000E+00 0.  1.
         11    1    4    4    0    0  0.32742606867E+02 -0.19352247759E+02  0.10926661180E+03  0.11569693277E+03  0.00000000000E+00 0. -1.
          1    1    1    2  501    0 -0.32005417856E+02  0.28285684453E+01  0.13476130741E+02  0.34841837944E+02  0.00000000000E+00 0. -1.
<scales pt_clust_5="13000.00000" pt_clust_6="13000.00000" pt_clust_7="13000.00000" pt_clust_8="13000.00000" pt_clust_9="32.13017"></scales>
<clustering>
<clus scale="   32.130">  2  9  1 -1</clus>
<clus scale="   81.206">  5  6 -1 -1</clus>
<clus scale="   91.240">  7  8 -1 -1</clus>
<clus scale="   93.346">  1  5  2 -1</clus>
<clus scale="   32.130">  2  5  1 -1</clus>
</clustering>
</event>
<event>
 9    2  0.3745229E-005  0.4915666E+03  0.7546771E-02  0.1016004E+00
         21   -1    0    0  501  502  0.00000000000E+00  0.00000000000E+00  0.10156938153E+03  0.10156938153E+03  0.00000000000E+00 0. -1.
          2   -1    0    0  502    0 -0.00000000000E+00 -0.00000000000E+00 -0.20452816247E+04  0.20452816247E+04  0.00000000000E+00 0. -1.
         24    2    1    2    0    0 -0.82974822595E+02 -0.23409077920E+03 -0.85287309415E+03  0.89191682720E+03  0.80248351009E+02 0.  0.
         23    2    1    2    0    0 -0.80063902783E+02 -0.15175684600E+03 -0.24939791722E+03  0.31499622233E+03  0.87080021427E+02 0.  0.
        -13    1    3    3    0    0 -0.90250102063E+01 -0.12101156569E+03 -0.48707131325E+03  0.50195987293E+03  0.00000000000E+00 0.  1.
         14    1    3    3    0    0 -0.73949812388E+02 -0.11307921351E+03 -0.36580178089E+03  0.38995695427E+03  0.00000000000E+00 0. -1.
        -11    1    4    4    0    0 -0.56891514919E+02 -0.15613662305E+03 -0.23333772365E+03  0.28646427841E+03  0.00000000000E+00 0. -1.
         11    1    4    4    0    0 -0.23172387864E+02  0.43797770503E+01 -0.16060193573E+02  0.28531943921E+02  0.00000000000E+00 0.  1.
          1    1    1    2  501    0  0.16303872538E+03  0.38584762520E+03 -0.84144123185E+03  0.93993795673E+03  0.00000000000E+00 0. -1.
<scales pt_clust_5="13000.00000" pt_clust_6="13000.00000" pt_clust_7="13000.00000" pt_clust_8="13000.00000" pt_clust_9="418.87948"></scales>
<clustering>
<clus scale="   80.248">  5  6 -1 -1</clus>
<clus scale="   87.080">  7  8 -1 -1</clus>
<clus scale="  182.129">  5  7 -1 -1</clus>
<clus scale="  418.879">  1  9  2 -1</clus>
<clus scale="  418.879">  1  5  2 -1</clus>
</clustering>
</event>
<event>
 9    2  0.3745229E-005  0.1701660E+03  0.7546771E-02  0.1179322E+00
         21   -1    0    0  501  502  0.00000000000E+00  0.00000000000E+00  0.19818608581E+03  0.19818608581E+03  0.00000000000E+00 0. -1.
          4   -1    0    0  502    0 -0.00000000000E+00 -0.00000000000E+00 -0.27436495551E+03  0.27436495551E+03  0.00000000000E+00 0. -1.
         24    2    1    2    0    0  0.17402665581E+03  0.79660777495E+01 -0.14339618794E+03  0.23956628095E+03  0.80503421805E+02 0.  0.
         23    2    1    2    0    0 -0.86125535668E+02 -0.33931139614E+02  0.31305650221E+02  0.13454473162E+03  0.92484111832E+02 0.  0.
        -13    1    3    3    0    0  0.42432784962E+02  0.36912504661E+02 -0.53255391864E+02  0.77454573800E+02  0.00000000000E+00 0.  1.
         14    1    3    3    0    0  0.13159387085E+03 -0.28946426911E+02 -0.90140796080E+02  0.16211170715E+03  0.00000000000E+00 0. -1.
        -13    1    4    4    0    0 -0.56099835462E+02 -0.46791594371E+02  0.57264650881E+02  0.92821792070E+02  0.00000000000E+00 0. -1.
         13    1    4    4    0    0 -0.30025700206E+02  0.12860454757E+02 -0.25959000659E+02  0.41722939550E+02  0.00000000000E+00 0.  1.
          3    1    1    2  501    0 -0.87901120145E+02  0.25965061864E+02  0.35911668016E+02  0.98440028749E+02  0.00000000000E+00 0. -1.
<scales pt_clust_5="13000.00000" pt_clust_6="13000.00000" pt_clust_7="13000.00000" pt_clust_8="13000.00000" pt_clust_9="91.65583"></scales>
<clustering>
<clus scale="   80.503">  5  6 -1 -1</clus>
<clus scale="   91.656">  1  9  2 -1</clus>
<clus scale="   92.484">  7  8 -1 -1</clus>
<clus scale="  163.963">  2  5  1 -1</clus>
<clus scale="   91.656">  1  5  2 -1</clus>
</clustering>
</event>
<event>
 9    2  0.3745229E-005  0.2533093E+03  0.7546771E-02  0.1111231E+00
          2   -1    0    0  502    0 -0.00000000000E+00  0.00000000000E+00  0.30868658312E+02  0.30868658312E+02  0.00000000000E+00 0. -1.
         21   -1    0    0  501  502  0.00000000000E+00 -0.00000000000E+00 -0.15700854391E+04  0.15700854391E+04  0.00000000000E+00 0. -1.
         24    2    1    2    0    0  0.95631960731E+02  0.62674866253E+02 -0.77638698711E+03  0.78883869898E+03  0.80100739612E+02 0.  0.
         23    2    1    2    0    0  0.56270877637E+02  0.84441044810E+01 -0.36599317295E+03  0.38128865384E+03  0.90511437564E+02 0.  0.
        -11    1    3    3    0    0  0.22603741860E+02 -0.19363042343E+02 -0.16187717433E+03  0.16459063195E+03  0.00000000000E+00 0.  1.
         12    1    3    3    0    0  0.73028218871E+02  0.82037908596E+02 -0.61450981277E+03  0.62424806703E+03  0.00000000000E+00 0. -1.
        -11    1    4    4    0    0  0.71450014756E+02 -0.20402859553E+02 -0.25216826298E+03  0.26288821606E+03  0.00000000000E+00 0. -1.
         11    1    4    4    0    0 -0.15179137119E+02  0.28846964034E+02 -0.11382490997E+03  0.11840043778E+03  0.00000000000E+00 0.  1.
          1    1    1    2  501    0 -0.15190283837E+03 -0.71118970734E+02 -0.39683662073E+03  0.43082674459E+03  0.00000000000E+00 0. -1.
<scales pt_clust_5="13000.00000" pt_clust_6="13000.00000" pt_clust_7="13000.00000" pt_clust_8="13000.00000" pt_clust_9="167.72718"></scales>
<clustering>
<clus scale="   80.101">  5  6 -1 -1</clus>
<clus scale="   90.511">  7  8 -1 -1</clus>
<clus scale="   99.563">  5  7 -1 -1</clus>
<clus scale="  167.727">  2  9  1 -1</clus>
<clus scale="  167.727">  2  5  1 -1</clus>
</clustering>
</event>
<event>
 9    2  0.3745229E-005  0.1060259E+03  0.7546771E-02  0.1274750E+00
         -3   -1    0    0    0  501 -0.00000000000E+00  0.00000000000E+00  0.31070180966E+03  0.31070180966E+03  0.00000000000E+00 0.  1.
         21   -1    0    0  501  502  0.00000000000E+00 -0.00000000000E+00 -0.61458725438E+02  0.61458725438E+02  0.00000000000E+00 0. -1.
         23    2    1    2    0    0 -0.40378237776E+02 -0.30628743177E+02  0.21765626279E+03  0.24289391109E+03  0.95156089233E+02 0.  0.
         24    2    1    2    0    0  0.37287057622E+02  0.42514186596E+01  0.13459043199E+01  0.89019491052E+02  0.80710960235E+02 0.  0.
        -13    1    4    4    0    0  0.22396518025E+02  0.15652279508E+02  0.38611122094E+02  0.47301338488E+02  0.00000000000E+00 0.  1.
         14    1    4    4    0    0  0.14890539597E+02 -0.11400860848E+02 -0.37265217774E+02  0.41718152564E+02  0.00000000000E+00 0. -1.
        -11    1    3    3    0    0  0.23594959439E+02 -0.46640429684E+01  0.13947009992E+02  0.27802778557E+02  0.00000000000E+00 0.  1.
         11    1    3    3    0    0 -0.63973197215E+02 -0.25964700209E+02  0.20370925280E+03  0.21509113253E+03  0.00000000000E+00 0. -1.
         -4    1    1    2    0  502  0.30911801542E+01  0.26377324517E+02  0.30240917114E+02  0.40247132958E+02  0.00000000000E+00 0.  1.
<scales pt_clust_5="13000.00000" pt_clust_6="13000.00000" pt_clust_7="13000.00000" pt_clust_8="13000.00000" pt_clust_9="26.55785"></scales>
<clustering>
<clus scale="   26.558">  2  9  1 -1</clus>
<clus scale="   80.711">  5  6 -1 -1</clus>
<clus scale="   93.279">  2  5  1 -1</clus>
<clus scale="   95.156">  7  8 -1 -1</clus>
<clus scale="   26.558">  2  5  1 -1</clus>
</clustering>
</event>
<event>
 9    2  0.3745229E-005  0.9568383E+02  0.7546771E-02  0.1294114E+00
         21   -1    0    0  501  502  0.00000000000E+00  0.00000000000E+00  0.43809096655E+02  0.43809096655E+02  0.00000000000E+00 0.  1.
         -1   -1    0    0    0  501 -0.00000000000E+00 -0.00000000000E+00 -0.54940215144E+03  0.54940215144E+03  0.00000000000E+00 0.  1.
         23    2    1    2    0    0  0.44507162232E+02 -0.19262366451E+02 -0.39874546704E+03  0.41153995938E+03  0.89528009182E+02 0.  0.
         24    2    1    2    0    0 -0.20591195651E+01 -0.18641367524E+02 -0.89107623664E+02  0.12206226506E+03  0.81285222523E+02 0.  0.
        -11    1    4    4    0    0  0.35179807716E+02 -0.11553337805E+02 -0.70948143172E+02  0.80029603928E+02  0.00000000000E+00 0.  1.
         12    1    4    4    0    0 -0.37238927281E+02 -0.70880297196E+01 -0.18159480492E+02  0.42032661135E+02  0.00000000000E+00 0. -1.
        -11    1    3    3    0    0 -0.23481393748E+01 -0.47141520616E+02 -0.19401783783E+03  0.19967663389E+03  0.00000000000E+00 0.  1.
         11    1    3    3    0    0  0.46855301607E+02  0.27879154164E+02 -0.20472762921E+03  0.21186332549E+03  0.00000000000E+00 0. -1.
         -2    1    1    2    0  502 -0.42448042667E+02  0.37903733976E+02 -0.17739964081E+02  0.59609023655E+02  0.00000000000E+00 0.  1.
<scales pt_clust_5="13000.00000" pt_clust_6="13000.00000" pt_clust_7="13000.00000" pt_clust_8="13000.00000" pt_clust_9="56.90808"></scales>
<clustering>
<clus scale="   56.908">  1  9  2 -1</clus>
<clus scale="   81.285">  5  6 -1 -1</clus>
<clus scale="   88.019">  1  5  2 -1</clus>
<clus scale="   89.528">  7  8 -1 -1</clus>
<clus scale="   56.908">  1  5  2 -1</clus>
</clustering>
</event>
<event>
 9    2  0.3745229E-005  0.1101432E+03  0.7546771E-02  0.1263559E+00
         -3   -1    0    0    0  501 -0.00000000000E+00  0.00000000000E+00  0.46616054336E+02  0.46616054336E+02  0.00000000000E+00 0.  1.
         21   -1    0    0  501  502  0.00000000000E+00 -0.00000000000E+00 -0.44670409224E+03  0.44670409224E+03  0.00000000000E+00 0.  1.
         23    2    1    2    0    0 -0.15148142627E+02 -0.48634761766E+02 -0.86564606008E+02  0.13520290045E+03  0.90507386440E+02 0.  0.
         24    2    1    2    0    0  0.18940495042E+02  0.76932860554E+02 -0.13247825930E+03  0.17483462596E+03  0.82092934312E+02 0.  0.
        -13    1    4    4    0    0  0.23703994773E+02  0.58790215337E+02 -0.14072612185E+03  0.15434380505E+03  0.00000000000E+00 0.  1.
         14    1    4    4    0    0 -0.47634997318E+01  0.18142645217E+02  0.82478625469E+01  0.20490820915E+02  0.00000000000E+00 0. -1.
        -13    1    3    3    0    0  0.33364802552E+02 -0.19052089346E+02 -0.97188470828E+01  0.39631403538E+02  0.00000000000E+00 0. -1.
         13    1    3    3    0    0 -0.48512945180E+02 -0.29582672420E+02 -0.76845758926E+02  0.95571496914E+02  0.00000000000E+00 0.  1.
         -4    1    1    2    0  502 -0.37923524142E+01 -0.28298098788E+02 -0.18104517260E+03  0.18328262016E+03  0.00000000000E+00 0.  1.
<scales pt_clust_5="13000.00000" pt_clust_6="13000.00000" pt_clust_7="13000.00000" pt_clust_8="13000.00000" pt_clust_9="28.55108"></scales>
<clustering>
<clus scale="   28.551">  2  9  1 -1</clus>
<clus scale="   82.093">  5  6 -1 -1</clus>
<clus scale="   90.507">  7  8 -1 -1</clus>
<clus scale="  103.340">  2  5  1 -1</clus>
<clus scale="   28.551">  2  5  1 -1</clus>
</clustering>
</event>
<event>
 9    2  0.3745229E-005  0.1331190E+03  0.7546771E-02  0.1238902E+00
         -1   -1    0    0    0  501 -0.00000000000E+00  0.00000000000E+00  0.29984939236E+03  0.29984939236E+03  0.00000000000E+00 0.  1.
         21   -1    0    0  501  502  0.00000000000E+00 -0.00000000000E+00 -0.79934313436E+03  0.79934313436E+03  0.00000000000E+00 0.  1.
         23    2    1    2    0    0 -0.56421885673E+00  0.27683550677E+02  0.27121223620E+03  0.28760358951E+03  0.91613592391E+02 0.  0.
         24    2    1    2    0    0 -0.48434430869E+02  0.85615032849E+02 -0.47309777221E+03  0.48939632249E+03  0.77533415076E+02 0.  0.
        -11    1    4    4    0    0 -0.66058913012E+02  0.48465923884E+02 -0.35544330488E+03  0.36476385341E+03  0.00000000000E+00 0.  1.
         12    1    4    4    0    0  0.17624482143E+02  0.37149108966E+02 -0.11765446733E+03  0.12463246908E+03  0.00000000000E+00 0. -1.
        -11    1    3    3    0    0 -0.24417703988E+02  0.53782787378E+02  0.14601429731E+03  0.15750869025E+03  0.00000000000E+00 0.  1.
         11    1    3    3    0    0  0.23853485131E+02 -0.26099236701E+02  0.12519793889E+03  0.13009489925E+03  0.00000000000E+00 0. -1.
         -2    1    1    2    0  502  0.48998649725E+02 -0.11329858353E+03 -0.29760820599E+03  0.32219261472E+03  0.00000000000E+00 0.  1.
<scales pt_clust_5="13000.00000" pt_clust_6="13000.00000" pt_clust_7="13000.00000" pt_clust_8="13000.00000" pt_clust_9="108.20929"></scales>
<clustering>
<clus scale="   77.533">  5  6 -1 -1</clus>
<clus scale="   91.614">  7  8 -1 -1</clus>
<clus scale="   95.707">  1  7  2 -1</clus>
<clus scale="  108.209">  2  9  1 -1</clus>
<clus scale="  108.209">  2  5  1 -1</clus>
</clustering>
</event>
<event>
 9    2  0.3745229E-005  0.1672599E+03  0.7546771E-02  0.1182861E+00
          2   -1    0    0  502    0 -0.00000000000E+00  0.00000000000E+00  0.16249640373E+04  0.16249640373E+04  0.00000000000E+00 0. -1.
         21   -1    0    0  501  502  0.00000000000E+00 -0.00000000000E+00 -0.39156794311E+02  0.39156794311E+02  0.00000000000E+00 0. -1.
         23    2    1    2    0    0  0.11559571054E+03 -0.40771270335E+02  0.70474482979E+03  0.72170140492E+03  0.95723445269E+02 0.  0.
         24    2    1    2    0    0 -0.16745470768E+03 -0.47633240951E+02  0.75940378849E+03  0.78334229394E+03  0.81369716308E+02 0.  0.
        -13    1    4    4    0    0 -0.84715380039E+02 -0.59679639038E+02  0.33050334068E+03  0.34636803134E+03  0.00000000000E+00 0.  1.
         14    1    4    4    0    0 -0.82739327639E+02  0.12046398087E+02  0.42890044781E+03  0.43697426260E+03  0.00000000000E+00 0. -1.
        -11    1    3    3    0    0  0.11086020034E+03 -0.90415389778E+01  0.63828184328E+03  0.64790079866E+03  0.00000000000E+00 0.  1.
         11    1    3    3    0    0  0.47355102010E+01 -0.31729731357E+02  0.66462986513E+02  0.73800606265E+02  0.00000000000E+00 0. -1.
          1    1    1    2  501    0  0.51858997137E+02  0.88404511286E+02  0.12165862474E+03  0.15907713278E+03  0.00000000000E+00 0. -1.
<scales pt_clust_5="13000.00000" pt_clust_6="13000.00000" pt_clust_7="13000.00000" pt_clust_8="13000.00000" pt_clust_9="102.49250"></scales>
<clustering>
<clus scale="   81.370">  5  6 -1 -1</clus>
<clus scale="   95.723">  7  8 -1 -1</clus>
<clus scale="  102.493">  2  9  1 -1</clus>
<clus scale="  159.480">  2  5  1 -1</clus>
<clus scale="  102.493">  2  5  1 -1</clus>
</clustering>
</event>
<event>
 9    2  0.3745229E-005  0.9163984E+02  0.7546771E-02  0.1305392E+00
         21   -1    0    0  501  502  0.00000000000E+00  0.00000000000E+00  0.37527130162E+02  0.37527130162E+02  0.00000000000E+00 0. -1.
          2   -1    0    0  502    0 -0.00000000000E+00 -0.00000000000E+00 -0.62334518167E+03  0.62334518167E+03  0.00000000000E+00 0. -1.
         24    2    1    2    0    0 -0.15521295031E+02  0.19235361896E+02 -0.24567134083E+03  0.25981064712E+03  0.80847108194E+02 0.  0.
         23    2    1    2    0    0 -0.37994486809E+02  0.25812974426E+02 -0.30724059188E+03  0.32375639862E+03  0.91167613077E+02 0.  0.
        -11    1    3    3    0    0  0.13676338569E+02 -0.15156584377E+02 -0.16523128616E+02  0.26263626290E+02  0.00000000000E+00 0.  1.
         12    1    3    3    0    0 -0.29197633601E+02  0.34391946273E+02 -0.22914821221E+03  0.23354702083E+03  0.00000000000E+00 0. -1.
        -11    1    4    4    0    0  0.11520119398E+02  0.29991533054E+02 -0.37073440031E+02  0.49057569871E+02  0.00000000000E+00 0. -1.
         11    1    4    4    0    0 -0.49514606207E+02 -0.41785586284E+01 -0.27016715184E+03  0.27469882875E+03  0.00000000000E+00 0.  1.
          1    1    1    2  501    0  0.53515781840E+02 -0.45048336322E+02 -0.32906118801E+02  0.77305266095E+02  0.00000000000E+00 0. -1.
<scales pt_clust_5="13000.00000" pt_clust_6="13000.00000" pt_clust_7="13000.00000" pt_clust_8="13000.00000" pt_clust_9="69.95207"></scales>
<clustering>
<clus scale="   69.952">  1  9  2 -1</clus>
<clus scale="   80.847">  5  6 -1 -1</clus>
<clus scale="   81.379">  2  5  1 -1</clus>
<clus scale="   91.168">  7  8 -1 -1</clus>
<clus scale="   69.952">  1  5  2 -1</clus>
</clustering>
</event>
<event>
 9    2  0.3745229E-005  0.1643890E+03  0.7546771E-02  0.1209185E+00
         -1   -1    0    0    0  501 -0.00000000000E+00  0.00000000000E+00  0.52558193183E+03  0.52558193183E+03  0.00000000000E+00 0.  1.
         21   -1    0    0  501  502  0.00000000000E+00 -0.00000000000E+00 -0.11226132862E+03  0.11226132862E+03  0.00000000000E+00 0. -1.
         23    2    1    2    0    0 -0.14393715465E+02  0.11623257140E+02  0.28059725331E+03  0.29606946051E+03  0.92628439111E+02 0.  0.
         24    2    1    2    0    0  0.11975850049E+03  0.83071807818E+02  0.10571616744E+03  0.19755770807E+03  0.81302621513E+02 0.  0.
        -11    1    4    4    0    0  0.78686925384E+02  0.56261037952E+02  0.11213475429E+03  0.14809165992E+03  0.00000000000E+00 0.  1.
         12    1    4    4    0    0  0.41071575105E+02  0.26810769866E+02 -0.64185868482E+01  0.49466048150E+02  0.00000000000E+00 0. -1.
        -13    1    3    3    0    0 -0.31792032500E+02  0.39890785319E+02  0.98010075156E+02  0.11048974123E+03  0.00000000000E+00 0.  1.
         13    1    3    3    0    0  0.17398317034E+02 -0.28267528179E+02  0.18258717815E+03  0.18557971928E+03  0.00000000000E+00 0. -1.
         -2    1    1    2    0  502 -0.10536478502E+03 -0.94695064958E+02  0.27007182460E+02  0.14421609187E+03  0.00000000000E+00 0.  1.
<scales pt_clust_5="13000.00000" pt_clust_6="13000.00000" pt_clust_7="13000.00000" pt_clust_8="13000.00000" pt_clust_9="142.87630"></scales>
<clustering>
<clus scale="   81.303">  5  6 -1 -1</clus>
<clus scale="   92.628">  7  8 -1 -1</clus>
<clus scale="   94.458">  1  7  2 -1</clus>
<clus scale="  142.876">  2  9  1 -1</clus>
<clus scale="  142.876">  2  5  1 -1</clus>
</clustering>
</event>
<event>
 9    2  0.3745229E-005  0.1694552E+03  0.7546771E-02  0.1179576E+00
         21   -1    0    0  501  502  0.00000000000E+00  0.00000000000E+00  0.73097845029E+02  0.73097845029E+02  0.00000000000E+00 0.  1.
          2   -1    0    0  502    0 -0.00000000000E+00 -0.00000000000E+00 -0.60910049298E+03  0.60910049298E+03  0.00000000000E+00 0. -1.
         23    2    1    2    0    0  0.11874032889E+03 -0.79039464111E+02 -0.38494926486E+03  0.41980305033E+03  0.87761961923E+02 0.  0.
         24    2    1    2    0    0 -0.10317059889E+03  0.11382138377E+03 -0.14099886504E+03  0.22298346508E+03  0.79002948551E+02 0.  0.
        -13    1    4    4    0    0 -0.23630551261E+02  0.84406908703E+02 -0.65221428320E+02  0.10925549827E+03  0.00000000000E+00 0.  1.
         14    1    4    4    0    0 -0.79540047626E+02  0.29414475064E+02 -0.75777436719E+02  0.11372796681E+03  0.00000000000E+00 0. -1.
        -13    1    3    3    0    0  0.27218618813E+02 -0.56120652580E+02 -0.23073846531E+03  0.23902012516E+03  0.00000000000E+00 0.  1.
         13    1    3    3    0    0  0.91521710076E+02 -0.22918811531E+02 -0.15421079954E+03  0.18078292517E+03  0.00000000000E+00 0. -1.
          1    1    1    2  501    0 -0.15569730002E+02 -0.34781919655E+02 -0.10054518056E+02  0.39411822599E+02  0.00000000000E+00 0. -1.
<scales pt_clust_5="13000.00000" pt_clust_6="13000.00000" pt_clust_7="13000.00000" pt_clust_8="13000.00000" pt_clust_9="38.10772"></scales>
<clustering>
<clus scale="   38.108">  1  9  2 -1</clus>
<clus scale="   79.003">  5  6 -1 -1</clus>
<clus scale="   87.762">  7  8 -1 -1</clus>
<clus scale="  165.089">  1  5  2 -1</clus>
<clus scale="   38.108">  1  5  2 -1</clus>
</clustering>
</event>
<event>
 9    2  0.3745229E-005  0.2009767E+03  0.7546771E-02  0.1151381E+00
          2   -1    0    0  502    0 -0.00000000000E+00  0.00000000000E+00  0.30770693118E+03  0.30770693118E+03  0.00000000000E+00 0. -1.
         21   -1    0    0  501  502  0.00000000000E+00 -0.00000000000E+00 -0.16782054463E+03  0.16782054463E+03  0.00000000000E+00 0.  1.
         23    2    1    2    0    0  0.17817311706E+03 -0.50046523544E+02  0.12785480795E+03  0.24344788046E+03  0.93111247566E+02 0.  0.
         24    2    1    2    0    0 -0.14714701894E+03  0.86284675317E+02 -0.13453742816E+01  0.18253400749E+03  0.64958167145E+02 0.  0.
        -13    1    4    4    0    0 -0.64055697538E+02  0.27463532938E+02 -0.31319762996E+02  0.76408805661E+02  0.00000000000E+00 0.  1.
         14    1    4    4    0    0 -0.83091321405E+02  0.58821142379E+02  0.29974388715E+02  0.10612520183E+03  0.00000000000E+00 0. -1.
        -11    1    3    3    0    0  0.56188255361E+02  0.16114825337E+02  0.59846242305E+01  0.58759027931E+02  0.00000000000E+00 0.  1.
         11    1    3    3    0    0  0.12198486170E+03 -0.66161348880E+02  0.12187018372E+03  0.18468885253E+03  0.00000000000E+00 0. -1.
          1    1    1    2  501    0 -0.31026098117E+02 -0.36238151773E+02  0.13376952885E+02  0.49545587864E+02  0.00000000000E+00 0. -1.
<scales pt_clust_5="13000.00000" pt_clust_6="13000.00000" pt_clust_7="13000.00000" pt_clust_8="13000.00000" pt_clust_9="47.70558"></scales>
<clustering>
<clus scale="   47.706">  2  9  1 -1</clus>
<clus scale="   64.958">  5  6 -1 -1</clus>
<clus scale="   93.111">  7  8 -1 -1</clus>
<clus scale="  189.582">  2  5  1 -1</clus>
<clus scale="   47.706">  2  5  1 -1</clus>
</clustering>
</event>
<event>
 9    2  0.3745229E-005  0.9927368E+02  0.7546771E-02  0.1286395E+00
         21   -1    0    0  501  502  0.00000000000E+00  0.00000000000E+00  0.11466686979E+03  0.11466686979E+03  0.00000000000E+00 0. -1.
          2   -1    0    0  502    0 -0.00000000000E+00 -0.00000000000E+00 -0.33633335606E+03  0.33633335606E+03  0.00000000000E+00 0. -1.
         23    2    1    2    0    0 -0.19823156874E+02  0.49621545905E+02 -0.24344209887E+03  0.26479181566E+03  0.89416971375E+02 0.  0.
         24    2    1    2    0    0 -0.17271884481E+02  0.24138184732E+02  0.49864614941E+02  0.98998708845E+02  0.80207821153E+02 0.  0.
        -11    1    4    4    0    0  0.21407817572E+02  0.29319890993E+02  0.80768792961E+00  0.36312573867E+02  0.00000000000E+00 0.  1.
         12    1    4    4    0    0 -0.38679702053E+02 -0.51817062604E+01  0.49056927012E+02  0.62686134978E+02  0.00000000000E+00 0. -1.
        -11    1    3    3    0    0  0.34814654045E+02  0.27406195122E+02 -0.87741502182E+02  0.98294103956E+02  0.00000000000E+00 0.  1.
         11    1    3    3    0    0 -0.54637810919E+02  0.22215350783E+02 -0.15570059669E+03  0.16649771170E+03  0.00000000000E+00 0. -1.
          1    1    1    2  501    0  0.37095041355E+02 -0.73759730637E+02 -0.28089002345E+02  0.87209701350E+02  0.00000000000E+00 0. -1.
<scales pt_clust_5="13000.00000" pt_clust_6="13000.00000" pt_clust_7="13000.00000" pt_clust_8="13000.00000" pt_clust_9="82.56234"></scales>
<clustering>
<clus scale="   80.208">  5  6 -1 -1</clus>
<clus scale="   82.562">  1  9  2 -1</clus>
<clus scale="   89.417">  7  8 -1 -1</clus>
<clus scale="   91.067">  1  5  2 -1</clus>
<clus scale="   82.562">  1  5  2 -1</clus>
</clustering>
</event>
<event>
 9    2  0.3745229E-005  0.9256851E+02  0.7546771E-02  0.1299777E+00
         21   -1    0    0  501  502  0.00000000000E+00  0.00000000000E+00  0.57089035028E+02  0.57089035028E+02  0.00000000000E+00 0. -1.
          2   -1    0    0  502    0 -0.00000000000E+00 -0.00000000000E+00 -0.34729112817E+03  0.34729112817E+03  0.00000000000E+00 0. -1.
         23    2    1    2    0    0 -0.45738873509E+01  0.35847900722E+02 -0.26126849776E+03  0.27766068104E+03  0.86765393101E+02 0.  0.
         24    2    1    2    0    0  0.18558589661E+02 -0.90591117663E+01  0.13220337017E+01  0.83957183302E+02  0.81366898052E+02 0.  0.
        -11    1    4    4    0    0  0.72650799633E+01  0.30963846585E+02 -0.19647027274E+02  0.37383778072E+02  0.00000000000E+00 0.  1.
         12    1    4    4    0    0  0.11293509697E+02 -0.40022958352E+02  0.20969060975E+02  0.46573405230E+02  0.00000000000E+00 0. -1.
        -13    1    3    3    0    0  0.38572715086E+02  0.17143095018E+02 -0.16781277880E+03  0.17304007855E+03  0.00000000000E+00 0. -1.
         13    1    3    3    0    0 -0.43146602437E+02  0.18704805704E+02 -0.93455718963E+02  0.10462060249E+03  0.00000000000E+00 0.  1.
          1    1    1    2  501    0 -0.13984702310E+02 -0.26788788956E+02 -0.30255629078E+02  0.42762298854E+02  0.00000000000E+00 0. -1.
<scales pt_clust_5="13000.00000" pt_clust_6="13000.00000" pt_clust_7="13000.00000" pt_clust_8="13000.00000" pt_clust_9="30.21938"></scales>
<clustering>
<clus scale="   30.219">  1  9  2 -1</clus>
<clus scale="   81.367">  5  6 -1 -1</clus>
<clus scale="   86.765">  7  8 -1 -1</clus>
<clus scale="   87.529">  1  5  2 -1</clus>
<clus scale="   30.219">  1  5  2 -1</clus>
</clustering>
</event>
<event>
 9    2  0.3745229E-005  0.2206866E+03  0.7546771E-02  0.1134089E+00
         21   -1    0    0  501  502  0.00000000000E+00  0.00000000000E+00  0.20897958628E+03  0.20897958628E+03  0.00000000000E+00 0.  1.
          2   -1    0    0  502    0 -0.00000000000E+00 -0.00000000000E+00 -0.34075815601E+03  0.34075815601E+03  0.00000000000E+00 0. -1.
         23    2    1    2    0    0  0.40970678934E+02 -0.21251411719E+03 -0.13061861524E+03  0.26899882167E+03  0.91968999521E+02 0.  0.
         24    2    1    2    0    0  0.79735529159E+01  0.18496163554E+03 -0.47268735600E+02  0.20807051777E+03  0.82368821964E+02 0.  0.
        -13    1    4    4    0    0  0.42760477124E+02  0.67867253407E+02 -0.13566015674E+02  0.81353913674E+02  0.00000000000E+00 0.  1.
         14    1    4    4    0    0 -0.34786924208E+02  0.11709438213E+03 -0.33702719926E+02  0.12671660409E+03  0.00000000000E+00 0. -1.
        -13    1    3    3    0    0  0.69112810235E+02 -0.12127943574E+03 -0.81242750922E+02  0.16151057752E+03  0.00000000000E+00 0.  1.
         13    1    3    3    0    0 -0.28142131300E+02 -0.91234681453E+02 -0.49375864323E+02  0.10748824415E+03  0.00000000000E+00 0. -1.
          1    1    1    2  501    0 -0.48944231850E+02  0.27552481658E+02  0.46108781112E+02  0.72668402849E+02  0.00000000000E+00 0. -1.
<scales pt_clust_5="13000.00000" pt_clust_6="13000.00000" pt_clust_7="13000.00000" pt_clust_8="13000.00000" pt_clust_9="56.16651"></scales>
<clustering>
<clus scale="   56.167">  1  9  2 -1</clus>
<clus scale="   82.369">  5  6 -1 -1</clus>
<clus scale="   91.969">  7  8 -1 -1</clus>
<clus scale="  216.861">  1  5  2 -1</clus>
<clus scale="   56.167">  1  5  2 -1</clus>
</clustering>
</event>
<event>
 9    2  0.3745229E-005  0.1187773E+03  0.7546771E-02  0.1259028E+00
         -3   -1    0    0    0  501 -0.00000000000E+00  0.00000000000E+00  0.43537438986E+02  0.43537438986E+02  0.00000000000E+00 0.  1.
         21   -1    0    0  501  502  0.00000000000E+00 -0.00000000000E+00 -0.47079944023E+03  0.47079944023E+03  0.00000000000E+00 0.  1.
         24    2    1    2    0    0  0.17579821747E+02  0.29214853051E+02 -0.51343828399E+02  0.10129203557E+03  0.80382398464E+02 0.  0.
         23    2    1    2    0    0 -0.99037221726E+01 -0.67751199098E+02 -0.27012061931E+03  0.30018610538E+03  0.11161648710E+03 0.  0.
        -13    1    3    3    0    0 -0.14812073998E+02 -0.18017013852E+02  0.14908728115E+01  0.23371628655E+02  0.00000000000E+00 0.  1.
         14    1    3    3    0    0  0.32391895745E+02  0.47231866902E+02 -0.52834701211E+02  0.77920406910E+02  0.00000000000E+00 0. -1.
        -13    1    4    4    0    0  0.38233776383E+02 -0.63281213491E+02 -0.21236637240E+03  0.22486842767E+03  0.00000000000E+00 0.  1.
         13    1    4    4    0    0 -0.48137498555E+02 -0.44699856070E+01 -0.57754246913E+02  0.75317677706E+02  0.00000000000E+00 0. -1.
         -4    1    1    2    0  502 -0.76760995746E+01  0.38536346048E+02 -0.10579755353E+03  0.11285873828E+03  0.00000000000E+00 0.  1.
<scales pt_clust_5="13000.00000" pt_clust_6="13000.00000" pt_clust_7="13000.00000" pt_clust_8="13000.00000" pt_clust_9="39.29342"></scales>
<clustering>
<clus scale="   39.293">  2  9  1 -1</clus>
<clus scale="   80.382">  5  6 -1 -1</clus>
<clus scale="   90.062">  1  5  2 -1</clus>
<clus scale="  111.616">  7  8 -1 -1</clus>
<clus scale="   39.293">  2  5  1 -1</clus>
</clustering>
</event>
<event>
 9    2  0.3745229E-005  0.1138718E+03  0.7546771E-02  0.1259978E+00
          2   -1    0    0  502    0 -0.00000000000E+00  0.00000000000E+00  0.56103515413E+03  0.56103515413E+03  0.00000000000E+00 0. -1.
         21   -1    0    0  501  502  0.00000000000E+00 -0.00000000000E+00 -0.75428514274E+02  0.75428514274E+02  0.00000000000E+00 0. -1.
         24    2    1    2    0    0  0.24867567922E+02  0.71757642683E+02  0.37033497855E+03  0.38528178697E+03  0.74340458784E+02 0.  0.
         23    2    1    2    0    0 -0.63988691136E+02 -0.18326388139E+02  0.14028929081E+03  0.18039174772E+03  0.91813334730E+02 0.  0.
        -13    1    3    3    0    0  0.47058562715E+02  0.31729059840E+02  0.15319049893E+03  0.16336636901E+03  0.00000000000E+00 0.  1.
         14    1    3    3    0    0 -0.22190994793E+02  0.40028582843E+02  0.21714447963E+03  0.22191541796E+03  0.00000000000E+00 0. -1.
        -13    1    4    4    0    0 -0.31948426052E+02 -0.40510412292E+02  0.13032763756E+03  0.14016807248E+03  0.00000000000E+00 0.  1.
         13    1    4    4    0    0 -0.32040265085E+02  0.22184024154E+02  0.99616532525E+01  0.40223675241E+02  0.00000000000E+00 0. -1.
          1    1    1    2  501    0  0.39121123214E+02 -0.53431254545E+02 -0.25017629515E+02  0.70790133707E+02  0.00000000000E+00 0. -1.
<scales pt_clust_5="13000.00000" pt_clust_6="13000.00000" pt_clust_7="13000.00000" pt_clust_8="13000.00000" pt_clust_9="66.22206"></scales>
<clustering>
<clus scale="   66.222">  2  9  1 -1</clus>
<clus scale="   74.340">  5  6 -1 -1</clus>
<clus scale="   91.813">  7  8 -1 -1</clus>
<clus scale="  100.317">  1  5  2 -1</clus>
<clus scale="   66.222">  2  5  1 -1</clus>
</clustering>
</event>
<event>
 9    2  0.3745229E-005  0.1311223E+03  0.7546771E-02  0.1242530E+00
         21   -1    0    0  501  502  0.00000000000E+00  0.00000000000E+00  0.13081249339E+03  0.13081249339E+03  0.00000000000E+00 0.  1.
          2   -1    0    0  502    0 -0.00000000000E+00 -0.00000000000E+00 -0.65205770437E+03  0.65205770437E+03  0.00000000000E+00 0. -1.
         24    2    1    2    0    0 -0.32390935886E+02 -0.31359606483E+02  0.78225354530E+02  0.12155571268E+03  0.81387883290E+02 0.  0.
         23    2    1    2    0    0 -0.83910346082E+02 -0.42294317236E+02 -0.15995394912E+03  0.20074337792E+03  0.76699951043E+02 0.  0.
        -13    1    3    3    0    0  0.12979691025E+02  0.17014529004E+02  0.39046314673E+02  0.44526186294E+02  0.00000000000E+00 0.  1.
         14    1    3    3    0    0 -0.45370626911E+02 -0.48374135487E+02  0.39179039857E+02  0.77029526381E+02  0.00000000000E+00 0. -1.
        -11    1    4    4    0    0 -0.64652319675E+02 -0.58765363823E+02 -0.14985501960E+03  0.17346416726E+03  0.00000000000E+00 0.  1.
         11    1    4    4    0    0 -0.19258026408E+02  0.16471046587E+02 -0.10098929522E+02  0.27279210661E+02  0.00000000000E+00 0. -1.
          1    1    1    2  501    0  0.11630128197E+03  0.73653923719E+02 -0.43951661640E+03  0.46057110716E+03  0.00000000000E+00 0. -1.
<scales pt_clust_5="13000.00000" pt_clust_6="13000.00000" pt_clust_7="13000.00000" pt_clust_8="13000.00000" pt_clust_9="106.34930"></scales>
<clustering>
<clus scale="   76.700">  7  8 -1 -1</clus>
<clus scale="   81.388">  5  6 -1 -1</clus>
<clus scale="   93.041">  2  5  1 -1</clus>
<clus scale="  106.349">  1  9  2 -1</clus>
<clus scale="  106.349">  1  5  2 -1</clus>
</clustering>
</event>
<event>
 9    2  0.3745229E-005  0.2216941E+03  0.7546771E-02  0.1144655E+00
         21   -1    0    0  501  502  0.00000000000E+00  0.00000000000E+00  0.50395193967E+03  0.50395193967E+03  0.00000000000E+00 0. -1.
          2   -1    0    0  502    0 -0.00000000000E+00 -0.00000000000E+00 -0.52014570820E+03  0.52014570820E+03  0.00000000000E+00 0. -1.
         23    2    1    2    0    0  0.22819208519E+02  0.13585329250E+03  0.34704486160E+03  0.38459142366E+03  0.92160695711E+02 0.  0.
         24    2    1    2    0    0  0.69140451110E+02 -0.29020873513E+03 -0.33512540329E+03  0.45764766601E+03  0.90171161378E+02 0.  0.
        -13    1    4    4    0    0  0.13064355903E+02 -0.48378800409E+02 -0.11663660751E+03  0.12694598826E+03  0.00000000000E+00 0.  1.
         14    1    4    4    0    0  0.56076095207E+02 -0.24182993472E+03 -0.21848879578E+03  0.33070167775E+03  0.00000000000E+00 0. -1.
        -11    1    3    3    0    0 -0.13547070825E+02  0.10397942912E+03  0.29714775751E+03  0.31510638616E+03  0.00000000000E+00 0.  1.
         11    1    3    3    0    0  0.36366279344E+02  0.31873863384E+02  0.49897104091E+02  0.69485037504E+02  0.00000000000E+00 0. -1.
          1    1    1    2  501    0 -0.91959659629E+02  0.15435544263E+03 -0.28113226835E+02  0.18185855820E+03  0.00000000000E+00 0. -1.
<scales pt_clust_5="13000.00000" pt_clust_6="13000.00000" pt_clust_7="13000.00000" pt_clust_8="13000.00000" pt_clust_9="202.52760"></scales>
<clustering>
<clus scale="   90.171">  5  6 -1 -1</clus>
<clus scale="   92.161">  7  8 -1 -1</clus>
<clus scale="  165.742">  2  7  1 -1</clus>
<clus scale="  202.528">  1  9  2 -1</clus>
<clus scale="  202.528">  1  5  2 -1</clus>
</clustering>
</event>
<event>
 9    2  0.3745229E-005  0.4080206E+03  0.7546771E-02  0.1073237E+00
          2   -1    0    0  502    0 -0.00000000000E+00  0.00000000000E+00  0.55724281610E+03  0.55724281610E+03  0.00000000000E+00 0. -1.
         21   -1    0    0  501  502  0.00000000000E+00 -0.00000000000E+00 -0.52394403343E+03  0.52394403343E+03  0.00000000000E+00 0. -1.
         23    2    1    2    0    0  0.70139310456E+02  0.11780321909E+03  0.11921909205E+03  0.20343839554E+03  0.91525229149E+02 0.  0.
         24    2    1    2    0    0  0.51878323048E+02  0.35410821540E+03 -0.12788715378E+03  0.38851443952E+03  0.80649593914E+02 0.  0.
        -11    1    4    4    0    0 -0.12399747376E+02  0.23557125863E+02 -0.24704169649E+02  0.36317873175E+02  0.00000000000E+00 0.  1.
         12    1    4    4    0    0  0.64278070425E+02  0.33055108954E+03 -0.10318298413E+03  0.35219656635E+03  0.00000000000E+00 0. -1.
        -11    1    3    3    0    0  0.23238141824E+02 -0.41877742072E+01 -0.38427402231E+01  0.23923113105E+02  0.00000000000E+00 0.  1.
         11    1    3    3    0    0  0.46901168632E+02  0.12199099329E+03  0.12306183228E+03  0.17951528243E+03  0.00000000000E+00 0. -1.
          1    1    1    2  501    0 -0.12201763350E+03 -0.47191143449E+03  0.41966844390E+02  0.48923401447E+03  0.00000000000E+00 0. -1.
<scales pt_clust_5="13000.00000" pt_clust_6="13000.00000" pt_clust_7="13000.00000" pt_clust_8="13000.00000" pt_clust_9="399.97080"></scales>
<clustering>
<clus scale="   80.650">  5  6 -1 -1</clus>
<clus scale="   91.525">  7  8 -1 -1</clus>
<clus scale="  164.845">  1  7  2 -1</clus>
<clus scale="  399.971">  2  9  1 -1</clus>
<clus scale="  399.971">  2  5  1 -1</clus>
</clustering>
</event>
<event>
 9    2  0.3745229E-005  0.1247703E+03  0.7546771E-02  0.1239193E+00
         21   -1    0    0  501  502  0.00000000000E+00  0.00000000000E+00  0.50854632283E+03  0.50854632283E+03  0.00000000000E+00 0.  1.
         -3   -1    0    0    0  501 -0.00000000000E+00 -0.00000000000E+00 -0.17168267866E+03  0.17168267866E+03  0.00000000000E+00 0.  1.
         23    2    1    2    0    0 -0.49362984559E+02  0.72693720951E+02 -0.12591783458E+03  0.17852208156E+03  0.91070034747E+02 0.  0.
         24    2    1    2    0    0 -0.25551029101E+02 -0.77455287704E+02  0.33522570297E+03  0.35370267034E+03  0.77955951607E+02 0.  0.
        -11    1    4    4    0    0 -0.21508127130E+02 -0.72274895158E+02  0.14564676188E+03  0.16400987546E+03  0.00000000000E+00 0.  1.
         12    1    4    4    0    0 -0.40429019712E+01 -0.51803925461E+01  0.18957894109E+03  0.18969279488E+03  0.00000000000E+00 0. -1.
        -11    1    3    3    0    0 -0.22165826093E+02  0.83261658237E+02 -0.12159199867E+03  0.14902497012E+03  0.00000000000E+00 0.  1.
         11    1    3    3    0    0 -0.27197158466E+02 -0.10567937286E+02 -0.43258359133E+01  0.29497111442E+02  0.00000000000E+00 0. -1.
         -4    1    1    2    0  502  0.74914013660E+02  0.47615667527E+01  0.12755577578E+03  0.14800424958E+03  0.00000000000E+00 0.  1.
<scales pt_clust_5="13000.00000" pt_clust_6="13000.00000" pt_clust_7="13000.00000" pt_clust_8="13000.00000" pt_clust_9="75.06518"></scales>
<clustering>
<clus scale="   75.065">  1  9  2 -1</clus>
<clus scale="   77.956">  5  6 -1 -1</clus>
<clus scale="   91.070">  7  8 -1 -1</clus>
<clus scale="  115.547">  1  5  2 -1</clus>
<clus scale="   75.065">  1  5  2 -1</clus>
</clustering>
</event>
<event>
 9    2  0.3745229E-005  0.9107511E+02  0.7546771E-02  0.1305494E+00
         21   -1    0    0  501  502  0.00000000000E+00  0.00000000000E+00  0.24664347340E+02  0.24664347340E+02  0.00000000000E+00 0.  1.
          2   -1    0    0  502    0 -0.00000000000E+00 -0.00000000000E+00 -0.53122425297E+03  0.53122425297E+03  0.00000000000E+00 0. -1.
         23    2    1    2    0    0  0.11681506998E+02 -0.11198331453E+02 -0.36589740855E+03  0.37683042624E+03  0.88647596262E+02 0.  0.
         24    2    1    2    0    0 -0.13662417407E+02  0.33659935265E+02 -0.10617545165E+03  0.13785375739E+03  0.80067340413E+02 0.  0.
        -13    1    4    4    0    0 -0.37422777477E+02  0.83673062769E+00 -0.19573268248E+02  0.42240705749E+02  0.00000000000E+00 0.  1.
         14    1    4    4    0    0  0.23760360070E+02  0.32823204638E+02 -0.86602183405E+02  0.95613051640E+02  0.00000000000E+00 0. -1.
        -11    1    3    3    0    0  0.44259052014E+02 -0.18819967401E+02 -0.28893298267E+03  0.29290838727E+03  0.00000000000E+00 0. -1.
         11    1    3    3    0    0 -0.32577545016E+02  0.76216359476E+01 -0.76964425877E+02  0.83922038967E+02  0.00000000000E+00 0.  1.
          1    1    1    2  501    0  0.19809104090E+01 -0.22461603812E+02 -0.34487045430E+02  0.41204416685E+02  0.00000000000E+00 0. -1.
<scales pt_clust_5="13000.00000" pt_clust_6="13000.00000" pt_clust_7="13000.00000" pt_clust_8="13000.00000" pt_clust_9="22.54878"></scales>
<clustering>
<clus scale="   22.549">  1  9  2 -1</clus>
<clus scale="   80.067">  5  6 -1 -1</clus>
<clus scale="   82.747">  1  5  2 -1</clus>
<clus scale="   88.648">  7  8 -1 -1</clus>
<clus scale="   22.549">  1  5  2 -1</clus>
</clustering>
</event>
<event>
 9    2  0.3745229E-005  0.1803008E+03  0.7546771E-02  0.1168806E+00
          4   -1    0    0  502    0 -0.00000000000E+00  0.00000000000E+00  0.65233159190E+03  0.65233159190E+03  0.00000000000E+00 0. -1.
         21   -1    0    0  501  502  0.00000000000E+00 -0.00000000000E+00 -0.76596923061E+02  0.76596923061E+02  0.00000000000E+00 0. -1.
         23    2    1    2    0    0  0.85202799959E+02 -0.94265986091E+02  0.16346345799E+03  0.22652660039E+03  0.91915207296E+02 0.  0.
         24    2    1    2    0    0 -0.16647872737E+03  0.89291333478E+02  0.28879889493E+03  0.35449675460E+03  0.81086610554E+02 0.  0.
        -11    1    4    4    0    0 -0.54729288608E+02  0.43783011361E+02  0.47366788378E+02  0.84592314998E+02  0.00000000000E+00 0.  1.
         12    1    4    4    0    0 -0.11174943876E+03  0.45508322117E+02  0.24143210655E+03  0.26990443961E+03  0.00000000000E+00 0. -1.
        -11    1    3    3    0    0  0.56676523842E+01 -0.72228390064E+02  0.93814737732E+02  0.11853382484E+03  0.00000000000E+00 0.  1.
         11    1    3    3    0    0  0.79535147575E+02 -0.22037596027E+02  0.69648720259E+02  0.10799277555E+03  0.00000000000E+00 0. -1.
          3    1    1    2  501    0  0.81275927412E+02  0.49746526130E+01  0.12347231592E+03  0.14790515996E+03  0.00000000000E+00 0. -1.
<scales pt_clust_5="13000.00000" pt_clust_6="13000.00000" pt_clust_7="13000.00000" pt_clust_8="13000.00000" pt_clust_9="81.42807"></scales>
<clustering>
<clus scale="   81.087">  5  6 -1 -1</clus>
<clus scale="   81.428">  2  9  1 -1</clus>
<clus scale="   91.915">  7  8 -1 -1</clus>
<clus scale="  175.029">  2  5  1 -1</clus>
<clus scale="   81.428">  2  5  1 -1</clus>
</clustering>
</event>
<event>
 9    2  0.3745229E-005  0.3129594E+03  0.7546771E-02  0.1079247E+00
         21   -1    0    0  501  502  0.00000000000E+00  0.00000000000E+00  0.20337839940E+04  0.20337839940E+04  0.00000000000E+00 0.  1.
         -1   -1    0    0    0  501 -0.00000000000E+00 -0.00000000000E+00 -0.11228756512E+03  0.11228756512E+03  0.00000000000E+00 0.  1.
         23    2    1    2    0    0 -0.29424593883E+03  0.61756477708E+02  0.21163683025E+03  0.37891540979E+03  0.91608977711E+02 0.  0.
         24    2    1    2    0    0  0.28088009607E+03 -0.78061810405E+02  0.17180426924E+04  0.17445403882E+04  0.82238668099E+02 0.  0.
        -11    1    4    4    0    0  0.17056663317E+03 -0.52687548622E+02  0.80805914175E+03  0.82754367299E+03  0.00000000000E+00 0.  1.
         12    1    4    4    0    0  0.11031346290E+03 -0.25374261783E+02  0.90998355062E+03  0.91699671518E+03  0.00000000000E+00 0. -1.
        -13    1    3    3    0    0 -0.44516281369E+02  0.45008556493E+02  0.32788276085E+02  0.71291938627E+02  0.00000000000E+00 0. -1.
         13    1    3    3    0    0 -0.24972965746E+03  0.16747921215E+02  0.17884855417E+03  0.30762347116E+03  0.00000000000E+00 0.  1.
         -2    1    1    2    0  502  0.13365842765E+02  0.16305332697E+02 -0.81830937896E+01  0.22615761123E+02  0.00000000000E+00 0.  1.
<scales pt_clust_5="13000.00000" pt_clust_6="13000.00000" pt_clust_7="13000.00000" pt_clust_8="13000.00000" pt_clust_9="21.08341"></scales>
<clustering>
<clus scale="   21.083">  1  9  2 -1</clus>
<clus scale="   82.239">  5  6 -1 -1</clus>
<clus scale="   91.609">  7  8 -1 -1</clus>
<clus scale="  310.346">  1  5  2 -1</clus>
<clus scale="   21.083">  1  5  2 -1</clus>
</clustering>
</event>
<event>
 9    2  0.3745229E-005  0.1559835E+03  0.7546771E-02  0.1194981E+00
          2   -1    0    0  502    0 -0.00000000000E+00  0.00000000000E+00  0.83943791395E+03  0.83943791395E+03  0.00000000000E+00 0. -1.
         21   -1    0    0  501  502  0.00000000000E+00 -0.00000000000E+00 -0.44606476854E+02  0.44606476854E+02  0.00000000000E+00 0.  1.
         24    2    1    2    0    0  0.14509241584E+03 -0.68546939221E+01  0.48921867896E+03  0.51659507549E+03  0.80229422382E+02 0.  0.
         23    2    1    2    0    0 -0.11037022129E+03  0.56858002086E+02  0.23179419284E+03  0.27176680801E+03  0.68660264723E+02 0.  0.
        -11    1    3    3    0    0  0.39298505537E+01 -0.20748498366E+02  0.36424899839E+02  0.42103648750E+02  0.00000000000E+00 0.  1.
         12    1    3    3    0    0  0.14116256529E+03  0.13893804444E+02  0.45279377912E+03  0.47449142674E+03  0.00000000000E+00 0. -1.
        -11    1    4    4    0    0 -0.38110904866E+02 -0.82166906553E+01  0.35596350810E+02  0.52792568284E+02  0.00000000000E+00 0. -1.
         11    1    4    4    0    0 -0.72259316420E+02  0.65074692741E+02  0.19619784203E+03  0.21897423972E+03  0.00000000000E+00 0.  1.
          1    1    1    2  501    0 -0.34722194555E+02 -0.50003308164E+02  0.73818565299E+02  0.95682507309E+02  0.00000000000E+00 0. -1.
<scales pt_clust_5="13000.00000" pt_clust_6="13000.00000" pt_clust_7="13000.00000" pt_clust_8="13000.00000" pt_clust_9="60.87661"></scales>
<clustering>
<clus scale="   60.877">  2  9  1 -1</clus>
<clus scale="   68.660">  7  8 -1 -1</clus>
<clus scale="   80.229">  5  6 -1 -1</clus>
<clus scale="  150.361">  2  7  1 -1</clus>
<clus scale="   60.877">  2  5  1 -1</clus>
</clustering>
</event>
<event>
 9    2  0.3745229E-005  0.1014981E+03  0.7546771E-02  0.1280337E+00
         -1   -1    0    0    0  501 -0.00000000000E+00  0.00000000000E+00  0.21846227576E+03  0.21846227576E+03  0.00000000000E+00 0.  1.
         21   -1    0    0  501  502  0.00000000000E+00 -0.00000000000E+00 -0.78128225003E+02  0.78128225003E+02  0.00000000000E+00 0. -1.
         23    2    1    2    0    0  0.50932792650E+02  0.10094325429E+02  0.11943722071E+03  0.15873688148E+03  0.90752978338E+02 0.  0.
         24    2    1    2    0    0 -0.37302686599E+02  0.58982127574E+01  0.47721458711E+02  0.10377867582E+03  0.84061861698E+02 0.  0.
        -11    1    4    4    0    0 -0.27985523207E+02  0.11923888640E+02  0.71410495394E+02  0.77619762187E+02  0.00000000000E+00 0.  1.
         12    1    4    4    0    0 -0.93171633923E+01 -0.60256758830E+01 -0.23689036683E+02  0.26158913634E+02  0.00000000000E+00 0. -1.
        -11    1    3    3    0    0  0.39524143337E+02 -0.95143078547E+01  0.12814359006E+03  0.13443756779E+03  0.00000000000E+00 0.  1.
         11    1    3    3    0    0  0.11408649313E+02  0.19608633284E+02 -0.87063693484E+01  0.24299313686E+02  0.00000000000E+00 0. -1.
         -2    1    1    2    0  502 -0.13630106051E+02 -0.15992538186E+02 -0.26824628669E+02  0.34074943460E+02  0.00000000000E+00 0.  1.
<scales pt_clust_5="13000.00000" pt_clust_6="13000.00000" pt_clust_7="13000.00000" pt_clust_8="13000.00000" pt_clust_9="21.01288"></scales>
<clustering>
<clus scale="   21.013">  2  9  1 -1</clus>
<clus scale="   84.062">  5  6 -1 -1</clus>
<clus scale="   90.753">  7  8 -1 -1</clus>
<clus scale="   95.562">  2  5  1 -1</clus>
<clus scale="   21.013">  2  5  1 -1</clus>
</clustering>
</event>
<event>
 9    2  0.3745229E-005  0.1184370E+03  0.7546771E-02  0.1261050E+00
         -1   -1    0    0    0  501 -0.00000000000E+00  0.00000000000E+00  0.10370158961E+03  0.10370158961E+03  0.00000000000E+00 0.  1.
         21   -1    0    0  501  502  0.00000000000E+00 -0.00000000000E+00 -0.20089464565E+03  0.20089464565E+03  0.00000000000E+00 0.  1.
         24    2    1    2    0    0 -0.26466113269E+02 -0.21908098347E+02 -0.41441788070E+02  0.96637359663E+02  0.80255451898E+02 0.  0.
         23    2    1    2    0    0 -0.13101048283E+02 -0.60796664759E+02 -0.23014532636E+02  0.11060728622E+03  0.88523619112E+02 0.  0.
        -11    1    3    3    0    0 -0.16338178456E+02 -0.34474320884E+02  0.12647322245E+02  0.40191661270E+02  0.00000000000E+00 0.  1.
         12    1    3    3    0    0 -0.10127934813E+02  0.12566222537E+02 -0.54089110315E+02  0.56445698393E+02  0.00000000000E+00 0. -1.
        -11    1    4    4    0    0  0.32884121066E+02 -0.23949389101E+02  0.11553320258E+02  0.42289689826E+02  0.00000000000E+00 0. -1.
         11    1    4    4    0    0 -0.45985169348E+02 -0.36847275658E+02 -0.34567852894E+02  0.68317596395E+02  0.00000000000E+00 0.  1.
         -2    1    1    2    0  502  0.39567161552E+02  0.82704763106E+02 -0.32736735334E+02  0.97351589376E+02  0.00000000000E+00 0.  1.
<scales pt_clust_5="13000.00000" pt_clust_6="13000.00000" pt_clust_7="13000.00000" pt_clust_8="13000.00000" pt_clust_9="78.68228"></scales>
<clustering>
<clus scale="   80.255">  5  6 -1 -1</clus>
<clus scale="   87.300">  1  5  2 -1</clus>
<clus scale="   78.682">  2  9  1 -1</clus>
<clus scale="   88.524">  7  8 -1 -1</clus>
<clus scale="   78.682">  2  5  1 -1</clus>
</clustering>
</event>
<event>
 9    2  0.3745229E-005  0.1011118E+03  0.7546771E-02  0.1279938E+00
         21   -1    0    0  501  502  0.00000000000E+00  0.00000000000E+00  0.56249145942E+03  0.56249145942E+03  0.00000000000E+00 0. -1.
         -1   -1    0    0    0  501 -0.00000000000E+00 -0.00000000000E+00 -0.47493105812E+02  0.47493105812E+02  0.00000000000E+00 0.  1.
         24    2    1    2    0    0 -0.28027566528E+02 -0.49332840348E+02  0.22687609972E+02  0.10147202742E+03  0.81009697444E+02 0.  0.
         23    2    1    2    0    0 -0.20388801475E+01  0.42689688526E+02  0.39790872947E+03  0.40921569516E+03  0.85437472107E+02 0.  0.
        -13    1    3    3    0    0 -0.45190913365E+02 -0.96568516305E+01 -0.99937184746E+01  0.47279465343E+02  0.00000000000E+00 0.  1.
         14    1    3    3    0    0  0.17163346836E+02 -0.39675988717E+02  0.32681328447E+02  0.54192562076E+02  0.00000000000E+00 0. -1.
        -11    1    4    4    0    0  0.11706160365E+01  0.68105278168E+02  0.32118070595E+03  0.32832414643E+03  0.00000000000E+00 0. -1.
         11    1    4    4    0    0 -0.32094961840E+01 -0.25415589641E+02  0.76728023515E+02  0.80891548725E+02  0.00000000000E+00 0.  1.
         -2    1    1    2    0  502  0.30066446676E+02  0.66431518212E+01  0.94402014172E+02  0.99296842656E+02  0.00000000000E+00 0.  1.
<scales pt_clust_5="13000.00000" pt_clust_6="13000.00000" pt_clust_7="13000.00000" pt_clust_8="13000.00000" pt_clust_9="30.79160"></scales>
<clustering>
<clus scale="   30.792">  1  9  2 -1</clus>
<clus scale="   81.010">  5  6 -1 -1</clus>
<clus scale="   85.437">  7  8 -1 -1</clus>
<clus scale="   97.399">  2  5  1 -1</clus>
<clus scale="   30.792">  1  5  2 -1</clus>
</clustering>
</event>
<event>
 9    2  0.3745229E-005  0.1003360E+03  0.7546771E-02  0.1288644E+00
          2   -1    0    0  502    0 -0.00000000000E+00  0.00000000000E+00  0.20804953991E+03  0.20804953991E+03  0.00000000000E+00 0. -1.
         21   -1    0    0  501  502  0.00000000000E+00 -0.00000000000E+00 -0.38040915398E+03  0.38040915398E+03  0.00000000000E+00 0. -1.
         23    2    1    2    0    0 -0.41832144612E+02 -0.11934254828E+02  0.17258448946E+03  0.20034522637E+03  0.91980698877E+02 0.  0.
         24    2    1    2    0    0 -0.30248730911E+02  0.50921206363E+02 -0.20365640483E+03  0.22477991675E+03  0.74445448244E+02 0.  0.
        -11    1    4    4    0    0  0.15081183124E+02  0.41990643978E+02 -0.13366502424E+03  0.14091485007E+03  0.00000000000E+00 0.  1.
         12    1    4    4    0    0 -0.45329914035E+02  0.89305623848E+01 -0.69991380596E+02  0.83865066677E+02  0.00000000000E+00 0. -1.
        -13    1    3    3    0    0 -0.38475578603E+02  0.21709582505E+02  0.15703377748E+03  0.16312965209E+03  0.00000000000E+00 0. -1.
         13    1    3    3    0    0 -0.33565660086E+01 -0.33643837333E+02  0.15550711980E+02  0.37215574279E+02  0.00000000000E+00 0.  1.
          1    1    1    2  501    0  0.72080875523E+02 -0.38986951535E+02 -0.14128769870E+03  0.16333355078E+03  0.00000000000E+00 0. -1.
<scales pt_clust_5="13000.00000" pt_clust_6="13000.00000" pt_clust_7="13000.00000" pt_clust_8="13000.00000" pt_clust_9="81.94898"></scales>
<clustering>
<clus scale="   74.445">  5  6 -1 -1</clus>
<clus scale="   81.949">  2  9  1 -1</clus>
<clus scale="   84.552">  2  5  1 -1</clus>
<clus scale="   91.981">  7  8 -1 -1</clus>
<clus scale="   81.949">  2  5  1 -1</clus>
</clustering>
</event>
<event>
 9    2  0.3745229E-005  0.1058668E+03  0.7546771E-02  0.1275100E+00
          2   -1    0    0  502    0 -0.00000000000E+00  0.00000000000E+00  0.47103234812E+03  0.47103234812E+03  0.00000000000E+00 0. -1.
         21   -1    0    0  501  502  0.00000000000E+00 -0.00000000000E+00 -0.38044184533E+02  0.38044184533E+02  0.00000000000E+00 0. -1.
         23    2    1    2    0    0  0.26576746750E+02  0.62703627878E+02  0.29225769805E+03  0.31467455253E+03  0.94696586649E+02 0.  0.
         24    2    1    2    0    0 -0.14400283348E+02 -0.17117629881E+02  0.11066534041E+03  0.13845324267E+03  0.80138014839E+02 0.  0.
        -11    1    4    4    0    0 -0.17821022750E+02 -0.48437905314E+02  0.71685454312E+02  0.88332462226E+02  0.00000000000E+00 0.  1.
         12    1    4    4    0    0  0.34207394024E+01  0.31320275433E+02  0.38979886102E+02  0.50120780439E+02  0.00000000000E+00 0. -1.
        -11    1    3    3    0    0 -0.18607175750E+02  0.66112631271E+02  0.20740606843E+03  0.21848199977E+03  0.00000000000E+00 0. -1.
         11    1    3    3    0    0  0.45183922500E+02 -0.34090033935E+01  0.84851629621E+02  0.96192552757E+02  0.00000000000E+00 0.  1.
          1    1    1    2  501    0 -0.12176463402E+02 -0.45585997997E+02  0.30065125117E+02  0.55948737453E+02  0.00000000000E+00 0. -1.
<scales pt_clust_5="13000.00000" pt_clust_6="13000.00000" pt_clust_7="13000.00000" pt_clust_8="13000.00000" pt_clust_9="47.18421"></scales>
<clustering>
<clus scale="   47.184">  2  9  1 -1</clus>
<clus scale="   80.138">  5  6 -1 -1</clus>
<clus scale="   93.072">  2  5  1 -1</clus>
<clus scale="   94.697">  7  8 -1 -1</clus>
<clus scale="   47.184">  2  5  1 -1</clus>
</clustering>
</event>
<event>
 9    2  0.6100203E-005  0.9959175E+02  0.7546771E-02  0.1283707E+00
          2   -1    0    0  502    0 -0.00000000000E+00  0.00000000000E+00  0.63201373998E+03  0.63201373998E+03  0.00000000000E+00 0. -1.
         21   -1    0    0  501  502  0.00000000000E+00 -0.00000000000E+00 -0.13384823462E+03  0.13384823462E+03  0.00000000000E+00 0. -1.
         24    2    1    2    0    0 -0.33850501767E+02  0.23766972517E+02  0.51931770703E+03  0.52792278813E+03  0.85445093141E+02 0.  0.
         23    2    1    2    0    0  0.49023007935E+00 -0.63056147398E+02  0.71762757304E+02  0.13168601433E+03  0.90636609517E+02 0.  0.
        -13    1    3    3    0    0  0.25894588860E+02  0.14750935998E+02  0.10236073488E+03  0.10661069313E+03  0.00000000000E+00 0.  1.
         14    1    3    3    0    0 -0.59745090627E+02  0.90160365189E+01  0.41695697215E+03  0.42131209500E+03  0.00000000000E+00 0. -1.
        -13    1    4    4    0    0 -0.36356956638E+02 -0.55060309747E+02  0.66389380407E+02  0.93600298270E+02  0.00000000000E+00 0.  1.
         13    1    4    4    0    0  0.36847186717E+02 -0.79958376503E+01  0.53733768975E+01  0.38085716063E+02  0.00000000000E+00 0. -1.
          1    1    1    2  501    0  0.33360271688E+02  0.39289174881E+02 -0.92914958973E+02  0.10625317215E+03  0.00000000000E+00 0. -1.
<scales pt_clust_5="13000.00000" pt_clust_6="13000.00000" pt_clust_7="13000.00000" pt_clust_8="13000.00000" pt_clust_9="51.54170"></scales>
<clustering>
<clus scale="   51.542">  2  9  1 -1</clus>
<clus scale="   85.445">  5  6 -1 -1</clus>
<clus scale="   90.637">  7  8 -1 -1</clus>
<clus scale="   94.891">  1  5  2 -1</clus>
<clus scale="   51.542">  2  5  1 -1</clus>
</clustering>
</event>
<event>
 9    2  0.3745229E-005  0.1357966E+03  0.7546771E-02  0.1223092E+00
         21   -1    0    0  501  502  0.00000000000E+00  0.00000000000E+00  0.28287651733E+03  0.28287651733E+03  0.00000000000E+00 0. -1.
          2   -1    0    0  502    0 -0.00000000000E+00 -0.00000000000E+00 -0.13801001923E+03  0.13801001923E+03  0.00000000000E+00 0. -1.
         23    2    1    2    0    0 -0.46946897626E+02  0.70264105390E+02 -0.18419818085E+02  0.12432985392E+03  0.89317227765E+02 0.  0.
         24    2    1    2    0    0  0.11650975716E+03 -0.99228380140E+02  0.90069041336E+02  0.19149151250E+03  0.71664302216E+02 0.  0.
        -11    1    4    4    0    0  0.30864434538E+02 -0.12763365945E+02  0.55842618773E+02  0.65068540025E+02  0.00000000000E+00 0.  1.
         12    1    4    4    0    0  0.85645322623E+02 -0.86465014195E+02  0.34226422563E+02  0.12642297247E+03  0.00000000000E+00 0. -1.
        -11    1    3    3    0    0 -0.70471769943E+02  0.49549642752E+02 -0.29538625547E+02  0.91071224078E+02  0.00000000000E+00 0.  1.
         11    1    3    3    0    0  0.23524872317E+02  0.20714462638E+02  0.11118807463E+02  0.33258629847E+02  0.00000000000E+00 0. -1.
          1    1    1    2  501    0 -0.69562859536E+02  0.28964274750E+02  0.73217274852E+02  0.10506517013E+03  0.00000000000E+00 0. -1.
<scales pt_clust_5="13000.00000" pt_clust_6="13000.00000" pt_clust_7="13000.00000" pt_clust_8="13000.00000" pt_clust_9="75.35198"></scales>
<clustering>
<clus scale="   71.664">  5  6 -1 -1</clus>
<clus scale="   75.352">  1  9  2 -1</clus>
<clus scale="   89.317">  7  8 -1 -1</clus>
<clus scale="  124.896">  1  5  2 -1</clus>
<clus scale="   75.352">  1  5  2 -1</clus>
</clustering>
</event>
<event>
 9    2  0.3745229E-005  0.1524124E+03  0.7546771E-02  0.1210876E+00
          2   -1    0    0  502    0 -0.00000000000E+00  0.00000000000E+00  0.49818849860E+03  0.49818849860E+03  0.00000000000E+00 0. -1.
         21   -1    0    0  501  502  0.00000000000E+00 -0.00000000000E+00 -0.84759486549E+02  0.84759486549E+02  0.00000000000E+00 0. -1.
         24    2    1    2    0    0  0.78982776376E+02 -0.21999456037E+02  0.18019412753E+03  0.21339823395E+03  0.79665724293E+02 0.  0.
         23    2    1    2    0    0  0.11462443206E+02  0.12025789049E+03  0.14292203359E+03  0.20833105274E+03  0.91552018128E+02 0.  0.
        -13    1    3    3    0    0  0.30074014364E+02  0.29246591600E+02  0.50801635793E+02  0.65883348878E+02  0.00000000000E+00 0.  1.
         14    1    3    3    0    0  0.48908762012E+02 -0.51246047637E+02  0.12939249174E+03  0.14751488507E+03  0.00000000000E+00 0. -1.
        -13    1    4    4    0    0  0.53324316545E+01  0.47153876809E+02  0.12370579115E+03  0.13249545535E+03  0.00000000000E+00 0.  1.
         13    1    4    4    0    0  0.61300115513E+01  0.73104013683E+02  0.19216242437E+02  0.75835597391E+02  0.00000000000E+00 0. -1.
          1    1    1    2  501    0 -0.90445219582E+02 -0.98258434455E+02  0.90312850931E+02  0.16121869845E+03  0.00000000000E+00 0. -1.
<scales pt_clust_5="13000.00000" pt_clust_6="13000.00000" pt_clust_7="13000.00000" pt_clust_8="13000.00000" pt_clust_9="121.85147"></scales>
<clustering>
<clus scale="   79.666">  5  6 -1 -1</clus>
<clus scale="   91.552">  7  8 -1 -1</clus>
<clus scale="  114.319">  1  5  2 -1</clus>
<clus scale="  121.851">  2  9  1 -1</clus>
<clus scale="  121.851">  2  5  1 -1</clus>
</clustering>
</event>
<event>
 9    2  0.3745229E-005  0.1018843E+03  0.7546771E-02  0.1283422E+00
          2   -1    0    0  502    0 -0.00000000000E+00  0.00000000000E+00  0.44274151756E+02  0.44274151756E+02  0.00000000000E+00 0. -1.
         21   -1    0    0  501  502  0.00000000000E+00 -0.00000000000E+00 -0.39952946702E+03  0.39952946702E+03  0.00000000000E+00 0.  1.
         24    2    1    2    0    0 -0.40443816548E+02 -0.15891694068E+02 -0.37803856162E+02  0.96439831182E+02  0.77351543361E+02 0.  0.
         23    2    1    2    0    0  0.52099097042E+02 -0.11202897961E+02 -0.20174085240E+03  0.22795312231E+03  0.91779265677E+02 0.  0.
        -13    1    3    3    0    0  0.13534772587E+02 -0.19352802064E+02  0.86397988560E+01  0.25146911162E+02  0.00000000000E+00 0.  1.
         14    1    3    3    0    0 -0.53978589135E+02  0.34611079963E+01 -0.46443655018E+02  0.71292920020E+02  0.00000000000E+00 0. -1.
        -13    1    4    4    0    0  0.77268603251E+02 -0.11229937795E+02 -0.12694063761E+03  0.14903178865E+03  0.00000000000E+00 0.  1.
         13    1    4    4    0    0 -0.25169506209E+02  0.27039833835E-01 -0.74800214792E+02  0.78921333661E+02  0.00000000000E+00 0. -1.
          1    1    1    2  501    0 -0.11655280494E+02  0.27094592028E+02 -0.11571060670E+03  0.11941066529E+03  0.00000000000E+00 0. -1.
<scales pt_clust_5="13000.00000" pt_clust_6="13000.00000" pt_clust_7="13000.00000" pt_clust_8="13000.00000" pt_clust_9="29.49513"></scales>
<clustering>
<clus scale="   29.495">  2  9  1 -1</clus>
<clus scale="   77.352">  5  6 -1 -1</clus>
<clus scale="   89.108">  1  5  2 -1</clus>
<clus scale="   91.779">  7  8 -1 -1</clus>
<clus scale="   29.495">  2  5  1 -1</clus>
</clustering>
</event>
<event>
 9    2  0.3745229E-005  0.1468934E+03  0.7546771E-02  0.1210834E+00
          2   -1    0    0  502    0 -0.00000000000E+00  0.00000000000E+00  0.17277425607E+04  0.17277425607E+04  0.00000000000E+00 0. -1.
         21   -1    0    0  501  502  0.00000000000E+00 -0.00000000000E+00 -0.17289154855E+03  0.17289154855E+03  0.00000000000E+00 0. -1.
         24    2    1    2    0    0  0.59668754523E+02  0.80666801631E+02  0.13596706253E+04  0.13656644929E+04  0.79169468242E+02 0.  0.
         23    2    1    2    0    0 -0.12407424528E+02  0.10693526765E+03 -0.10626415573E+03  0.17678393550E+03  0.91495319045E+02 0.  0.
        -11    1    3    3    0    0  0.61686037348E+01  0.24585774040E+02  0.86516097134E+02  0.90152909107E+02  0.00000000000E+00 0.  1.
         12    1    3    3    0    0  0.53500150789E+02  0.56081027591E+02  0.12731545282E+04  0.12755115838E+04  0.00000000000E+00 0. -1.
        -13    1    4    4    0    0  0.29203265798E+02  0.91666651506E+02 -0.81010994607E+02  0.12577116911E+03  0.00000000000E+00 0. -1.
         13    1    4    4    0    0 -0.41610690325E+02  0.15268616145E+02 -0.25253161122E+02  0.51012766392E+02  0.00000000000E+00 0.  1.
          1    1    1    2  501    0 -0.47261329996E+02 -0.18760206928E+03  0.30144454257E+03  0.35818568083E+03  0.00000000000E+00 0. -1.
<scales pt_clust_5="13000.00000" pt_clust_6="13000.00000" pt_clust_7="13000.00000" pt_clust_8="13000.00000" pt_clust_9="114.91858"></scales>
<clustering>
<clus scale="   79.169">  5  6 -1 -1</clus>
<clus scale="   91.495">  7  8 -1 -1</clus>
<clus scale="  127.810">  1  5  2 -1</clus>
<clus scale="  114.919">  2  9  1 -1</clus>
<clus scale="  114.919">  2  5  1 -1</clus>
</clustering>
</event>
<event>
 9    2  0.3745229E-005  0.1182656E+03  0.7546771E-02  0.1252004E+00
          2   -1    0    0  502    0 -0.00000000000E+00  0.00000000000E+00  0.17859039564E+03  0.17859039564E+03  0.00000000000E+00 0. -1.
         21   -1    0    0  501  502  0.00000000000E+00 -0.00000000000E+00 -0.30915435679E+03  0.30915435679E+03  0.00000000000E+00 0. -1.
         23    2    1    2    0    0 -0.37690317182E+00  0.53997123832E+02 -0.22866375458E+02  0.10914204259E+03  0.92050436697E+02 0.  0.
         24    2    1    2    0    0 -0.24772635644E+01 -0.14314004992E+03 -0.19555417435E+03  0.25340930862E+03  0.74024535542E+02 0.  0.
        -11    1    4    4    0    0  0.27285913042E+02 -0.38337499736E+02 -0.90809668330E+02  0.10227746965E+03  0.00000000000E+00 0.  1.
         12    1    4    4    0    0 -0.29763176607E+02 -0.10480255019E+03 -0.10474450602E+03  0.15113183896E+03  0.00000000000E+00 0. -1.
        -11    1    3    3    0    0 -0.45017937038E+02  0.39180188917E+02 -0.13258661319E+02  0.61135046893E+02  0.00000000000E+00 0. -1.
         11    1    3    3    0    0  0.44641033866E+02  0.14816934916E+02 -0.96077141389E+01  0.48006995697E+02  0.00000000000E+00 0.  1.
          1    1    1    2  501    0  0.28541667362E+01  0.89142926091E+02  0.87856588656E+02  0.12519340122E+03  0.00000000000E+00 0. -1.
<scales pt_clust_5="13000.00000" pt_clust_6="13000.00000" pt_clust_7="13000.00000" pt_clust_8="13000.00000" pt_clust_9="89.18865"></scales>
<clustering>
<clus scale="   74.025">  5  6 -1 -1</clus>
<clus scale="   89.189">  2  9  1 -1</clus>
<clus scale="   92.050">  7  8 -1 -1</clus>
<clus scale="  104.848">  2  5  1 -1</clus>
<clus scale="   89.189">  2  5  1 -1</clus>
</clustering>
</event>
<event>
 9    2  0.3745229E-005  0.1135294E+03  0.7546771E-02  0.1260935E+00
          2   -1    0    0  502    0 -0.00000000000E+00  0.00000000000E+00  0.76000682844E+03  0.76000682844E+03  0.00000000000E+00 0. -1.
         21   -1    0    0  501  502  0.00000000000E+00 -0.00000000000E+00 -0.19562450846E+02  0.19562450846E+02  0.00000000000E+00 0.  1.
         24    2    1    2    0    0 -0.44661261951E+02 -0.23906357028E+02  0.32835707206E+03  0.34198746648E+03  0.81061200552E+02 0.  0.
         23    2    1    2    0    0  0.48445064670E+02  0.47842772384E+02  0.37285066539E+03  0.39146475443E+03  0.97934570602E+02 0.  0.
        -13    1    3    3    0    0 -0.11563967356E+02  0.29733490315E+02  0.92178220860E+02  0.97542965858E+02  0.00000000000E+00 0.  1.
         14    1    3    3    0    0 -0.33097294595E+02 -0.53639847343E+02  0.23617885120E+03  0.24444450062E+03  0.00000000000E+00 0. -1.
        -13    1    4    4    0    0 -0.23005364451E+02 -0.11600816253E+02  0.66164960926E+02  0.71004420888E+02  0.00000000000E+00 0.  1.
         13    1    4    4    0    0  0.71450429121E+02  0.59443588638E+02  0.30668570446E+03  0.32046033354E+03  0.00000000000E+00 0. -1.
          1    1    1    2  501    0 -0.37838027190E+01 -0.23936415357E+02  0.39236640153E+02  0.46117058380E+02  0.00000000000E+00 0. -1.
<scales pt_clust_5="13000.00000" pt_clust_6="13000.00000" pt_clust_7="13000.00000" pt_clust_8="13000.00000" pt_clust_9="24.23364"></scales>
<clustering>
<clus scale="   24.234">  2  9  1 -1</clus>
<clus scale="   81.061">  5  6 -1 -1</clus>
<clus scale="   97.935">  7  8 -1 -1</clus>
<clus scale="   99.341">  1  5  2 -1</clus>
<clus scale="   24.234">  2  5  1 -1</clus>
</clustering>
</event>
<event>
 9    2  0.3745229E-005  0.3140008E+03  0.7546771E-02  0.1078643E+00
         21   -1    0    0  501  502  0.00000000000E+00  0.00000000000E+00  0.68713594035E+03  0.68713594035E+03  0.00000000000E+00 0.  1.
          2   -1    0    0  502    0 -0.00000000000E+00 -0.00000000000E+00 -0.22597217673E+03  0.22597217673E+03  0.00000000000E+00 0. -1.
         24    2    1    2    0    0  0.31124241054E+03  0.68574949637E+01  0.34464731752E+02  0.32474855935E+03  0.85760980110E+02 0.  0.
         23    2    1    2    0    0 -0.27046666887E+03 -0.10051562314E+03  0.31143471206E+03  0.43434537168E+03  0.91699032500E+02 0.  0.
        -13    1    3    3    0    0  0.92314270925E+01  0.17993128217E+02 -0.20849018013E+01  0.20330241630E+02  0.00000000000E+00 0.  1.
         14    1    3    3    0    0  0.30201098345E+03 -0.11135633253E+02  0.36549633554E+02  0.30441831772E+03  0.00000000000E+00 0. -1.
        -11    1    4    4    0    0 -0.12438026706E+03 -0.74306986805E+02  0.10010744125E+03  0.17610644200E+03  0.00000000000E+00 0.  1.
         11    1    4    4    0    0 -0.14608640181E+03 -0.26208636330E+02  0.21132727081E+03  0.25823892968E+03  0.00000000000E+00 0. -1.
          1    1    1    2  501    0 -0.40775741670E+02  0.93658128172E+02  0.11526431980E+03  0.15401418604E+03  0.00000000000E+00 0. -1.
<scales pt_clust_5="13000.00000" pt_clust_6="13000.00000" pt_clust_7="13000.00000" pt_clust_8="13000.00000" pt_clust_9="102.14943"></scales>
<clustering>
<clus scale="   85.761">  5  6 -1 -1</clus>
<clus scale="   91.699">  7  8 -1 -1</clus>
<clus scale="  102.149">  1  9  2 -1</clus>
<clus scale="  312.318">  2  5  1 -1</clus>
<clus scale="  102.149">  1  5  2 -1</clus>
</clustering>
</event>
<event>
 9    2  0.3745229E-005  0.1041972E+03  0.7546771E-02  0.1274529E+00
         21   -1    0    0  501  502  0.00000000000E+00  0.00000000000E+00  0.92988483359E+02  0.92988483359E+02  0.00000000000E+00 0.  1.
          2   -1    0    0  502    0 -0.00000000000E+00 -0.00000000000E+00 -0.65371609719E+03  0.65371609719E+03  0.00000000000E+00 0. -1.
         23    2    1    2    0    0  0.22441702464E+02 -0.48989927063E+02 -0.59382762079E+03  0.60276815443E+03  0.88286815700E+02 0.  0.
         24    2    1    2    0    0 -0.34629952857E+02  0.66287681425E+02  0.79387725706E+01  0.11106009010E+03  0.81719209251E+02 0.  0.
        -13    1    4    4    0    0 -0.83864702175E+01  0.55145903014E+02  0.39635164873E+02  0.68427697582E+02  0.00000000000E+00 0.  1.
         14    1    4    4    0    0 -0.26243482639E+02  0.11141778411E+02 -0.31696392302E+02  0.42632392522E+02  0.00000000000E+00 0. -1.
        -13    1    3    3    0    0 -0.28303799710E+02 -0.44085734282E+02 -0.31127670771E+03  0.31565463058E+03  0.00000000000E+00 0.  1.
         13    1    3    3    0    0  0.50745502174E+02 -0.49041927813E+01 -0.28255091308E+03  0.28711352385E+03  0.00000000000E+00 0. -1.
          1    1    1    2  501    0  0.12188250393E+02 -0.17297754362E+02  0.25161234386E+02  0.32876336010E+02  0.00000000000E+00 0. -1.
<scales pt_clust_5="13000.00000" pt_clust_6="13000.00000" pt_clust_7="13000.00000" pt_clust_8="13000.00000" pt_clust_9="21.16048"></scales>
<clustering>
<clus scale="   21.160">  1  9  2 -1</clus>
<clus scale="   81.719">  5  6 -1 -1</clus>
<clus scale="   88.287">  7  8 -1 -1</clus>
<clus scale="   98.694">  1  5  2 -1</clus>
<clus scale="   21.160">  1  5  2 -1</clus>
</clustering>
</event>
<event>
 9    2  0.3745229E-005  0.1108355E+03  0.7546771E-02  0.1263937E+00
         -1   -1    0    0    0  501 -0.00000000000E+00  0.00000000000E+00  0.60304920345E+02  0.60304920345E+02  0.00000000000E+00 0.  1.
         21   -1    0    0  501  502  0.00000000000E+00 -0.00000000000E+00 -0.34049743277E+03  0.34049743277E+03  0.00000000000E+00 0.  1.
         23    2    1    2    0    0 -0.23698439265E+02 -0.62543292751E+02 -0.71736266650E+02  0.13473019015E+03  0.92373441495E+02 0.  0.
         24    2    1    2    0    0  0.66067893210E+02  0.20724008390E+02 -0.13766890084E+03  0.17357961529E+03  0.79891836561E+02 0.  0.
        -13    1    4    4    0    0  0.47936280366E+02  0.91578998959E+01 -0.18036579875E+02  0.52029533146E+02  0.00000000000E+00 0.  1.
         14    1    4    4    0    0  0.18131612844E+02  0.11566108494E+02 -0.11963232096E+03  0.12155008214E+03  0.00000000000E+00 0. -1.
        -11    1    3    3    0    0  0.26678347499E+02 -0.54789687175E+02 -0.26021483855E+02  0.66262822668E+02  0.00000000000E+00 0. -1.
         11    1    3    3    0    0 -0.50376786764E+02 -0.77536055761E+01 -0.45714782796E+02  0.68467367484E+02  0.00000000000E+00 0.  1.
         -2    1    1    2    0  502 -0.42369453945E+02  0.41819284361E+02 -0.70787344934E+02  0.92492547672E+02  0.00000000000E+00 0.  1.
<scales pt_clust_5="13000.00000" pt_clust_6="13000.00000" pt_clust_7="13000.00000" pt_clust_8="13000.00000" pt_clust_9="59.53170"></scales>
<clustering>
<clus scale="   59.532">  2  9  1 -1</clus>
<clus scale="   79.892">  5  6 -1 -1</clus>
<clus scale="   92.373">  7  8 -1 -1</clus>
<clus scale="  100.670">  2  5  1 -1</clus>
<clus scale="   59.532">  2  5  1 -1</clus>
</clustering>
</event>
<event>
 9    2  0.3745229E-005  0.1109863E+03  0.7546771E-02  0.1263074E+00
          2   -1    0    0  502    0 -0.00000000000E+00  0.00000000000E+00  0.95653459241E+02  0.95653459241E+02  0.00000000000E+00 0. -1.
         21   -1    0    0  501  502  0.00000000000E+00 -0.00000000000E+00 -0.40946233094E+03  0.40946233094E+03  0.00000000000E+00 0.  1.
         24    2    1    2    0    0 -0.61191120360E+02 -0.13528120028E+00  0.31620813416E+02  0.10563452924E+03  0.80089989484E+02 0.  0.
         23    2    1    2    0    0  0.70948775903E+02 -0.66316317771E+02 -0.22115566702E+03  0.25821888654E+03  0.91299405832E+02 0.  0.
        -11    1    3    3    0    0  0.14890085002E+02 -0.16093589758E+02  0.59035590807E+00  0.21933234663E+02  0.00000000000E+00 0.  1.
         12    1    3    3    0    0 -0.76081205362E+02  0.15958308558E+02  0.31030457508E+02  0.83701294581E+02  0.00000000000E+00 0. -1.
        -13    1    4    4    0    0 -0.16506162722E+02 -0.33550883010E+02 -0.87629922046E+02  0.95273912465E+02  0.00000000000E+00 0. -1.
         13    1    4    4    0    0  0.87454938625E+02 -0.32765434762E+02 -0.13352574498E+03  0.16294497408E+03  0.00000000000E+00 0.  1.
          1    1    1    2  501    0 -0.97576555437E+01  0.66451598971E+02 -0.12427401810E+03  0.14126237440E+03  0.00000000000E+00 0. -1.
<scales pt_clust_5="13000.00000" pt_clust_6="13000.00000" pt_clust_7="13000.00000" pt_clust_8="13000.00000" pt_clust_9="67.16418"></scales>
<clustering>
<clus scale="   67.164">  2  9  1 -1</clus>
<clus scale="   80.090">  5  6 -1 -1</clus>
<clus scale="   91.299">  7  8 -1 -1</clus>
<clus scale="  101.965">  1  5  2 -1</clus>
<clus scale="   67.164">  2  5  1 -1</clus>
</clustering>
</event>
<event>
 9    2  0.3745229E-005  0.9319774E+02  0.7546771E-02  0.1301410E+00
          2   -1    0    0  502    0 -0.00000000000E+00  0.00000000000E+00  0.10002152356E+04  0.10002152356E+04  0.00000000000E+00 0. -1.
         21   -1    0    0  501  502  0.00000000000E+00 -0.00000000000E+00 -0.25875461885E+02  0.25875461885E+02  0.00000000000E+00 0. -1.
         24    2    1    2    0    0  0.21429027928E+02 -0.20472132575E+01  0.44292838293E+03  0.45070673857E+03  0.80545747647E+02 0.  0.
         23    2    1    2    0    0  0.17367142971E+02  0.74077771641E+02  0.18686328256E+03  0.22125553151E+03  0.90812939324E+02 0.  0.
        -11    1    3    3    0    0  0.13714570038E+02 -0.22089230341E+02  0.43334201759E+02  0.50535893882E+02  0.00000000000E+00 0.  1.
         12    1    3    3    0    0  0.77144578902E+01  0.20042017084E+02  0.39959418117E+03  0.40017084468E+03  0.00000000000E+00 0. -1.
        -11    1    4    4    0    0  0.18659465460E+02  0.32543914328E+02  0.17364335340E+03  0.17764936305E+03  0.00000000000E+00 0.  1.
         11    1    4    4    0    0 -0.12923224886E+01  0.41533857313E+02  0.13219929153E+02  0.43606168458E+02  0.00000000000E+00 0. -1.
          1    1    1    2  501    0 -0.38796170899E+02 -0.72030558384E+02  0.34454810825E+03  0.35412842743E+03  0.00000000000E+00 0. -1.
<scales pt_clust_5="13000.00000" pt_clust_6="13000.00000" pt_clust_7="13000.00000" pt_clust_8="13000.00000" pt_clust_9="81.81412"></scales>
<clustering>
<clus scale="   80.546">  5  6 -1 -1</clus>
<clus scale="   81.814">  2  9  1 -1</clus>
<clus scale="   83.225">  1  5  2 -1</clus>
<clus scale="   90.813">  7  8 -1 -1</clus>
<clus scale="   81.814">  2  5  1 -1</clus>
</clustering>
</event>
<event>
 9    2  0.3745229E-005  0.2484817E+03  0.7546771E-02  0.1149845E+00
         21   -1    0    0  501  502  0.00000000000E+00  0.00000000000E+00  0.27056810522E+03  0.27056810522E+03  0.00000000000E+00 0. -1.
          2   -1    0    0  502    0 -0.00000000000E+00 -0.00000000000E+00 -0.32690450902E+03  0.32690450902E+03  0.00000000000E+00 0. -1.
         23    2    1    2    0    0  0.35779772991E+02  0.38630727642E+02 -0.10201937624E+02  0.10452616818E+03  0.89716860342E+02 0.  0.
         24    2    1    2    0    0  0.55627572111E+02 -0.24545209239E+03 -0.41959152623E+02  0.26678762378E+03  0.77935289029E+02 0.  0.
        -11    1    4    4    0    0  0.23359076178E+01 -0.34767252708E+02 -0.34951954301E+02  0.49354406437E+02  0.00000000000E+00 0.  1.
         12    1    4    4    0    0  0.53291664493E+02 -0.21068483968E+03 -0.70071983218E+01  0.21743321734E+03  0.00000000000E+00 0. -1.
        -11    1    3    3    0    0  0.36060558603E+02  0.66154720266E+02 -0.14323064201E+02  0.76693944144E+02  0.00000000000E+00 0. -1.
         11    1    3    3    0    0 -0.28078561241E+00 -0.27523992624E+02  0.41211265767E+01  0.27832224036E+02  0.00000000000E+00 0.  1.
          1    1    1    2  501    0 -0.91407345102E+02  0.20682136474E+03 -0.41753135482E+01  0.22615882228E+03  0.00000000000E+00 0. -1.
<scales pt_clust_5="13000.00000" pt_clust_6="13000.00000" pt_clust_7="13000.00000" pt_clust_8="13000.00000" pt_clust_9="235.94329"></scales>
<clustering>
<clus scale="   77.935">  5  6 -1 -1</clus>
<clus scale="   89.717">  7  8 -1 -1</clus>
<clus scale="  104.027">  2  7  1 -1</clus>
<clus scale="  235.943">  1  9  2 -1</clus>
<clus scale="  235.943">  1  5  2 -1</clus>
</clustering>
</event>
<event>
 9    2  0.3745229E-005  0.1420260E+03  0.7546771E-02  0.1222266E+00
         21   -1    0    0  501  502  0.00000000000E+00  0.00000000000E+00  0.71361299074E+02  0.71361299074E+02  0.00000000000E+00 0. -1.
          2   -1    0    0  502    0 -0.00000000000E+00 -0.00000000000E+00 -0.95594104100E+03  0.95594104100E+03  0.00000000000E+00 0. -1.
         23    2    1    2    0    0 -0.45394199774E+02 -0.39384172853E+02 -0.20236504402E+03  0.23084393205E+03  0.93410724634E+02 0.  0.
         24    2    1    2    0    0  0.19143306906E+02 -0.77830101354E+02 -0.66529073239E+03  0.67515417866E+03  0.82446440055E+02 0.  0.
        -13    1    4    4    0    0  0.40370131063E+02 -0.22925990440E+02 -0.16482477456E+03  0.17123829837E+03  0.00000000000E+00 0.  1.
         14    1    4    4    0    0 -0.21226824157E+02 -0.54904110914E+02 -0.50046595783E+03  0.50391588029E+03  0.00000000000E+00 0. -1.
        -11    1    3    3    0    0 -0.36188327201E+02  0.83647216251E+01 -0.16604690198E+03  0.17015033720E+03  0.00000000000E+00 0.  1.
         11    1    3    3    0    0 -0.92058725727E+01 -0.47748894478E+02 -0.36318142043E+02  0.60693594845E+02  0.00000000000E+00 0. -1.
          1    1    1    2  501    0  0.26250892868E+02  0.11721427421E+03 -0.16923965513E+02  0.12130422937E+03  0.00000000000E+00 0. -1.
<scales pt_clust_5="13000.00000" pt_clust_6="13000.00000" pt_clust_7="13000.00000" pt_clust_8="13000.00000" pt_clust_9="115.64590"></scales>
<clustering>
<clus scale="   82.446">  5  6 -1 -1</clus>
<clus scale="   93.411">  7  8 -1 -1</clus>
<clus scale="  111.073">  2  7  1 -1</clus>
<clus scale="  115.646">  1  9  2 -1</clus>
<clus scale="  115.646">  1  5  2 -1</clus>
</clustering>
</event>
<event>
 9    2  0.3745229E-005  0.1197087E+03  0.7546771E-02  0.1244700E+00
         21   -1    0    0  501  502  0.00000000000E+00  0.00000000000E+00  0.93568099007E+02  0.93568099007E+02  0.00000000000E+00 0. -1.
          2   -1    0    0  502    0 -0.00000000000E+00 -0.00000000000E+00 -0.27917410351E+03  0.27917410351E+03  0.00000000000E+00 0. -1.
         24    2    1    2    0    0 -0.52282205834E+02 -0.76498437565E+02 -0.18210429643E+03  0.21896416528E+03  0.78726684806E+02 0.  0.
         23    2    1    2    0    0  0.35238593223E+02  0.52971590728E+02  0.30866310339E+02  0.10877628236E+03  0.82654719241E+02 0.  0.
        -13    1    3    3    0    0 -0.77402057249E+01 -0.27125621888E+02 -0.35511415456E+01  0.28430982286E+02  0.00000000000E+00 0.  1.
         14    1    3    3    0    0 -0.44542000109E+02 -0.49372815677E+02 -0.17855315488E+03  0.19053318299E+03  0.00000000000E+00 0. -1.
        -11    1    4    4    0    0  0.50487959083E+02  0.97915055612E+01 -0.34609154028E+01  0.51544985488E+02  0.00000000000E+00 0.  1.
         11    1    4    4    0    0 -0.15249365860E+02  0.43180085167E+02  0.34327225742E+02  0.57231296869E+02  0.00000000000E+00 0. -1.
          1    1    1    2  501    0  0.17043612611E+02  0.23526846838E+02 -0.34368018411E+02  0.45001754882E+02  0.00000000000E+00 0. -1.
<scales pt_clust_5="13000.00000" pt_clust_6="13000.00000" pt_clust_7="13000.00000" pt_clust_8="13000.00000" pt_clust_9="29.05165"></scales>
<clustering>
<clus scale="   29.052">  1  9  2 -1</clus>
<clus scale="   78.727">  5  6 -1 -1</clus>
<clus scale="   82.655">  7  8 -1 -1</clus>
<clus scale="  117.031">  2  5  1 -1</clus>
<clus scale="   29.052">  1  5  2 -1</clus>
</clustering>
</event>
<event>
 9    2  0.3745229E-005  0.9137123E+02  0.7546771E-02  0.1310694E+00
         -3   -1    0    0    0  501 -0.00000000000E+00  0.00000000000E+00  0.37418464823E+03  0.37418464823E+03  0.00000000000E+00 0.  1.
         21   -1    0    0  501  502  0.00000000000E+00 -0.00000000000E+00 -0.10966074813E+03  0.10966074813E+03  0.00000000000E+00 0.  1.
         23    2    1    2    0    0 -0.63660238328E+01  0.14333701955E+02  0.33193930678E+03  0.34442557619E+03  0.90549946876E+02 0.  0.
         24    2    1    2    0    0  0.76169563093E+01  0.27186873550E+02 -0.32712151488E+02  0.85291833470E+02  0.73535487248E+02 0.  0.
        -13    1    4    4    0    0  0.13832524867E+02  0.20895224617E+02 -0.55474478737E+02  0.60871725350E+02  0.00000000000E+00 0.  1.
         14    1    4    4    0    0 -0.62155685574E+01  0.62916489334E+01  0.22762327249E+02  0.24420108120E+02  0.00000000000E+00 0. -1.
        -13    1    3    3    0    0  0.40318654762E+02  0.17394123919E+02  0.13309134014E+03  0.14014797284E+03  0.00000000000E+00 0. -1.
         13    1    3    3    0    0 -0.46684678595E+02 -0.30604219632E+01  0.19884796664E+03  0.20427760336E+03  0.00000000000E+00 0.  1.
         -4    1    1    2    0  502 -0.12509324764E+01 -0.41520575506E+02 -0.34703255201E+02  0.54127986698E+02  0.00000000000E+00 0.  1.
<scales pt_clust_5="13000.00000" pt_clust_6="13000.00000" pt_clust_7="13000.00000" pt_clust_8="13000.00000" pt_clust_9="41.53942"></scales>
<clustering>
<clus scale="   41.539">  2  9  1 -1</clus>
<clus scale="   73.535">  5  6 -1 -1</clus>
<clus scale="   74.544">  2  5  1 -1</clus>
<clus scale="   90.550">  7  8 -1 -1</clus>
<clus scale="   41.539">  2  5  1 -1</clus>
</clustering>
</event>
<event>
 9    2  0.3745229E-005  0.1328067E+03  0.7546771E-02  0.1232501E+00
         21   -1    0    0  501  502  0.00000000000E+00  0.00000000000E+00  0.16988178653E+03  0.16988178653E+03  0.00000000000E+00 0.  1.
          2   -1    0    0  502    0 -0.00000000000E+00 -0.00000000000E+00 -0.11484413531E+03  0.11484413531E+03  0.00000000000E+00 0. -1.
         23    2    1    2    0    0  0.57757146657E+02 -0.62846227206E+02 -0.33146832960E+01  0.13923416834E+03  0.10995285464E+03 0.  0.
         24    2    1    2    0    0 -0.53042653936E+02  0.36128752373E+02  0.32862995946E+02  0.10826600591E+03  0.80763492053E+02 0.  0.
        -11    1    4    4    0    0  0.79775982876E+01 -0.19196892170E+02  0.68876357011E+01  0.21899823492E+02  0.00000000000E+00 0.  1.
         12    1    4    4    0    0 -0.61020252224E+02  0.55325644544E+02  0.25975360245E+02  0.86366182418E+02  0.00000000000E+00 0. -1.
        -11    1    3    3    0    0  0.43164994988E+02  0.24715731967E+02  0.54265679190E+01  0.50035305918E+02  0.00000000000E+00 0.  1.
         11    1    3    3    0    0  0.14592151669E+02 -0.87561959173E+02 -0.87412512150E+01  0.89198862422E+02  0.00000000000E+00 0. -1.
          1    1    1    2  501    0 -0.47144927206E+01  0.26717474833E+02  0.25489338569E+02  0.37225747592E+02  0.00000000000E+00 0. -1.
<scales pt_clust_5="13000.00000" pt_clust_6="13000.00000" pt_clust_7="13000.00000" pt_clust_8="13000.00000" pt_clust_9="27.13024"></scales>
<clustering>
<clus scale="   27.130">  1  9  2 -1</clus>
<clus scale="   80.763">  5  6 -1 -1</clus>
<clus scale="  109.867">  1  5  2 -1</clus>
<clus scale="  109.953">  7  8 -1 -1</clus>
<clus scale="   27.130">  1  5  2 -1</clus>
</clustering>
</event>
<event>
 9    2  0.3745229E-005  0.2068577E+03  0.7546771E-02  0.1144692E+00
          2   -1    0    0  502    0 -0.00000000000E+00  0.00000000000E+00  0.67222998161E+03  0.67222998161E+03  0.00000000000E+00 0. -1.
         21   -1    0    0  501  502  0.00000000000E+00 -0.00000000000E+00 -0.13714734573E+03  0.13714734573E+03  0.00000000000E+00 0. -1.
         23    2    1    2    0    0  0.37385279845E+02  0.15700011907E+03  0.17835561556E+03  0.25784565876E+03  0.92881438415E+02 0.  0.
         24    2    1    2    0    0  0.76828912163E+02 -0.22939074393E+03  0.14146350190E+03  0.29731981483E+03  0.99319458215E+02 0.  0.
        -11    1    4    4    0    0  0.28943604836E+02 -0.10719115227E+02 -0.28253532192E+01  0.30993778617E+02  0.00000000000E+00 0.  1.
         12    1    4    4    0    0  0.47885307327E+02 -0.21867162870E+03  0.14428885511E+03  0.26632603622E+03  0.00000000000E+00 0. -1.
        -11    1    3    3    0    0 -0.12536845369E+01  0.75282174318E+02  0.14138819014E+03  0.16018613487E+03  0.00000000000E+00 0.  1.
         11    1    3    3    0    0  0.38638964382E+02  0.81717944753E+02  0.36967425418E+02  0.97659523884E+02  0.00000000000E+00 0. -1.
          1    1    1    2  501    0 -0.11421419201E+03  0.72390624856E+02  0.21526351843E+03  0.25421185375E+03  0.00000000000E+00 0. -1.
<scales pt_clust_5="13000.00000" pt_clust_6="13000.00000" pt_clust_7="13000.00000" pt_clust_8="13000.00000" pt_clust_9="135.22316"></scales>
<clustering>
<clus scale="   92.881">  7  8 -1 -1</clus>
<clus scale="   99.319">  5  6 -1 -1</clus>
<clus scale="  135.223">  2  9  1 -1</clus>
<clus scale="  203.845">  1  7  2 -1</clus>
<clus scale="  135.223">  2  5  1 -1</clus>
</clustering>
</event>
<event>
 9    2  0.3745229E-005  0.1099009E+03  0.7546771E-02  0.1265932E+00
         21   -1    0    0  501  502  0.00000000000E+00  0.00000000000E+00  0.67576092383E+03  0.67576092383E+03  0.00000000000E+00 0.  1.
         -1   -1    0    0    0  501 -0.00000000000E+00 -0.00000000000E+00 -0.43118839346E+02  0.43118839346E+02  0.00000000000E+00 0.  1.
         24    2    1    2    0    0  0.31216674876E+02 -0.74574422288E+02  0.13189986606E+03  0.17401810497E+03  0.79679990849E+02 0.  0.
         23    2    1    2    0    0  0.54557469891E+02  0.25435600036E+02  0.32485809678E+03  0.34310177118E+03  0.92534075221E+02 0.  0.
        -13    1    3    3    0    0  0.38689095531E+02 -0.48844626416E+02  0.30951567966E+02  0.69574731061E+02  0.00000000000E+00 0.  1.
         14    1    3    3    0    0 -0.74724206546E+01 -0.25729795872E+02  0.10094829809E+03  0.10444337391E+03  0.00000000000E+00 0. -1.
        -11    1    4    4    0    0  0.13428093022E+02  0.55721112748E+02  0.13900977565E+03  0.15036247476E+03  0.00000000000E+00 0.  1.
         11    1    4    4    0    0  0.41129376869E+02 -0.30285512712E+02  0.18584832113E+03  0.19273929643E+03  0.00000000000E+00 0. -1.
         -2    1    1    2    0  502 -0.85774144767E+02  0.49138822252E+02  0.17588412165E+03  0.20175988702E+03  0.00000000000E+00 0.  1.
<scales pt_clust_5="13000.00000" pt_clust_6="13000.00000" pt_clust_7="13000.00000" pt_clust_8="13000.00000" pt_clust_9="98.85261"></scales>
<clustering>
<clus scale="   79.680">  5  6 -1 -1</clus>
<clus scale="   92.534">  7  8 -1 -1</clus>
<clus scale="   98.853">  1  9  2 -1</clus>
<clus scale="   99.320">  2  5  1 -1</clus>
<clus scale="   98.853">  1  5  2 -1</clus>
</clustering>
</event>
<event>
 9    2  0.3745229E-005  0.1775660E+03  0.7546771E-02  0.1170849E+00
         -1   -1    0    0    0  501 -0.00000000000E+00  0.00000000000E+00  0.47844018088E+03  0.47844018088E+03  0.00000000000E+00 0.  1.
         21   -1    0    0  501  502  0.00000000000E+00 -0.00000000000E+00 -0.10041448442E+03  0.10041448442E+03  0.00000000000E+00 0.  1.
         23    2    1    2    0    0 -0.11940096743E+03  0.94153887185E+02  0.25376907340E+03  0.30875939416E+03  0.88385945536E+02 0.  0.
         24    2    1    2    0    0  0.88594136357E+02 -0.13694845447E+03  0.11628332678E+03  0.21676601760E+03  0.82836550635E+02 0.  0.
        -13    1    4    4    0    0  0.75841009447E+02 -0.11470857195E+03  0.12864282157E+03  0.18830531255E+03  0.00000000000E+00 0.  1.
         14    1    4    4    0    0  0.12753126909E+02 -0.22239882522E+02 -0.12359494791E+02  0.28460705052E+02  0.00000000000E+00 0. -1.
        -11    1    3    3    0    0 -0.85984181620E+02  0.76526369921E+02  0.24391997780E+03  0.26971562868E+03  0.00000000000E+00 0.  1.
         11    1    3    3    0    0 -0.33416785806E+02  0.17627517264E+02  0.98490956027E+01  0.39043765478E+02  0.00000000000E+00 0. -1.
         -2    1    1    2    0  502  0.30806831070E+02  0.42794567284E+02  0.79732962770E+01  0.53329253539E+02  0.00000000000E+00 0.  1.
<scales pt_clust_5="13000.00000" pt_clust_6="13000.00000" pt_clust_7="13000.00000" pt_clust_8="13000.00000" pt_clust_9="52.72984"></scales>
<clustering>
<clus scale="   52.730">  2  9  1 -1</clus>
<clus scale="   82.837">  5  6 -1 -1</clus>
<clus scale="   88.386">  7  8 -1 -1</clus>
<clus scale="  174.870">  2  5  1 -1</clus>
<clus scale="   52.730">  2  5  1 -1</clus>
</clustering>
</event>
<event>
 9    2  0.3745229E-005  0.2460687E+03  0.7546771E-02  0.1116917E+00
          2   -1    0    0  502    0 -0.00000000000E+00  0.00000000000E+00  0.25725183301E+03  0.25725183301E+03  0.00000000000E+00 0. -1.
         21   -1    0    0  501  502  0.00000000000E+00 -0.00000000000E+00 -0.28886793796E+03  0.28886793796E+03  0.00000000000E+00 0. -1.
         24    2    1    2    0    0 -0.20085157062E+03 -0.74375965741E+02 -0.27606396284E+00  0.22869360212E+03  0.80172000972E+02 0.  0.
         23    2    1    2    0    0  0.21163443161E+03  0.10991400921E+03  0.14522243571E+02  0.25841285028E+03  0.98468693334E+02 0.  0.
        -11    1    3    3    0    0 -0.11785437827E+03 -0.78549504242E+02 -0.20652098868E+02  0.14312996989E+03  0.00000000000E+00 0.  1.
         12    1    3    3    0    0 -0.82997192351E+02  0.41735385014E+01  0.20376034905E+02  0.85563632229E+02  0.00000000000E+00 0. -1.
        -13    1    4    4    0    0  0.81948066647E+02  0.51428522628E+02  0.53965451068E+02  0.11078198624E+03  0.00000000000E+00 0.  1.
         13    1    4    4    0    0  0.12968636497E+03  0.58485486579E+02 -0.39443207497E+02  0.14763086404E+03  0.00000000000E+00 0. -1.
          1    1    1    2  501    0 -0.10782860997E+02 -0.35538043466E+02 -0.45862284558E+02  0.59013318578E+02  0.00000000000E+00 0. -1.
<scales pt_clust_5="13000.00000" pt_clust_6="13000.00000" pt_clust_7="13000.00000" pt_clust_8="13000.00000" pt_clust_9="37.13789"></scales>
<clustering>
<clus scale="   37.138">  2  9  1 -1</clus>
<clus scale="   80.172">  5  6 -1 -1</clus>
<clus scale="   98.469">  7  8 -1 -1</clus>
<clus scale="  239.335">  1  5  2 -1</clus>
<clus scale="   37.138">  2  5  1 -1</clus>
</clustering>
</event>
<event>
 9    2  0.3745229E-005  0.1112709E+03  0.7546771E-02  0.1264248E+00
         21   -1    0    0  501  502  0.00000000000E+00  0.00000000000E+00  0.13975822574E+03  0.13975822574E+03  0.00000000000E+00 0.  1.
         -3   -1    0    0    0  501 -0.00000000000E+00 -0.00000000000E+00 -0.20544594353E+03  0.20544594353E+03  0.00000000000E+00 0.  1.
         23    2    1    2    0    0  0.71583441041E+02 -0.24409158761E+01 -0.15035300334E+03  0.19067208654E+03  0.92842187997E+02 0.  0.
         24    2    1    2    0    0 -0.23923308886E+02 -0.30759891165E+01  0.50977135925E+02  0.95907720367E+02  0.77574712515E+02 0.  0.
        -11    1    4    4    0    0 -0.31470615837E+01 -0.39092522611E+02  0.19771545753E+02  0.43920875926E+02  0.00000000000E+00 0.  1.
         12    1    4    4    0    0 -0.20776247302E+02  0.36016533494E+02  0.31205590172E+02  0.51986844441E+02  0.00000000000E+00 0. -1.
        -11    1    3    3    0    0  0.31645822006E+02 -0.22167485057E+02 -0.13960068834E+03  0.14484891311E+03  0.00000000000E+00 0.  1.
         11    1    3    3    0    0  0.39937619034E+02  0.19726569180E+02 -0.10752315001E+02  0.45823173435E+02  0.00000000000E+00 0. -1.
         -4    1    1    2    0  502 -0.47660132155E+02  0.55169049926E+01  0.33688149623E+02  0.58624362365E+02  0.00000000000E+00 0.  1.
<scales pt_clust_5="13000.00000" pt_clust_6="13000.00000" pt_clust_7="13000.00000" pt_clust_8="13000.00000" pt_clust_9="47.97837"></scales>
<clustering>
<clus scale="   47.978">  1  9  2 -1</clus>
<clus scale="   77.575">  5  6 -1 -1</clus>
<clus scale="   92.842">  7  8 -1 -1</clus>
<clus scale="   98.891">  1  5  2 -1</clus>
<clus scale="   47.978">  1  5  2 -1</clus>
</clustering>
</event>
<event>
 9    2  0.3745229E-005  0.1104212E+03  0.7546771E-02  0.1262484E+00
         21   -1    0    0  501  502  0.00000000000E+00  0.00000000000E+00  0.18325489634E+03  0.18325489634E+03  0.00000000000E+00 0.  1.
         -3   -1    0    0    0  501 -0.00000000000E+00 -0.00000000000E+00 -0.24048756217E+03  0.24048756217E+03  0.00000000000E+00 0.  1.
         23    2    1    2    0    0 -0.27671993993E+02  0.31937925660E+02 -0.16668874821E+03  0.19526867732E+03  0.92514578385E+02 0.  0.
         24    2    1    2    0    0  0.71123748810E+02 -0.61296226927E+02  0.41319431569E+02  0.14249373680E+03  0.98900730642E+02 0.  0.
        -13    1    4    4    0    0  0.87271899919E+02 -0.27845713933E+02  0.49978705992E+02  0.10435343479E+03  0.00000000000E+00 0.  1.
         14    1    4    4    0    0 -0.16148151109E+02 -0.33450512994E+02 -0.86592744234E+01  0.38140302009E+02  0.00000000000E+00 0. -1.
        -13    1    3    3    0    0 -0.98980699165E+01  0.60791039775E+02 -0.13702648850E+03  0.15023242278E+03  0.00000000000E+00 0.  1.
         13    1    3    3    0    0 -0.17773924077E+02 -0.28853114114E+02 -0.29662259715E+02  0.45036254535E+02  0.00000000000E+00 0. -1.
         -4    1    1    2    0  502 -0.43451754817E+02  0.29358301266E+02  0.68136650814E+02  0.85980044394E+02  0.00000000000E+00 0.  1.
<scales pt_clust_5="13000.00000" pt_clust_6="13000.00000" pt_clust_7="13000.00000" pt_clust_8="13000.00000" pt_clust_9="52.44011"></scales>
<clustering>
<clus scale="   52.440">  1  9  2 -1</clus>
<clus scale="   92.515">  7  8 -1 -1</clus>
<clus scale="   98.901">  5  6 -1 -1</clus>
<clus scale="  104.740">  2  7  1 -1</clus>
<clus scale="   52.440">  1  5  2 -1</clus>
</clustering>
</event>
<event>
 9    2  0.3745229E-005  0.9704853E+02  0.7546771E-02  0.1297400E+00
         -3   -1    0    0    0  501 -0.00000000000E+00  0.00000000000E+00  0.23387144163E+03  0.23387144163E+03  0.00000000000E+00 0.  1.
         21   -1    0    0  501  502  0.00000000000E+00 -0.00000000000E+00 -0.44771514697E+02  0.44771514697E+02  0.00000000000E+00 0.  1.
         23    2    1    2    0    0 -0.10388630746E+02 -0.18479513824E+02  0.10367154493E+03  0.13990672956E+03  0.91524246330E+02 0.  0.
         24    2    1    2    0    0  0.25474231251E+02  0.35742016343E+02  0.76359605933E+02  0.11408238255E+03  0.72509119421E+02 0.  0.
        -11    1    4    4    0    0  0.11650709709E+02  0.56142150995E+02  0.65787251447E+02  0.87267649264E+02  0.00000000000E+00 0.  1.
         12    1    4    4    0    0  0.13823521542E+02 -0.20400134652E+02  0.10572354486E+02  0.26814733283E+02  0.00000000000E+00 0. -1.
        -13    1    3    3    0    0 -0.42826892689E+02 -0.36850400480E+02  0.58308095462E+02  0.81190693736E+02  0.00000000000E+00 0.  1.
         13    1    3    3    0    0  0.32438261943E+02  0.18370886657E+02  0.45363449473E+02  0.58716035821E+02  0.00000000000E+00 0. -1.
         -4    1    1    2    0  502 -0.15085600505E+02 -0.17262502519E+02  0.90687760700E+01  0.24653844228E+02  0.00000000000E+00 0.  1.
<scales pt_clust_5="13000.00000" pt_clust_6="13000.00000" pt_clust_7="13000.00000" pt_clust_8="13000.00000" pt_clust_9="22.92530"></scales>
<clustering>
<clus scale="   22.925">  2  9  1 -1</clus>
<clus scale="   72.509">  5  6 -1 -1</clus>
<clus scale="   79.368">  2  5  1 -1</clus>
<clus scale="   91.524">  7  8 -1 -1</clus>
<clus scale="   22.925">  2  5  1 -1</clus>
</clustering>
</event>
<event>
 9    2  0.3745229E-005  0.1060975E+03  0.7546771E-02  0.1271165E+00
          2   -1    0    0  502    0 -0.00000000000E+00  0.00000000000E+00  0.41463291804E+03  0.41463291804E+03  0.00000000000E+00 0. -1.
         21   -1    0    0  501  502  0.00000000000E+00 -0.00000000000E+00 -0.44320258481E+02  0.44320258481E+02  0.00000000000E+00 0. -1.
         23    2    1    2    0    0  0.18551568866E+02 -0.33277935855E+02  0.17352846117E+03  0.19966300065E+03  0.91113145442E+02 0.  0.
         24    2    1    2    0    0 -0.62907019516E+02  0.56235042884E+02  0.13443297403E+03  0.17940206696E+03  0.83625378744E+02 0.  0.
        -11    1    4    4    0    0 -0.43642178896E+02  0.63385996062E+02  0.48315904579E+02  0.90867215820E+02  0.00000000000E+00 0.  1.
         12    1    4    4    0    0 -0.19264840620E+02 -0.71509531777E+01  0.86117069450E+02  0.88534851138E+02  0.00000000000E+00 0. -1.
        -13    1    3    3    0    0  0.50035456178E+02 -0.17104477911E+02  0.14455070086E+03  0.15391885901E+03  0.00000000000E+00 0.  1.
         13    1    3    3    0    0 -0.31483887313E+02 -0.16173457944E+02  0.28977760305E+02  0.45744141641E+02  0.00000000000E+00 0. -1.
          1    1    1    2  501    0  0.44355450650E+02 -0.22957107029E+02  0.62351224358E+02  0.79888108905E+02  0.00000000000E+00 0. -1.
<scales pt_clust_5="13000.00000" pt_clust_6="13000.00000" pt_clust_7="13000.00000" pt_clust_8="13000.00000" pt_clust_9="49.94432"></scales>
<clustering>
<clus scale="   49.944">  2  9  1 -1</clus>
<clus scale="   83.625">  5  6 -1 -1</clus>
<clus scale="   91.113">  7  8 -1 -1</clus>
<clus scale="   99.741">  2  5  1 -1</clus>
<clus scale="   49.944">  2  5  1 -1</clus>
</clustering>
</event>
<event>
 9    2  0.3745229E-005  0.3385110E+03  0.7546771E-02  0.1085183E+00
         21   -1    0    0  501  502  0.00000000000E+00  0.00000000000E+00  0.10146504818E+03  0.10146504818E+03  0.00000000000E+00 0. -1.
          2   -1    0    0  502    0 -0.00000000000E+00 -0.00000000000E+00 -0.20500490597E+04  0.20500490597E+04  0.00000000000E+00 0. -1.
         24    2    1    2    0    0 -0.18902855677E+03  0.29484220992E+02 -0.44244257108E+03  0.48938097680E+03  0.84481934101E+02 0.  0.
         23    2    1    2    0    0  0.43352971838E+03 -0.82949274836E+02 -0.88528777699E+03  0.99273145687E+03  0.83382842668E+02 0.  0.
        -13    1    3    3    0    0 -0.57818990773E+02  0.37386180540E+02 -0.22495754975E+03  0.23525871159E+03  0.00000000000E+00 0.  1.
         14    1    3    3    0    0 -0.13120956599E+03 -0.79019595480E+01 -0.21748502133E+03  0.25412226521E+03  0.00000000000E+00 0. -1.
        -13    1    4    4    0    0  0.20454969300E+02 -0.20101796510E+02 -0.34364578610E+02  0.44759493462E+02  0.00000000000E+00 0.  1.
         13    1    4    4    0    0  0.41307474908E+03 -0.62847478326E+02 -0.85092319839E+03  0.94797196341E+03  0.00000000000E+00 0. -1.
          1    1    1    2  501    0 -0.24450116161E+03  0.53465053844E+02 -0.62085366343E+03  0.66940167419E+03  0.00000000000E+00 0. -1.
<scales pt_clust_5="13000.00000" pt_clust_6="13000.00000" pt_clust_7="13000.00000" pt_clust_8="13000.00000" pt_clust_9="328.08082"></scales>
<clustering>
<clus scale="   83.383">  7  8 -1 -1</clus>
<clus scale="   84.482">  5  6 -1 -1</clus>
<clus scale="  209.137">  2  5  1 -1</clus>
<clus scale="  328.081">  1  9  2 -1</clus>
<clus scale="  328.081">  1  5  2 -1</clus>
</clustering>
</event>
<event>
 9    2  0.3745229E-005  0.1494862E+03  0.7546771E-02  0.1218716E+00
          2   -1    0    0  502    0 -0.00000000000E+00  0.00000000000E+00  0.37293871313E+03  0.37293871313E+03  0.00000000000E+00 0. -1.
         21   -1    0    0  501  502  0.00000000000E+00 -0.00000000000E+00 -0.10360356243E+03  0.10360356243E+03  0.00000000000E+00 0.  1.
         24    2    1    2    0    0 -0.29507060610E+02 -0.56446844065E+02  0.19508923095E+02  0.10446307148E+03  0.80467523838E+02 0.  0.
         23    2    1    2    0    0 -0.60733814133E+02 -0.55095718660E+02  0.16377723700E+03  0.20477831479E+03  0.91580786491E+02 0.  0.
        -11    1    3    3    0    0  0.13171466972E+02 -0.44654165895E+02 -0.14356034761E+02  0.48719378157E+02  0.00000000000E+00 0.  1.
         12    1    3    3    0    0 -0.42678527582E+02 -0.11792678170E+02  0.33864957857E+02  0.55743693326E+02  0.00000000000E+00 0. -1.
        -11    1    4    4    0    0 -0.27216532938E+01  0.24222731299E+02  0.38328379651E+02  0.45422602248E+02  0.00000000000E+00 0. -1.
         11    1    4    4    0    0 -0.58012160839E+02 -0.79318449959E+02  0.12544885735E+03  0.15935571254E+03  0.00000000000E+00 0.  1.
          1    1    1    2  501    0  0.90240874743E+02  0.11154256272E+03  0.86048990601E+02  0.16730088929E+03  0.00000000000E+00 0. -1.
<scales pt_clust_5="13000.00000" pt_clust_6="13000.00000" pt_clust_7="13000.00000" pt_clust_8="13000.00000" pt_clust_9="118.14853"></scales>
<clustering>
<clus scale="   80.468">  5  6 -1 -1</clus>
<clus scale="   91.581">  7  8 -1 -1</clus>
<clus scale="  102.625">  1  5  2 -1</clus>
<clus scale="  118.149">  2  9  1 -1</clus>
<clus scale="  118.149">  2  5  1 -1</clus>
</clustering>
</event>
<event>
 9    2  0.3745229E-005  0.9458066E+02  0.7546771E-02  0.1298253E+00
         21   -1    0    0  501  502  0.00000000000E+00  0.00000000000E+00  0.34152448104E+03  0.34152448104E+03  0.00000000000E+00 0. -1.
         -3   -1    0    0    0  501 -0.00000000000E+00 -0.00000000000E+00 -0.37632737337E+02  0.37632737337E+02  0.00000000000E+00 0.  1.
         23    2    1    2    0    0 -0.88749756712E+01 -0.22442049583E+02  0.66832942034E+02  0.11500266554E+03  0.90424333875E+02 0.  0.
         24    2    1    2    0    0  0.34986691818E+02  0.20993412012E+02  0.19578014382E+03  0.21528894260E+03  0.79716197458E+02 0.  0.
        -13    1    4    4    0    0 -0.63875538816E+01 -0.26090147471E+02  0.57159529698E+02  0.63156222773E+02  0.00000000000E+00 0.  1.
         14    1    4    4    0    0  0.41374245700E+02  0.47083559483E+02  0.13862061412E+03  0.15213271982E+03  0.00000000000E+00 0. -1.
        -11    1    3    3    0    0  0.21207192163E+02  0.26973873549E+02  0.34813847131E+02  0.48880863390E+02  0.00000000000E+00 0. -1.
         11    1    3    3    0    0 -0.30082167834E+02 -0.49415923132E+02  0.32019094904E+02  0.66121802146E+02  0.00000000000E+00 0.  1.
         -4    1    1    2    0  502 -0.26111716147E+02  0.14486375714E+01  0.41278657848E+02  0.48865610246E+02  0.00000000000E+00 0.  1.
<scales pt_clust_5="13000.00000" pt_clust_6="13000.00000" pt_clust_7="13000.00000" pt_clust_8="13000.00000" pt_clust_9="26.15187"></scales>
<clustering>
<clus scale="   26.152">  1  9  2 -1</clus>
<clus scale="   79.716">  5  6 -1 -1</clus>
<clus scale="   84.401">  1  5  2 -1</clus>
<clus scale="   90.424">  7  8 -1 -1</clus>
<clus scale="   26.152">  1  5  2 -1</clus>
</clustering>
</event>
<event>
 9    2  0.3745229E-005  0.9311210E+02  0.7546771E-02  0.1302504E+00
          2   -1    0    0  502    0 -0.00000000000E+00  0.00000000000E+00  0.58993025830E+02  0.58993025830E+02  0.00000000000E+00 0. -1.
         21   -1    0    0  501  502  0.00000000000E+00 -0.00000000000E+00 -0.26282447639E+03  0.26282447639E+03  0.00000000000E+00 0. -1.
         23    2    1    2    0    0  0.16177335983E+02 -0.29621293897E+02 -0.21850817755E+01  0.95040407457E+02  0.88818788640E+02 0.  0.
         24    2    1    2    0    0 -0.11206352553E+02  0.53470637529E+01 -0.13759858628E+03  0.15810346541E+03  0.76871069974E+02 0.  0.
        -13    1    4    4    0    0  0.17241661917E+02  0.31089334416E+02 -0.41592437747E+02  0.54715194397E+02  0.00000000000E+00 0.  1.
         14    1    4    4    0    0 -0.28448014470E+02 -0.25742270664E+02 -0.96006148536E+02  0.10338827101E+03  0.00000000000E+00 0. -1.
        -13    1    3    3    0    0 -0.24380373037E+02 -0.12528997639E+02  0.29908435979E+02  0.40569605790E+02  0.00000000000E+00 0. -1.
         13    1    3    3    0    0  0.40557709021E+02 -0.17092296259E+02 -0.32093517754E+02  0.54470801667E+02  0.00000000000E+00 0.  1.
          1    1    1    2  501    0 -0.49709834303E+01  0.24274230145E+02 -0.64047782497E+02  0.68673629351E+02  0.00000000000E+00 0. -1.
<scales pt_clust_5="13000.00000" pt_clust_6="13000.00000" pt_clust_7="13000.00000" pt_clust_8="13000.00000" pt_clust_9="24.77799"></scales>
<clustering>
<clus scale="   24.778">  2  9  1 -1</clus>
<clus scale="   76.871">  5  6 -1 -1</clus>
<clus scale="   81.794">  2  5  1 -1</clus>
<clus scale="   88.819">  7  8 -1 -1</clus>
<clus scale="   24.778">  2  5  1 -1</clus>
</clustering>
</event>
<event>
 9    2  0.3745229E-005  0.1159894E+03  0.7546771E-02  0.1253346E+00
          2   -1    0    0  502    0 -0.00000000000E+00  0.00000000000E+00  0.94000991313E+03  0.94000991313E+03  0.00000000000E+00 0. -1.
         21   -1    0    0  501  502  0.00000000000E+00 -0.00000000000E+00 -0.43298697689E+02  0.43298697689E+02  0.00000000000E+00 0. -1.
         24    2    1    2    0    0  0.58383005290E+02  0.46580654105E+02  0.66482778240E+03  0.67394882569E+03  0.81441431448E+02 0.  0.
         23    2    1    2    0    0 -0.14748597723E+02 -0.72469089429E+02  0.23027719090E+03  0.25859806115E+03  0.91520940340E+02 0.  0.
        -11    1    3    3    0    0  0.34438933937E+02  0.33883402012E+02  0.13423838171E+03  0.14266768459E+03  0.00000000000E+00 0.  1.
         12    1    3    3    0    0  0.23944071353E+02  0.12697252093E+02  0.53058940069E+03  0.53128114110E+03  0.00000000000E+00 0. -1.
        -11    1    4    4    0    0 -0.32612716354E+02  0.86544959340E+01  0.81371727937E+02  0.88089997589E+02  0.00000000000E+00 0.  1.
         11    1    4    4    0    0  0.17864118631E+02 -0.81123585363E+02  0.14890546297E+03  0.17050806356E+03  0.00000000000E+00 0. -1.
          1    1    1    2  501    0 -0.43634407567E+02  0.25888435324E+02  0.16062421332E+01  0.50761723976E+02  0.00000000000E+00 0. -1.
<scales pt_clust_5="13000.00000" pt_clust_6="13000.00000" pt_clust_7="13000.00000" pt_clust_8="13000.00000" pt_clust_9="50.73630"></scales>
<clustering>
<clus scale="   50.736">  2  9  1 -1</clus>
<clus scale="   81.441">  5  6 -1 -1</clus>
<clus scale="   91.521">  7  8 -1 -1</clus>
<clus scale="  108.213">  1  5  2 -1</clus>
<clus scale="   50.736">  2  5  1 -1</clus>
</clustering>
</event>
<event>
 9    2  0.3745229E-005  0.1105826E+03  0.7546771E-02  0.1267555E+00
         21   -1    0    0  501  502  0.00000000000E+00  0.00000000000E+00  0.27780337673E+03  0.27780337673E+03  0.00000000000E+00 0.  1.
          4   -1    0    0  502    0 -0.00000000000E+00 -0.00000000000E+00 -0.24490831269E+03  0.24490831269E+03  0.00000000000E+00 0. -1.
         23    2    1    2    0    0 -0.44285343601E+02 -0.13340436981E+02 -0.13824796562E+03  0.17594519673E+03  0.98514229112E+02 0.  0.
         24    2    1    2    0    0  0.80935037604E+02  0.75328060702E+02  0.22060326795E+03  0.25940528427E+03  0.80003141387E+02 0.  0.
        -11    1    4    4    0    0  0.13252228741E+02  0.28133137500E+02  0.14227892158E+03  0.14563786087E+03  0.00000000000E+00 0.  1.
         12    1    4    4    0    0  0.67682808863E+02  0.47194923202E+02  0.78324346374E+02  0.11376742340E+03  0.00000000000E+00 0. -1.
        -13    1    3    3    0    0 -0.13192907562E+02  0.39655322398E+02 -0.29897041251E+02  0.51385119247E+02  0.00000000000E+00 0. -1.
         13    1    3    3    0    0 -0.31092436039E+02 -0.52995759379E+02 -0.10835092437E+03  0.12456007748E+03  0.00000000000E+00 0.  1.
          3    1    1    2  501    0 -0.36649694002E+02 -0.61987623721E+02 -0.49460238300E+02  0.87361208426E+02  0.00000000000E+00 0. -1.
<scales pt_clust_5="13000.00000" pt_clust_6="13000.00000" pt_clust_7="13000.00000" pt_clust_8="13000.00000" pt_clust_9="72.01160"></scales>
<clustering>
<clus scale="   72.012">  1  9  2 -1</clus>
<clus scale="   80.003">  5  6 -1 -1</clus>
<clus scale="   94.467">  1  5  2 -1</clus>
<clus scale="   98.514">  7  8 -1 -1</clus>
<clus scale="   72.012">  1  5  2 -1</clus>
</clustering>
</event>
<event>
 9    2  0.3745229E-005  0.1421306E+03  0.7546771E-02  0.1216549E+00
         21   -1    0    0  501  502  0.00000000000E+00  0.00000000000E+00  0.21050494682E+02  0.21050494682E+02  0.00000000000E+00 0.  1.
          2   -1    0    0  502    0 -0.00000000000E+00 -0.00000000000E+00 -0.12656624054E+04  0.12656624054E+04  0.00000000000E+00 0. -1.
         23    2    1    2    0    0  0.95015086378E+02 -0.84961463564E+02 -0.61891388264E+03  0.63912166386E+03  0.95790344838E+02 0.  0.
         24    2    1    2    0    0 -0.72580520530E+02  0.44607588992E+02 -0.31056680153E+03  0.32909565558E+03  0.67782323324E+02 0.  0.
        -11    1    4    4    0    0 -0.11306434376E+02  0.45975738696E+02 -0.12476780332E+03  0.13344889941E+03  0.00000000000E+00 0.  1.
         12    1    4    4    0    0 -0.61274086154E+02 -0.13681497037E+01 -0.18579899821E+03  0.19564675618E+03  0.00000000000E+00 0. -1.
        -11    1    3    3    0    0  0.84114587418E+01 -0.68157904465E+02 -0.32861931232E+03  0.33571849071E+03  0.00000000000E+00 0.  1.
         11    1    3    3    0    0  0.86603627637E+02 -0.16803559099E+02 -0.29029457032E+03  0.30340317315E+03  0.00000000000E+00 0. -1.
          1    1    1    2  501    0 -0.22434565848E+02  0.40353874572E+02 -0.31513122650E+03  0.31849558059E+03  0.00000000000E+00 0. -1.
<scales pt_clust_5="13000.00000" pt_clust_6="13000.00000" pt_clust_7="13000.00000" pt_clust_8="13000.00000" pt_clust_9="46.17085"></scales>
<clustering>
<clus scale="   46.171">  1  9  2 -1</clus>
<clus scale="   67.782">  5  6 -1 -1</clus>
<clus scale="   95.790">  7  8 -1 -1</clus>
<clus scale="  124.979">  1  5  2 -1</clus>
<clus scale="   46.171">  1  5  2 -1</clus>
</clustering>
</event>
<event>
 9    2  0.3745229E-005  0.9816922E+02  0.7546771E-02  0.1290731E+00
         21   -1    0    0  501  502  0.00000000000E+00  0.00000000000E+00  0.58571165818E+02  0.58571165818E+02  0.00000000000E+00 0.  1.
          2   -1    0    0  502    0 -0.00000000000E+00 -0.00000000000E+00 -0.39560486540E+03  0.39560486540E+03  0.00000000000E+00 0. -1.
         23    2    1    2    0    0  0.44034674545E+02 -0.15100519600E+02 -0.12674788466E+03  0.16287643268E+03  0.91085826557E+02 0.  0.
         24    2    1    2    0    0 -0.11155033297E+02  0.12869017265E+02 -0.21429206908E+01  0.80563947007E+02  0.78714109759E+02 0.  0.
        -11    1    4    4    0    0 -0.19860215120E+02  0.51653461077E+01  0.35589296598E+02  0.41081710984E+02  0.00000000000E+00 0.  1.
         12    1    4    4    0    0  0.87051818226E+01  0.77036711572E+01 -0.37732217289E+02  0.39482236023E+02  0.00000000000E+00 0. -1.
        -11    1    3    3    0    0 -0.38642459326E+01 -0.30269656508E+02 -0.10276980490E+03  0.10720455821E+03  0.00000000000E+00 0.  1.
         11    1    3    3    0    0  0.47898920478E+02  0.15169136908E+02 -0.23978079767E+02  0.55671874468E+02  0.00000000000E+00 0. -1.
          1    1    1    2  501    0 -0.32879641248E+02  0.22315023356E+01 -0.20814289423E+03  0.21073565153E+03  0.00000000000E+00 0. -1.
<scales pt_clust_5="13000.00000" pt_clust_6="13000.00000" pt_clust_7="13000.00000" pt_clust_8="13000.00000" pt_clust_9="32.95530"></scales>
<clustering>
<clus scale="   32.955">  1  9  2 -1</clus>
<clus scale="   78.714">  5  6 -1 -1</clus>
<clus scale="   86.813">  1  5  2 -1</clus>
<clus scale="   91.086">  7  8 -1 -1</clus>
<clus scale="   32.955">  1  5  2 -1</clus>
</clustering>
</event>
<event>
 9    2  0.3745229E-005  0.2628104E+03  0.7546771E-02  0.1106283E+00
         21   -1    0    0  501  502  0.00000000000E+00  0.00000000000E+00  0.52066183231E+03  0.52066183231E+03  0.00000000000E+00 0. -1.
          2   -1    0    0  502    0 -0.00000000000E+00 -0.00000000000E+00 -0.19489411477E+03  0.19489411477E+03  0.00000000000E+00 0. -1.
         24    2    1    2    0    0 -0.25697096230E+03  0.67308188821E+02  0.45682094145E+02  0.28033106974E+03  0.77033675673E+02 0.  0.
         23    2    1    2    0    0  0.20979086942E+03 -0.80695610262E+01  0.27626047245E+03  0.35939738914E+03  0.93644583255E+02 0.  0.
        -13    1    3    3    0    0 -0.47693426002E+02  0.25523149695E+02 -0.19004353737E+02  0.57334627540E+02  0.00000000000E+00 0.  1.
         14    1    3    3    0    0 -0.20927753630E+03  0.41785039126E+02  0.64686447883E+02  0.22299644220E+03  0.00000000000E+00 0. -1.
        -11    1    4    4    0    0  0.11189079470E+03 -0.33838746608E+02  0.90467274129E+02  0.14781386403E+03  0.00000000000E+00 0.  1.
         11    1    4    4    0    0  0.97900074726E+02  0.25769185582E+02  0.18579319832E+03  0.21158352511E+03  0.00000000000E+00 0. -1.
          1    1    1    2  501    0  0.47180092879E+02 -0.59238627795E+02  0.38251509402E+01  0.75827488200E+02  0.00000000000E+00 0. -1.
<scales pt_clust_5="13000.00000" pt_clust_6="13000.00000" pt_clust_7="13000.00000" pt_clust_8="13000.00000" pt_clust_9="75.73098"></scales>
<clustering>
<clus scale="   75.731">  1  9  2 -1</clus>
<clus scale="   77.034">  5  6 -1 -1</clus>
<clus scale="   93.645">  7  8 -1 -1</clus>
<clus scale="  257.360">  2  5  1 -1</clus>
<clus scale="   75.731">  1  5  2 -1</clus>
</clustering>
</event>
<event>
 9    2  0.3745229E-005  0.9346029E+02  0.7546771E-02  0.1302286E+00
          2   -1    0    0  502    0 -0.00000000000E+00  0.00000000000E+00  0.40004104713E+02  0.40004104713E+02  0.00000000000E+00 0. -1.
         21   -1    0    0  501  502  0.00000000000E+00 -0.00000000000E+00 -0.55381769729E+03  0.55381769729E+03  0.00000000000E+00 0. -1.
         23    2    1    2    0    0 -0.28252454935E+02 -0.14142873632E+02 -0.48147335280E+02  0.10777194657E+03  0.91095578869E+02 0.  0.
         24    2    1    2    0    0 -0.97715193355E+01 -0.26697282634E+02 -0.28255885538E+03  0.29462869249E+03  0.78475041866E+02 0.  0.
        -13    1    4    4    0    0  0.19463124067E+02  0.19305482467E+02 -0.12296480973E+03  0.12598356751E+03  0.00000000000E+00 0.  1.
         14    1    4    4    0    0 -0.29234643402E+02 -0.46002765102E+02 -0.15959404565E+03  0.16864512498E+03  0.00000000000E+00 0. -1.
        -13    1    3    3    0    0  0.31248101226E+02 -0.19168482463E+02 -0.19966240336E+02  0.41743566011E+02  0.00000000000E+00 0.  1.
         13    1    3    3    0    0 -0.59500556161E+02  0.50256088314E+01 -0.28181094944E+02  0.66028380563E+02  0.00000000000E+00 0. -1.
          1    1    1    2  501    0  0.38023974270E+02  0.40840156266E+02 -0.18310740191E+03  0.19142116293E+03  0.00000000000E+00 0. -1.
<scales pt_clust_5="13000.00000" pt_clust_6="13000.00000" pt_clust_7="13000.00000" pt_clust_8="13000.00000" pt_clust_9="55.80090"></scales>
<clustering>
<clus scale="   55.801">  2  9  1 -1</clus>
<clus scale="   78.475">  5  6 -1 -1</clus>
<clus scale="   81.208">  2  5  1 -1</clus>
<clus scale="   91.096">  7  8 -1 -1</clus>
<clus scale="   55.801">  2  5  1 -1</clus>
</clustering>
</event>
<event>
 9    2  0.3745229E-005  0.9328456E+02  0.7546771E-02  0.1299767E+00
         21   -1    0    0  501  502  0.00000000000E+00  0.00000000000E+00  0.20270236359E+03  0.20270236359E+03  0.00000000000E+00 0. -1.
          2   -1    0    0  502    0 -0.00000000000E+00 -0.00000000000E+00 -0.47985900388E+03  0.47985900388E+03  0.00000000000E+00 0. -1.
         23    2    1    2    0    0  0.81046070164E+01 -0.30551352827E+02 -0.27280541256E+03  0.28851918417E+03  0.88438999840E+02 0.  0.
         24    2    1    2    0    0  0.61634857115E+02  0.12592872481E+02 -0.17851473957E+03  0.20557725624E+03  0.80231290590E+02 0.  0.
        -13    1    4    4    0    0  0.44579343782E+02  0.22184490907E+02 -0.17920816305E+03  0.18599740652E+03  0.00000000000E+00 0.  1.
         14    1    4    4    0    0  0.17055513334E+02 -0.95916184268E+01  0.69342347208E+00  0.19579849724E+02  0.00000000000E+00 0. -1.
        -13    1    3    3    0    0 -0.11149908563E+02  0.24044668366E+02 -0.35785351527E+02  0.44531538506E+02  0.00000000000E+00 0.  1.
         13    1    3    3    0    0  0.19254515580E+02 -0.54596021193E+02 -0.23702006104E+03  0.24398764566E+03  0.00000000000E+00 0. -1.
          1    1    1    2  501    0 -0.69739464132E+02  0.17958480347E+02  0.17416351185E+03  0.18846492707E+03  0.00000000000E+00 0. -1.
<scales pt_clust_5="13000.00000" pt_clust_6="13000.00000" pt_clust_7="13000.00000" pt_clust_8="13000.00000" pt_clust_9="72.01458"></scales>
<clustering>
<clus scale="   72.015">  1  9  2 -1</clus>
<clus scale="   80.231">  5  6 -1 -1</clus>
<clus scale="   85.543">  1  5  2 -1</clus>
<clus scale="   88.439">  7  8 -1 -1</clus>
<clus scale="   72.015">  1  5  2 -1</clus>
</clustering>
</event>
<event>
 9    2  0.3745229E-005  0.8282475E+03  0.7546771E-02  0.9896428E-01
          4   -1    0    0  502    0 -0.00000000000E+00  0.00000000000E+00  0.13123137302E+04  0.13123137302E+04  0.00000000000E+00 0. -1.
         21   -1    0    0  501  502  0.00000000000E+00 -0.00000000000E+00 -0.71000604216E+03  0.71000604216E+03  0.00000000000E+00 0. -1.
         23    2    1    2    0    0  0.21548566437E+03  0.17207509107E+01 -0.16869958053E+02  0.23538722560E+03  0.93196126316E+02 0.  0.
         24    2    1    2    0    0 -0.83770804195E+03 -0.40571386488E+03  0.34180731675E+03  0.99490639638E+03  0.81535219825E+02 0.  0.
        -13    1    4    4    0    0 -0.52435947378E+03 -0.26829821228E+03  0.25544852608E+03  0.64202082360E+03  0.00000000000E+00 0.  1.
         14    1    4    4    0    0 -0.31334856817E+03 -0.13741565260E+03  0.86358790673E+02  0.35288557278E+03  0.00000000000E+00 0. -1.
        -13    1    3    3    0    0  0.12205867794E+03  0.34915087538E+02 -0.40878193040E+02  0.13337320145E+03  0.00000000000E+00 0.  1.
         13    1    3    3    0    0  0.93426986427E+02 -0.33194336627E+02  0.24008234986E+02  0.10201402415E+03  0.00000000000E+00 0. -1.
          3    1    1    2  501    0  0.62222237758E+03  0.40399311397E+03  0.27737032937E+03  0.79202615040E+03  0.00000000000E+00 0. -1.
<scales pt_clust_5="13000.00000" pt_clust_6="13000.00000" pt_clust_7="13000.00000" pt_clust_8="13000.00000" pt_clust_9="824.22440"></scales>
<clustering>
<clus scale="   81.535">  5  6 -1 -1</clus>
<clus scale="   93.196">  7  8 -1 -1</clus>
<clus scale="  234.782">  1  7  2 -1</clus>
<clus scale="  824.224">  2  9  1 -1</clus>
<clus scale="  824.224">  2  5  1 -1</clus>
</clustering>
</event>
<event>
 9    2  0.3745229E-005  0.1002103E+03  0.7546771E-02  0.1285156E+00
          2   -1    0    0  502    0 -0.00000000000E+00  0.00000000000E+00  0.94734166185E+03  0.94734166185E+03  0.00000000000E+00 0. -1.
         21   -1    0    0  501  502  0.00000000000E+00 -0.00000000000E+00 -0.17186962477E+02  0.17186962477E+02  0.00000000000E+00 0.  1.
         23    2    1    2    0    0 -0.64342529340E+02  0.77260236556E+01  0.50483843238E+03  0.51693040042E+03  0.90308048108E+02 0.  0.
         24    2    1    2    0    0  0.16081668548E+02  0.15630028360E+02  0.20925426025E+03  0.22498329491E+03  0.79543822563E+02 0.  0.
        -11    1    4    4    0    0  0.17198897277E+02  0.44233735559E+02  0.83813791547E+02  0.96318103607E+02  0.00000000000E+00 0.  1.
         12    1    4    4    0    0 -0.11172287292E+01 -0.28603707199E+02  0.12544046870E+03  0.12866519130E+03  0.00000000000E+00 0. -1.
        -13    1    3    3    0    0 -0.51560863074E+02  0.46500564160E+02  0.28522740613E+03  0.29355663555E+03  0.00000000000E+00 0. -1.
         13    1    3    3    0    0 -0.12781666265E+02 -0.38774540505E+02  0.21961102625E+03  0.22337376487E+03  0.00000000000E+00 0.  1.
          1    1    1    2  501    0  0.48260860792E+02 -0.23356052016E+02  0.21606200675E+03  0.22261492899E+03  0.00000000000E+00 0. -1.
<scales pt_clust_5="13000.00000" pt_clust_6="13000.00000" pt_clust_7="13000.00000" pt_clust_8="13000.00000" pt_clust_9="53.61547"></scales>
<clustering>
<clus scale="   53.615">  2  9  1 -1</clus>
<clus scale="   79.544">  5  6 -1 -1</clus>
<clus scale="   90.308">  7  8 -1 -1</clus>
<clus scale="   90.630">  2  5  1 -1</clus>
<clus scale="   53.615">  2  5  1 -1</clus>
</clustering>
</event>
<event>
 9    2  0.3745229E-005  0.1160223E+03  0.7546771E-02  0.1254063E+00
         21   -1    0    0  501  502  0.00000000000E+00  0.00000000000E+00  0.69493169363E+03  0.69493169363E+03  0.00000000000E+00 0. -1.
         -1   -1    0    0    0  501 -0.00000000000E+00 -0.00000000000E+00 -0.39930802063E+02  0.39930802063E+02  0.00000000000E+00 0.  1.
         23    2    1    2    0    0 -0.57862925966E+02 -0.28018560655E+02  0.78205698483E+02  0.13748283236E+03  0.93017417599E+02 0.  0.
         24    2    1    2    0    0  0.87898538941E+02  0.31357384814E+02  0.49488242988E+03  0.51006994698E+03  0.80952409955E+02 0.  0.
        -13    1    4    4    0    0  0.76713285606E+02  0.33010280583E+02  0.22578814309E+03  0.24073822374E+03  0.00000000000E+00 0.  1.
         14    1    4    4    0    0  0.11185253335E+02 -0.16528957689E+01  0.26909428680E+03  0.26933172324E+03  0.00000000000E+00 0. -1.
        -13    1    3    3    0    0  0.12351626674E+02 -0.27152021307E+02  0.56658986924E+02  0.64031521470E+02  0.00000000000E+00 0.  1.
         13    1    3    3    0    0 -0.70214552640E+02 -0.86653934867E+00  0.21546711559E+02  0.73451310893E+02  0.00000000000E+00 0. -1.
         -2    1    1    2    0  502 -0.30035612975E+02 -0.33388241586E+01  0.81912763205E+02  0.87309716352E+02  0.00000000000E+00 0.  1.
<scales pt_clust_5="13000.00000" pt_clust_6="13000.00000" pt_clust_7="13000.00000" pt_clust_8="13000.00000" pt_clust_9="30.22062"></scales>
<clustering>
<clus scale="   30.221">  1  9  2 -1</clus>
<clus scale="   80.952">  5  6 -1 -1</clus>
<clus scale="   93.017">  7  8 -1 -1</clus>
<clus scale="  106.594">  1  5  2 -1</clus>
<clus scale="   30.221">  1  5  2 -1</clus>
</clustering>
</event>
<event>
 9    2  0.3745229E-005  0.1098465E+03  0.7546771E-02  0.1267651E+00
         -1   -1    0    0    0  501 -0.00000000000E+00  0.00000000000E+00  0.55037990122E+02  0.55037990122E+02  0.00000000000E+00 0.  1.
         21   -1    0    0  501  502  0.00000000000E+00 -0.00000000000E+00 -0.42825299691E+03  0.42825299691E+03  0.00000000000E+00 0.  1.
         23    2    1    2    0    0 -0.83353538470E+00 -0.64159545889E+02 -0.18280235915E+03  0.21664126153E+03  0.96951490827E+02 0.  0.
         24    2    1    2    0    0 -0.29165245538E+02  0.34492827264E+02 -0.20247873376E+03  0.22276770772E+03  0.81163090734E+02 0.  0.
        -13    1    4    4    0    0  0.60779267233E+01  0.52121735541E+02 -0.13150535220E+03  0.14158839701E+03  0.00000000000E+00 0.  1.
         14    1    4    4    0    0 -0.35243172261E+02 -0.17628908277E+02 -0.70973381560E+02  0.81179310714E+02  0.00000000000E+00 0. -1.
        -13    1    3    3    0    0 -0.39716451668E+01 -0.89731105209E+02 -0.15122202456E+03  0.17588503608E+03  0.00000000000E+00 0.  1.
         13    1    3    3    0    0  0.31381097821E+01  0.25571559319E+02 -0.31580334595E+02  0.40756225441E+02  0.00000000000E+00 0. -1.
         -2    1    1    2    0  502  0.29998780922E+02  0.29666718625E+02  0.12066086125E+02  0.43882017788E+02  0.00000000000E+00 0.  1.
<scales pt_clust_5="13000.00000" pt_clust_6="13000.00000" pt_clust_7="13000.00000" pt_clust_8="13000.00000" pt_clust_9="42.19055"></scales>
<clustering>
<clus scale="   42.191">  2  9  1 -1</clus>
<clus scale="   81.163">  5  6 -1 -1</clus>
<clus scale="   96.198">  2  5  1 -1</clus>
<clus scale="   96.951">  7  8 -1 -1</clus>
<clus scale="   42.191">  2  5  1 -1</clus>
</clustering>
</event>
<event>
 9    2  0.3745229E-005  0.9265445E+02  0.7546771E-02  0.1303224E+00
         21   -1    0    0  501  502  0.00000000000E+00  0.00000000000E+00  0.13192461128E+03  0.13192461128E+03  0.00000000000E+00 0. -1.
          2   -1    0    0  502    0 -0.00000000000E+00 -0.00000000000E+00 -0.25809449199E+03  0.25809449199E+03  0.00000000000E+00 0. -1.
         23    2    1    2    0    0 -0.13547106930E+02  0.11055885748E+02 -0.21134205685E+03  0.23084348894E+03  0.91200299764E+02 0.  0.
         24    2    1    2    0    0  0.26584754932E+02  0.30937059690E+02  0.63294915142E+02  0.11006347449E+03  0.80273727184E+02 0.  0.
        -11    1    4    4    0    0 -0.22413424976E+02  0.21127870827E+01  0.45046194738E+02  0.50358565794E+02  0.00000000000E+00 0.  1.
         12    1    4    4    0    0  0.48998179908E+02  0.28824272607E+02  0.18248720404E+02  0.59704908693E+02  0.00000000000E+00 0. -1.
        -13    1    3    3    0    0  0.32267626100E+02 -0.19437688872E+02 -0.92525375163E+02  0.99899792252E+02  0.00000000000E+00 0.  1.
         13    1    3    3    0    0 -0.45814733029E+02  0.30493574620E+02 -0.11881668168E+03  0.13094369669E+03  0.00000000000E+00 0. -1.
          1    1    1    2  501    0 -0.13037648002E+02 -0.41992945437E+02  0.21877260990E+02  0.49112139847E+02  0.00000000000E+00 0. -1.
<scales pt_clust_5="13000.00000" pt_clust_6="13000.00000" pt_clust_7="13000.00000" pt_clust_8="13000.00000" pt_clust_9="43.97031"></scales>
<clustering>
<clus scale="   43.970">  1  9  2 -1</clus>
<clus scale="   80.274">  5  6 -1 -1</clus>
<clus scale="   81.922">  1  5  2 -1</clus>
<clus scale="   91.200">  7  8 -1 -1</clus>
<clus scale="   43.970">  1  5  2 -1</clus>
</clustering>
</event>
<event>
 9    2  0.3745229E-005  0.1464126E+03  0.7546771E-02  0.1207044E+00
         21   -1    0    0  501  502  0.00000000000E+00  0.00000000000E+00  0.22410780717E+03  0.22410780717E+03  0.00000000000E+00 0.  1.
         -3   -1    0    0    0  501 -0.00000000000E+00 -0.00000000000E+00 -0.20187354982E+03  0.20187354982E+03  0.00000000000E+00 0.  1.
         24    2    1    2    0    0  0.97162064998E+02  0.91614528006E+02 -0.16695808758E+02  0.15652980106E+03  0.79932096021E+02 0.  0.
         23    2    1    2    0    0 -0.25563175013E+02 -0.82449803171E+02  0.11107340407E+03  0.16739738187E+03  0.90736632108E+02 0.  0.
        -11    1    3    3    0    0  0.10883685513E+03  0.82536218805E+02 -0.33886812898E+01  0.13663517706E+03  0.00000000000E+00 0.  1.
         12    1    3    3    0    0 -0.11674790136E+02  0.90783092007E+01 -0.13307127469E+02  0.19894624000E+02  0.00000000000E+00 0. -1.
        -13    1    4    4    0    0 -0.39625886514E+02 -0.50463635903E+02  0.11555195963E+03  0.13217051413E+03  0.00000000000E+00 0.  1.
         13    1    4    4    0    0  0.14062711501E+02 -0.31986167268E+02 -0.44785555584E+01  0.35226867745E+02  0.00000000000E+00 0. -1.
         -4    1    1    2    0  502 -0.71598889985E+02 -0.91647248351E+01 -0.72143337964E+02  0.10205417405E+03  0.00000000000E+00 0.  1.
<scales pt_clust_5="13000.00000" pt_clust_6="13000.00000" pt_clust_7="13000.00000" pt_clust_8="13000.00000" pt_clust_9="72.18309"></scales>
<clustering>
<clus scale="   72.183">  1  9  2 -1</clus>
<clus scale="   79.932">  5  6 -1 -1</clus>
<clus scale="   90.737">  7  8 -1 -1</clus>
<clus scale="  139.974">  2  5  1 -1</clus>
<clus scale="   72.183">  1  5  2 -1</clus>
</clustering>
</event>
<event>
 9    2  0.3745229E-005  0.9623660E+02  0.7546771E-02  0.1292226E+00
         21   -1    0    0  501  502  0.00000000000E+00  0.00000000000E+00  0.24537215290E+03  0.24537215290E+03  0.00000000000E+00 0.  1.
         -1   -1    0    0    0  501 -0.00000000000E+00 -0.00000000000E+00 -0.16299189253E+03  0.16299189253E+03  0.00000000000E+00 0.  1.
         24    2    1    2    0    0  0.20330519979E+02 -0.90728858735E+01 -0.11283017836E+03  0.14320949098E+03  0.85338513331E+02 0.  0.
         23    2    1    2    0    0 -0.47382163724E+02  0.54589831095E+02  0.91463879746E+02  0.14867737972E+03  0.92272438156E+02 0.  0.
        -13    1    3    3    0    0 -0.24158948535E+02  0.11238205206E+02 -0.84712377766E+01  0.27959147341E+02  0.00000000000E+00 0.  1.
         14    1    3    3    0    0  0.44489468513E+02 -0.20311091079E+02 -0.10435894059E+03  0.11525034364E+03  0.00000000000E+00 0. -1.
        -13    1    4    4    0    0  0.19464629621E+02 -0.11863303744E+02  0.14790083369E+02  0.27172713299E+02  0.00000000000E+00 0. -1.
         13    1    4    4    0    0 -0.66846793345E+02  0.66453134839E+02  0.76673796377E+02  0.12150466642E+03  0.00000000000E+00 0.  1.
         -2    1    1    2    0  502  0.27051643746E+02 -0.45516945222E+02  0.10374655898E+03  0.11647717473E+03  0.00000000000E+00 0.  1.
<scales pt_clust_5="13000.00000" pt_clust_6="13000.00000" pt_clust_7="13000.00000" pt_clust_8="13000.00000" pt_clust_9="52.94888"></scales>
<clustering>
<clus scale="   52.949">  1  9  2 -1</clus>
<clus scale="   85.339">  5  6 -1 -1</clus>
<clus scale="   89.610">  2  5  1 -1</clus>
<clus scale="   92.272">  7  8 -1 -1</clus>
<clus scale="   52.949">  1  5  2 -1</clus>
</clustering>
</event>
<event>
 9    2  0.3745229E-005  0.1269571E+03  0.7546771E-02  0.1234667E+00
         21   -1    0    0  501  502  0.00000000000E+00  0.00000000000E+00  0.47374838230E+03  0.47374838230E+03  0.00000000000E+00 0. -1.
          4   -1    0    0  502    0 -0.00000000000E+00 -0.00000000000E+00 -0.13555964123E+03  0.13555964123E+03  0.00000000000E+00 0. -1.
         23    2    1    2    0    0  0.91538519848E+02 -0.37200020855E+02 -0.32291501419E+01  0.13379297996E+03  0.90149830331E+02 0.  0.
         24    2    1    2    0    0 -0.31768999957E+02  0.94481579237E+01  0.38616781393E+03  0.39585880096E+03  0.80498898990E+02 0.  0.
        -13    1    4    4    0    0  0.27233559250E+02  0.59818137982E+01  0.13119963736E+03  0.13412976437E+03  0.00000000000E+00 0.  1.
         14    1    4    4    0    0 -0.59002559207E+02  0.34663441255E+01  0.25496817656E+03  0.26172903659E+03  0.00000000000E+00 0. -1.
        -13    1    3    3    0    0  0.52074611707E+02  0.60977580158E+01  0.35720953483E+02  0.63442370345E+02  0.00000000000E+00 0. -1.
         13    1    3    3    0    0  0.39463908141E+02 -0.43297778871E+02 -0.38950103625E+02  0.70350609616E+02  0.00000000000E+00 0.  1.
          3    1    1    2  501    0 -0.59769519890E+02  0.27751862931E+02 -0.44749922710E+02  0.79656242609E+02  0.00000000000E+00 0. -1.
<scales pt_clust_5="13000.00000" pt_clust_6="13000.00000" pt_clust_7="13000.00000" pt_clust_8="13000.00000" pt_clust_9="65.89815"></scales>
<clustering>
<clus scale="   65.898">  1  9  2 -1</clus>
<clus scale="   80.499">  5  6 -1 -1</clus>
<clus scale="   90.150">  7  8 -1 -1</clus>
<clus scale="  120.296">  1  5  2 -1</clus>
<clus scale="   65.898">  1  5  2 -1</clus>
</clustering>
</event>
<event>
 9    2  0.3745229E-005  0.9308266E+02  0.7546771E-02  0.1303799E+00
         -1   -1    0    0    0  501 -0.00000000000E+00  0.00000000000E+00  0.89196649114E+03  0.89196649114E+03  0.00000000000E+00 0.  1.
         21   -1    0    0  501  502  0.00000000000E+00 -0.00000000000E+00 -0.15019357549E+02  0.15019357549E+02  0.00000000000E+00 0.  1.
         23    2    1    2    0    0  0.17024883251E+02  0.27756008207E+02  0.55522185554E+03  0.56355168247E+03  0.90878750560E+02 0.  0.
         24    2    1    2    0    0  0.10014400780E+02  0.13320465621E+00  0.17406948512E+03  0.19075422563E+03  0.77373658154E+02 0.  0.
        -13    1    4    4    0    0 -0.22376509000E+02  0.17517879853E+02  0.27140380206E+02  0.39296113132E+02  0.00000000000E+00 0.  1.
         14    1    4    4    0    0  0.32390909780E+02 -0.17384675197E+02  0.14692910492E+03  0.15145811249E+03  0.00000000000E+00 0. -1.
        -11    1    3    3    0    0  0.52726914935E+02  0.29996137277E+02  0.36159736647E+03  0.36665044831E+03  0.00000000000E+00 0. -1.
         11    1    3    3    0    0 -0.35702031684E+02 -0.22401290707E+01  0.19362448908E+03  0.19690123416E+03  0.00000000000E+00 0.  1.
         -2    1    1    2    0  502 -0.27039284031E+02 -0.27889212863E+02  0.14765579292E+03  0.15267994059E+03  0.00000000000E+00 0.  1.
<scales pt_clust_5="13000.00000" pt_clust_6="13000.00000" pt_clust_7="13000.00000" pt_clust_8="13000.00000" pt_clust_9="38.84498"></scales>
<clustering>
<clus scale="   38.845">  2  9  1 -1</clus>
<clus scale="   77.374">  5  6 -1 -1</clus>
<clus scale="   79.951">  2  5  1 -1</clus>
<clus scale="   90.879">  7  8 -1 -1</clus>
<clus scale="   38.845">  2  5  1 -1</clus>
</clustering>
</event>
<event>
 9    2  0.3745229E-005  0.2993569E+03  0.7546771E-02  0.1120461E+00
         -1   -1    0    0    0  501 -0.00000000000E+00  0.00000000000E+00  0.58108333450E+03  0.58108333450E+03  0.00000000000E+00 0.  1.
         21   -1    0    0  501  502  0.00000000000E+00 -0.00000000000E+00 -0.33109910590E+03  0.33109910590E+03  0.00000000000E+00 0.  1.
         23    2    1    2    0    0  0.25216547348E+02  0.78877573105E+02  0.10457995458E+02  0.12207380824E+03  0.89079173714E+02 0.  0.
         24    2    1    2    0    0  0.20385328806E+03 -0.24439854905E+03  0.35583230176E+03  0.48449893897E+03  0.82678782419E+02 0.  0.
        -13    1    4    4    0    0  0.12962779351E+03 -0.10956250309E+03  0.22910314292E+03  0.28512375740E+03  0.00000000000E+00 0.  1.
         14    1    4    4    0    0  0.74225494544E+02 -0.13483604595E+03  0.12672915883E+03  0.19937518157E+03  0.00000000000E+00 0. -1.
        -13    1    3    3    0    0  0.11424403345E+02  0.27265869724E+02 -0.39225960019E+02  0.49118434249E+02  0.00000000000E+00 0.  1.
         13    1    3    3    0    0  0.13792144003E+02  0.51611703381E+02  0.49683955477E+02  0.72955373989E+02  0.00000000000E+00 0. -1.
         -2    1    1    2    0  502 -0.22906983541E+03  0.16552097594E+03 -0.11630606861E+03  0.30560969318E+03  0.00000000000E+00 0.  1.
<scales pt_clust_5="13000.00000" pt_clust_6="13000.00000" pt_clust_7="13000.00000" pt_clust_8="13000.00000" pt_clust_9="287.71296"></scales>
<clustering>
<clus scale="   82.679">  5  6 -1 -1</clus>
<clus scale="   89.079">  7  8 -1 -1</clus>
<clus scale="  121.625">  1  7  2 -1</clus>
<clus scale="  287.713">  2  9  1 -1</clus>
<clus scale="  287.713">  2  5  1 -1</clus>
</clustering>
</event>
<event>
 9    2  0.3745229E-005  0.2996125E+03  0.7546771E-02  0.1085730E+00
          2   -1    0    0  502    0 -0.00000000000E+00  0.00000000000E+00  0.30516956770E+03  0.30516956770E+03  0.00000000000E+00 0. -1.
         21   -1    0    0  501  502  0.00000000000E+00 -0.00000000000E+00 -0.51278074961E+03  0.51278074961E+03  0.00000000000E+00 0.  1.
         24    2    1    2    0    0  0.26282096258E+03 -0.12143378965E+03 -0.11567196778E+02  0.30084743589E+03  0.80958977253E+02 0.  0.
         23    2    1    2    0    0 -0.20144541056E+03  0.21267145139E+03 -0.24935852834E+03  0.39489932247E+03  0.89198652232E+02 0.  0.
        -11    1    3    3    0    0  0.10111768483E+03 -0.19010587277E+02 -0.33447184410E+02  0.10818919890E+03  0.00000000000E+00 0.  1.
         12    1    3    3    0    0  0.16170327775E+03 -0.10242320237E+03  0.21879987633E+02  0.19265823699E+03  0.00000000000E+00 0. -1.
        -13    1    4    4    0    0 -0.78600430121E+02  0.12783905090E+03 -0.16652799619E+03  0.22417052452E+03  0.00000000000E+00 0.  1.
         13    1    4    4    0    0 -0.12284498044E+03  0.84832400490E+02 -0.82830532149E+02  0.17072879795E+03  0.00000000000E+00 0. -1.
          1    1    1    2  501    0 -0.61375552018E+02 -0.91237661737E+02  0.53314543206E+02  0.12220355896E+03  0.00000000000E+00 0. -1.
<scales pt_clust_5="13000.00000" pt_clust_6="13000.00000" pt_clust_7="13000.00000" pt_clust_8="13000.00000" pt_clust_9="109.96036"></scales>
<clustering>
<clus scale="   80.959">  5  6 -1 -1</clus>
<clus scale="   89.199">  7  8 -1 -1</clus>
<clus scale="  109.960">  2  9  1 -1</clus>
<clus scale="  297.264">  1  5  2 -1</clus>
<clus scale="  109.960">  2  5  1 -1</clus>
</clustering>
</event>
<event>
 9    2  0.3745229E-005  0.1071852E+03  0.7546771E-02  0.1271887E+00
         21   -1    0    0  501  502  0.00000000000E+00  0.00000000000E+00  0.39322426222E+02  0.39322426222E+02  0.00000000000E+00 0.  1.
          2   -1    0    0  502    0 -0.00000000000E+00 -0.00000000000E+00 -0.88594631537E+03  0.88594631537E+03  0.00000000000E+00 0. -1.
         24    2    1    2    0    0  0.43907182200E+02  0.37186480179E+02 -0.72493107842E+03  0.73115185434E+03  0.75810887650E+02 0.  0.
         23    2    1    2    0    0 -0.69494880248E+02 -0.10899745655E+02 -0.88165363045E+02  0.14441967957E+03  0.90197393368E+02 0.  0.
        -11    1    3    3    0    0  0.10526796689E+02  0.39504563173E+02 -0.15699276145E+03  0.16222870002E+03  0.00000000000E+00 0.  1.
         12    1    3    3    0    0  0.33380385511E+02 -0.23180829934E+01 -0.56793831696E+03  0.56892315432E+03  0.00000000000E+00 0. -1.
        -13    1    4    4    0    0 -0.67924436004E+02  0.29229620865E+02 -0.61880954303E+02  0.96422778677E+02  0.00000000000E+00 0.  1.
         13    1    4    4    0    0 -0.15704442438E+01 -0.40129366520E+02 -0.26284408742E+02  0.47996900893E+02  0.00000000000E+00 0. -1.
          1    1    1    2  501    0  0.25587698048E+02 -0.26286734524E+02 -0.33527447682E+02  0.49697207682E+02  0.00000000000E+00 0. -1.
<scales pt_clust_5="13000.00000" pt_clust_6="13000.00000" pt_clust_7="13000.00000" pt_clust_8="13000.00000" pt_clust_9="36.68409"></scales>
<clustering>
<clus scale="   36.684">  1  9  2 -1</clus>
<clus scale="   75.811">  5  6 -1 -1</clus>
<clus scale="   90.197">  7  8 -1 -1</clus>
<clus scale="   95.396">  2  5  1 -1</clus>
<clus scale="   36.684">  1  5  2 -1</clus>
</clustering>
</event>
<event>
 9    2  0.3745229E-005  0.9207593E+02  0.7546771E-02  0.1312313E+00
         21   -1    0    0  501  502  0.00000000000E+00  0.00000000000E+00  0.14326530949E+03  0.14326530949E+03  0.00000000000E+00 0. -1.
         -3   -1    0    0    0  501 -0.00000000000E+00 -0.00000000000E+00 -0.15212406513E+03  0.15212406513E+03  0.00000000000E+00 0.  1.
         23    2    1    2    0    0 -0.11727272622E+02 -0.13674875007E+02 -0.94596209437E+02  0.13277681774E+03  0.91415039019E+02 0.  0.
         24    2    1    2    0    0  0.68820049543E+01 -0.11910806763E+02 -0.18409513453E+01  0.71244724589E+02  0.69879842372E+02 0.  0.
        -11    1    4    4    0    0  0.24505481090E+02  0.55085463858E+00 -0.28076926430E+02  0.37271112702E+02  0.00000000000E+00 0.  1.
         12    1    4    4    0    0 -0.17623476136E+02 -0.12461661402E+02  0.26235975084E+02  0.33973611887E+02  0.00000000000E+00 0. -1.
        -11    1    3    3    0    0  0.33291112024E+02 -0.19805277453E+01 -0.75423494940E+02  0.82467716222E+02  0.00000000000E+00 0. -1.
         11    1    3    3    0    0 -0.45018384646E+02 -0.11694347262E+02 -0.19172714497E+02  0.50309101514E+02  0.00000000000E+00 0.  1.
         -4    1    1    2    0  502  0.48452676675E+01  0.25585681770E+02  0.87578405140E+02  0.91367832289E+02  0.00000000000E+00 0.  1.
<scales pt_clust_5="13000.00000" pt_clust_6="13000.00000" pt_clust_7="13000.00000" pt_clust_8="13000.00000" pt_clust_9="26.04042"></scales>
<clustering>
<clus scale="   26.040">  1  9  2 -1</clus>
<clus scale="   69.880">  5  6 -1 -1</clus>
<clus scale="   70.742">  1  5  2 -1</clus>
<clus scale="   91.415">  7  8 -1 -1</clus>
<clus scale="   26.040">  1  5  2 -1</clus>
</clustering>
</event>
<event>
 9    2  0.3745229E-005  0.9551741E+02  0.7546771E-02  0.1291293E+00
         21   -1    0    0  501  502  0.00000000000E+00  0.00000000000E+00  0.49293592299E+02  0.49293592299E+02  0.00000000000E+00 0. -1.
         -1   -1    0    0    0  501 -0.00000000000E+00 -0.00000000000E+00 -0.46555016861E+03  0.46555016861E+03  0.00000000000E+00 0.  1.
         23    2    1    2    0    0 -0.24731593868E+02 -0.82917576399E+01 -0.28744822611E+03  0.30233897662E+03  0.90010938835E+02 0.  0.
         24    2    1    2    0    0  0.25341607354E+02  0.46416557749E+02 -0.13940044400E+03  0.17293124576E+03  0.87613001761E+02 0.  0.
        -13    1    4    4    0    0 -0.20247585416E+02  0.19299127027E+02 -0.10739736045E+03  0.11098024171E+03  0.00000000000E+00 0.  1.
         14    1    4    4    0    0  0.45589192769E+02  0.27117430723E+02 -0.32003083553E+02  0.61951004054E+02  0.00000000000E+00 0. -1.
        -11    1    3    3    0    0 -0.21730207577E+02 -0.43619119622E+02 -0.22775746909E+03  0.23291263221E+03  0.00000000000E+00 0.  1.
         11    1    3    3    0    0 -0.30013862907E+01  0.35327361982E+02 -0.59690757026E+02  0.69426344413E+02  0.00000000000E+00 0. -1.
         -2    1    1    2    0  502 -0.61001348561E+00 -0.38124800109E+02  0.10592093803E+02  0.39573538520E+02  0.00000000000E+00 0.  1.
<scales pt_clust_5="13000.00000" pt_clust_6="13000.00000" pt_clust_7="13000.00000" pt_clust_8="13000.00000" pt_clust_9="38.12968"></scales>
<clustering>
<clus scale="   38.130">  1  9  2 -1</clus>
<clus scale="   87.613">  5  6 -1 -1</clus>
<clus scale="   90.011">  7  8 -1 -1</clus>
<clus scale="   93.261">  1  5  2 -1</clus>
<clus scale="   38.130">  1  5  2 -1</clus>
</clustering>
</event>
<event>
 9    2  0.3745229E-005  0.9789652E+02  0.7546771E-02  0.1293304E+00
         21   -1    0    0  501  502  0.00000000000E+00  0.00000000000E+00  0.49320502336E+03  0.49320502336E+03  0.00000000000E+00 0. -1.
         -1   -1    0    0    0  501 -0.00000000000E+00 -0.00000000000E+00 -0.46700032358E+02  0.46700032358E+02  0.00000000000E+00 0.  1.
         24    2    1    2    0    0  0.13569191522E+02  0.22965606359E+02  0.82922515172E+01  0.83510772578E+02  0.78700353667E+02 0.  0.
         23    2    1    2    0    0 -0.37388145417E+02 -0.18738304488E+02  0.37032348900E+03  0.38432374147E+03  0.93894910815E+02 0.  0.
        -13    1    3    3    0    0  0.28435519856E+02 -0.17351859884E+02 -0.12745006205E+02  0.35666525119E+02  0.00000000000E+00 0.  1.
         14    1    3    3    0    0 -0.14866328334E+02  0.40317466243E+02  0.21037257722E+02  0.47844247458E+02  0.00000000000E+00 0. -1.
        -11    1    4    4    0    0  0.26454482375E+02 -0.96858343136E+01  0.48365216152E+02  0.55971860408E+02  0.00000000000E+00 0.  1.
         11    1    4    4    0    0 -0.63842627792E+02 -0.90524701743E+01  0.32195827285E+03  0.32835188106E+03  0.00000000000E+00 0. -1.
         -2    1    1    2    0  502  0.23818953895E+02 -0.42273018712E+01  0.67889250485E+02  0.72070541674E+02  0.00000000000E+00 0.  1.
<scales pt_clust_5="13000.00000" pt_clust_6="13000.00000" pt_clust_7="13000.00000" pt_clust_8="13000.00000" pt_clust_9="24.19117"></scales>
<clustering>
<clus scale="   24.191">  1  9  2 -1</clus>
<clus scale="   78.700">  5  6 -1 -1</clus>
<clus scale="   83.434">  2  5  1 -1</clus>
<clus scale="   93.895">  7  8 -1 -1</clus>
<clus scale="   24.191">  1  5  2 -1</clus>
</clustering>
</event>
<event>
 9    2  0.3745229E-005  0.9546589E+02  0.7546771E-02  0.1304587E+00
         21   -1    0    0  501  502  0.00000000000E+00  0.00000000000E+00  0.24811587269E+03  0.24811587269E+03  0.00000000000E+00 0.  1.
         -3   -1    0    0    0  501 -0.00000000000E+00 -0.00000000000E+00 -0.47798773469E+02  0.47798773469E+02  0.00000000000E+00 0.  1.
         23    2    1    2    0    0  0.71221889742E+01 -0.19243027358E+02  0.46897691194E+02  0.10593960051E+03  0.92751203980E+02 0.  0.
         24    2    1    2    0    0 -0.31584829553E+02  0.11463840943E+02  0.14255876344E+03  0.16210229684E+03  0.69463173689E+02 0.  0.
        -11    1    4    4    0    0 -0.51976944573E+02  0.91377085178E+01  0.12258891234E+03  0.13346588296E+03  0.00000000000E+00 0.  1.
         12    1    4    4    0    0  0.20392115020E+02  0.23261324252E+01  0.19969851097E+02  0.28636413880E+02  0.00000000000E+00 0. -1.
        -13    1    3    3    0    0  0.89223257684E+01 -0.51099498619E+02  0.52204509861E+02  0.73594004552E+02  0.00000000000E+00 0.  1.
         13    1    3    3    0    0 -0.18001367943E+01  0.31856471261E+02 -0.53068186671E+01  0.32345595960E+02  0.00000000000E+00 0. -1.
         -4    1    1    2    0  502  0.24462640579E+02  0.77791864148E+01  0.10860644588E+02  0.27872748810E+02  0.00000000000E+00 0.  1.
<scales pt_clust_5="13000.00000" pt_clust_6="13000.00000" pt_clust_7="13000.00000" pt_clust_8="13000.00000" pt_clust_9="25.66977"></scales>
<clustering>
<clus scale="   25.670">  1  9  2 -1</clus>
<clus scale="   69.463">  5  6 -1 -1</clus>
<clus scale="   73.048">  1  5  2 -1</clus>
<clus scale="   92.751">  7  8 -1 -1</clus>
<clus scale="   25.670">  1  5  2 -1</clus>
</clustering>
</event>
<event>
 9    2  0.3745229E-005  0.9571239E+02  0.7546771E-02  0.1296321E+00
          2   -1    0    0  502    0 -0.00000000000E+00  0.00000000000E+00  0.39033286121E+03  0.39033286121E+03  0.00000000000E+00 0. -1.
         21   -1    0    0  501  502  0.00000000000E+00 -0.00000000000E+00 -0.81039251501E+02  0.81039251501E+02  0.00000000000E+00 0.  1.
         24    2    1    2    0    0 -0.10881277552E+02 -0.17969679398E+02  0.17017699329E+03  0.18883508025E+03  0.79102256022E+02 0.  0.
         23    2    1    2    0    0 -0.15878720002E+01  0.93691441041E+02  0.83719204721E+01  0.13093412881E+03  0.91066182384E+02 0.  0.
        -13    1    3    3    0    0 -0.38309074379E+02  0.77470425632E+01  0.53542801869E+02  0.66290523306E+02  0.00000000000E+00 0.  1.
         14    1    3    3    0    0  0.27427796827E+02 -0.25716721961E+02  0.11663419143E+03  0.12254455694E+03  0.00000000000E+00 0. -1.
        -13    1    4    4    0    0  0.22226927573E+02 -0.46788115838E+01 -0.14791239798E+02  0.27105504274E+02  0.00000000000E+00 0. -1.
         13    1    4    4    0    0 -0.23814799574E+02  0.98370252625E+02  0.23163160270E+02  0.10382862454E+03  0.00000000000E+00 0.  1.
          1    1    1    2  501    0  0.12469149552E+02 -0.75721761643E+02  0.13074469594E+03  0.15160290364E+03  0.00000000000E+00 0. -1.
<scales pt_clust_5="13000.00000" pt_clust_6="13000.00000" pt_clust_7="13000.00000" pt_clust_8="13000.00000" pt_clust_9="76.74158"></scales>
<clustering>
<clus scale="   76.742">  2  9  1 -1</clus>
<clus scale="   79.102">  5  6 -1 -1</clus>
<clus scale="   84.410">  1  5  2 -1</clus>
<clus scale="   91.066">  7  8 -1 -1</clus>
<clus scale="   76.742">  2  5  1 -1</clus>
</clustering>
</event>
<event>
 9    2  0.3745229E-005  0.1080318E+03  0.7546771E-02  0.1268645E+00
          2   -1    0    0  502    0 -0.00000000000E+00  0.00000000000E+00  0.11789555859E+03  0.11789555859E+03  0.00000000000E+00 0. -1.
         21   -1    0    0  501  502  0.00000000000E+00 -0.00000000000E+00 -0.26411394591E+03  0.26411394591E+03  0.00000000000E+00 0. -1.
         24    2    1    2    0    0 -0.68039152487E+02 -0.47445507713E+01  0.32526395153E+02  0.11027434031E+03  0.80315793690E+02 0.  0.
         23    2    1    2    0    0  0.43995678779E+02 -0.43019548499E+01 -0.10696370105E+02  0.10173458540E+03  0.91002126161E+02 0.  0.
        -13    1    3    3    0    0 -0.71162768226E+02  0.15872063930E+02  0.15429608916E+01  0.72927654036E+02  0.00000000000E+00 0.  1.
         14    1    3    3    0    0  0.31236157381E+01 -0.20616614702E+02  0.30983434262E+02  0.37346686275E+02  0.00000000000E+00 0. -1.
        -11    1    4    4    0    0  0.71907478389E+02  0.31560913333E+01 -0.11178251511E+02  0.72839547415E+02  0.00000000000E+00 0.  1.
         11    1    4    4    0    0 -0.27911799610E+02 -0.74580461832E+01  0.48188140565E+00  0.28895037983E+02  0.00000000000E+00 0. -1.
          1    1    1    2  501    0  0.24043473709E+02  0.90465056212E+01 -0.16804841236E+03  0.17000057879E+03  0.00000000000E+00 0. -1.
<scales pt_clust_5="13000.00000" pt_clust_6="13000.00000" pt_clust_7="13000.00000" pt_clust_8="13000.00000" pt_clust_9="25.68906"></scales>
<clustering>
<clus scale="   25.689">  2  9  1 -1</clus>
<clus scale="   80.316">  5  6 -1 -1</clus>
<clus scale="   91.002">  7  8 -1 -1</clus>
<clus scale="   99.197">  1  5  2 -1</clus>
<clus scale="   25.689">  2  5  1 -1</clus>
</clustering>
</event>
<event>
 9    2  0.3745229E-005  0.1105076E+03  0.7546771E-02  0.1265724E+00
         21   -1    0    0  501  502  0.00000000000E+00  0.00000000000E+00  0.30637101116E+03  0.30637101116E+03  0.00000000000E+00 0.  1.
          4   -1    0    0  502    0 -0.00000000000E+00 -0.00000000000E+00 -0.69199351806E+02  0.69199351806E+02  0.00000000000E+00 0. -1.
         23    2    1    2    0    0 -0.39517120771E+02 -0.46575522353E+02  0.46240617997E+02  0.12235658481E+03  0.95404701027E+02 0.  0.
         24    2    1    2    0    0  0.59385401745E+02  0.47482386926E+01  0.66240180313E+02  0.12020219567E+03  0.80694700225E+02 0.  0.
        -13    1    4    4    0    0  0.86354178476E+01 -0.30716413644E+02  0.44135066826E+02  0.54460743956E+02  0.00000000000E+00 0.  1.
         14    1    4    4    0    0  0.50749983897E+02  0.35464652336E+02  0.22105113487E+02  0.65741451712E+02  0.00000000000E+00 0. -1.
        -13    1    3    3    0    0 -0.29131610311E+02  0.26424809933E+02  0.12512039842E+02  0.41273144299E+02  0.00000000000E+00 0. -1.
         13    1    3    3    0    0 -0.10385510460E+02 -0.73000332286E+02  0.33728578155E+02  0.81083440515E+02  0.00000000000E+00 0.  1.
          3    1    1    2  501    0 -0.19868280973E+02  0.41827283660E+02  0.12469086105E+03  0.13301158249E+03  0.00000000000E+00 0. -1.
<scales pt_clust_5="13000.00000" pt_clust_6="13000.00000" pt_clust_7="13000.00000" pt_clust_8="13000.00000" pt_clust_9="46.30627"></scales>
<clustering>
<clus scale="   46.306">  1  9  2 -1</clus>
<clus scale="   80.695">  5  6 -1 -1</clus>
<clus scale="   95.405">  7  8 -1 -1</clus>
<clus scale="   98.089">  1  5  2 -1</clus>
<clus scale="   46.306">  1  5  2 -1</clus>
</clustering>
</event>
<event>
 9    2  0.3745229E-005  0.2384096E+03  0.7546771E-02  0.1121533E+00
         -1   -1    0    0    0  501 -0.00000000000E+00  0.00000000000E+00  0.76986501014E+03  0.76986501014E+03  0.00000000000E+00 0.  1.
         21   -1    0    0  501  502  0.00000000000E+00 -0.00000000000E+00 -0.25104281868E+03  0.25104281868E+03  0.00000000000E+00 0. -1.
         23    2    1    2    0    0  0.20363543618E+03  0.69184485764E+02  0.31988256804E+03  0.39606050691E+03  0.91022985356E+02 0.  0.
         24    2    1    2    0    0 -0.17894852195E+03 -0.21679698659E+03 -0.84569396350E+02  0.30425995717E+03  0.79991448519E+02 0.  0.
        -13    1    4    4    0    0 -0.57282230491E+02 -0.10793423019E+03 -0.41380325925E+01  0.12226273059E+03  0.00000000000E+00 0.  1.
         14    1    4    4    0    0 -0.12166629146E+03 -0.10886275640E+03 -0.80431363758E+02  0.18199722658E+03  0.00000000000E+00 0. -1.
        -13    1    3    3    0    0  0.21616538815E+02  0.41806094753E+02  0.44120120480E+02  0.64510536659E+02  0.00000000000E+00 0.  1.
         13    1    3    3    0    0  0.18201889737E+03  0.27378391010E+02  0.27576244756E+03  0.33154997025E+03  0.00000000000E+00 0. -1.
         -2    1    1    2    0  502 -0.24686914230E+02  0.14761250082E+03  0.28350901977E+03  0.32058736473E+03  0.00000000000E+00 0.  1.
<scales pt_clust_5="13000.00000" pt_clust_6="13000.00000" pt_clust_7="13000.00000" pt_clust_8="13000.00000" pt_clust_9="149.66268"></scales>
<clustering>
<clus scale="   79.991">  5  6 -1 -1</clus>
<clus scale="   91.023">  7  8 -1 -1</clus>
<clus scale="  149.663">  2  9  1 -1</clus>
<clus scale="  234.420">  2  5  1 -1</clus>
<clus scale="  149.663">  2  5  1 -1</clus>
</clustering>
</event>
<event>
 9    2  0.3745229E-005  0.1285463E+03  0.7546771E-02  0.1246143E+00
         -1   -1    0    0    0  501 -0.00000000000E+00  0.00000000000E+00  0.98208503547E+02  0.98208503547E+02  0.00000000000E+00 0.  1.
         21   -1    0    0  501  502  0.00000000000E+00 -0.00000000000E+00 -0.41332306929E+03  0.41332306929E+03  0.00000000000E+00 0.  1.
         23    2    1    2    0    0  0.13459351535E+02  0.16840548321E+01 -0.10016064236E+03  0.13587141638E+03  0.90801416983E+02 0.  0.
         24    2    1    2    0    0  0.77622851491E+02 -0.45019068210E+02  0.17279327293E+02  0.12246818618E+03  0.81534397032E+02 0.  0.
        -11    1    4    4    0    0  0.82255291890E+02 -0.49469663057E+02  0.36124585670E+02  0.10255811180E+03  0.00000000000E+00 0.  1.
         12    1    4    4    0    0 -0.46324403985E+01  0.44505948470E+01 -0.18845258377E+02  0.19910074381E+02  0.00000000000E+00 0. -1.
        -13    1    3    3    0    0 -0.39143620143E+02  0.12934117568E+01 -0.40779653229E+02  0.56540923492E+02  0.00000000000E+00 0. -1.
         13    1    3    3    0    0  0.52602971677E+02  0.39064307528E+00 -0.59380989134E+02  0.79330492888E+02  0.00000000000E+00 0.  1.
         -2    1    1    2    0  502 -0.91082203026E+02  0.43335013378E+02 -0.23223325067E+03  0.25319197027E+03  0.00000000000E+00 0.  1.
<scales pt_clust_5="13000.00000" pt_clust_6="13000.00000" pt_clust_7="13000.00000" pt_clust_8="13000.00000" pt_clust_9="99.37957"></scales>
<clustering>
<clus scale="   81.534">  5  6 -1 -1</clus>
<clus scale="   90.801">  7  8 -1 -1</clus>
<clus scale="   91.809">  1  7  2 -1</clus>
<clus scale="   99.380">  2  9  1 -1</clus>
<clus scale="   99.380">  2  5  1 -1</clus>
</clustering>
</event>
<event>
 9    2  0.3745229E-005  0.1205937E+03  0.7546771E-02  0.1244856E+00
         21   -1    0    0  501  502  0.00000000000E+00  0.00000000000E+00  0.25693364446E+02  0.25693364446E+02  0.00000000000E+00 0. -1.
         -3   -1    0    0    0  501 -0.00000000000E+00 -0.00000000000E+00 -0.69488223702E+03  0.69488223702E+03  0.00000000000E+00 0.  1.
         24    2    1    2    0    0  0.19799329616E+02 -0.83666645702E+02 -0.37357320103E+03  0.39204728519E+03  0.82170653175E+02 0.  0.
         23    2    1    2    0    0  0.29287102766E+01  0.70316782638E+02 -0.21668751952E+03  0.24531512126E+03  0.90956035217E+02 0.  0.
        -13    1    3    3    0    0  0.78909004564E+01 -0.92274651811E+02 -0.23334475043E+03  0.25105109087E+03  0.00000000000E+00 0.  1.
         14    1    3    3    0    0  0.11908429160E+02  0.86080061090E+01 -0.14022845060E+03  0.14099619432E+03  0.00000000000E+00 0. -1.
        -13    1    4    4    0    0  0.39297400407E+02  0.62195242562E+02 -0.17236293615E+03  0.18740735213E+03  0.00000000000E+00 0. -1.
         13    1    4    4    0    0 -0.36368690130E+02  0.81215400763E+01 -0.44324583370E+02  0.57907769133E+02  0.00000000000E+00 0.  1.
         -4    1    1    2    0  502 -0.22728039893E+02  0.13349863064E+02 -0.78928152035E+02  0.83213195016E+02  0.00000000000E+00 0.  1.
<scales pt_clust_5="13000.00000" pt_clust_6="13000.00000" pt_clust_7="13000.00000" pt_clust_8="13000.00000" pt_clust_9="26.35874"></scales>
<clustering>
<clus scale="   26.359">  1  9  2 -1</clus>
<clus scale="   82.171">  5  6 -1 -1</clus>
<clus scale="   90.956">  7  8 -1 -1</clus>
<clus scale="  114.113">  2  5  1 -1</clus>
<clus scale="   26.359">  1  5  2 -1</clus>
</clustering>
</event>
<event>
 9    2  0.3745229E-005  0.9680039E+02  0.7546771E-02  0.1296693E+00
         -1   -1    0    0    0  501 -0.00000000000E+00  0.00000000000E+00  0.11671765489E+03  0.11671765489E+03  0.00000000000E+00 0.  1.
         21   -1    0    0  501  502  0.00000000000E+00 -0.00000000000E+00 -0.44512421266E+03  0.44512421266E+03  0.00000000000E+00 0.  1.
         23    2    1    2    0    0  0.19323168465E+02  0.19805720701E+01  0.79371354383E+02  0.12551685470E+03  0.95275187803E+02 0.  0.
         24    2    1    2    0    0 -0.25822336499E+01  0.30141288111E+02 -0.12382592091E+03  0.15007196724E+03  0.79205880343E+02 0.  0.
        -11    1    4    4    0    0  0.26799948446E+02 -0.91150532641E+01 -0.18293608831E+02  0.33704266151E+02  0.00000000000E+00 0.  1.
         12    1    4    4    0    0 -0.29382182096E+02  0.39256341376E+02 -0.10553231208E+03  0.11636770109E+03  0.00000000000E+00 0. -1.
        -13    1    3    3    0    0 -0.28312104205E+02 -0.17751025745E+02  0.63181987124E+02  0.71474734393E+02  0.00000000000E+00 0. -1.
         13    1    3    3    0    0  0.47635272670E+02  0.19731597815E+02  0.16189367259E+02  0.54042120303E+02  0.00000000000E+00 0.  1.
         -2    1    1    2    0  502 -0.16740934815E+02 -0.32121860182E+02 -0.28395199124E+03  0.28625304562E+03  0.00000000000E+00 0.  1.
<scales pt_clust_5="13000.00000" pt_clust_6="13000.00000" pt_clust_7="13000.00000" pt_clust_8="13000.00000" pt_clust_9="36.22255"></scales>
<clustering>
<clus scale="   36.223">  2  9  1 -1</clus>
<clus scale="   79.206">  5  6 -1 -1</clus>
<clus scale="   81.034">  2  5  1 -1</clus>
<clus scale="   95.275">  7  8 -1 -1</clus>
<clus scale="   36.223">  2  5  1 -1</clus>
</clustering>
</event>
<event>
 9    2  0.3745229E-005  0.1834395E+03  0.7546771E-02  0.1197679E+00
         21   -1    0    0  501  502  0.00000000000E+00  0.00000000000E+00  0.74853583489E+02  0.74853583489E+02  0.00000000000E+00 0.  1.
         -1   -1    0    0    0  501 -0.00000000000E+00 -0.00000000000E+00 -0.66538770774E+03  0.66538770774E+03  0.00000000000E+00 0.  1.
         24    2    1    2    0    0 -0.11206552804E+02 -0.52750647372E+01 -0.17112995388E+03  0.19204499176E+03  0.86269372396E+02 0.  0.
         23    2    1    2    0    0  0.14564223650E+03  0.74360276489E+02 -0.30066318848E+03  0.35598511271E+03  0.97907792281E+02 0.  0.
        -13    1    3    3    0    0 -0.17999281115E+01 -0.34700339419E+02 -0.15152266209E+03  0.15545568637E+03  0.00000000000E+00 0.  1.
         14    1    3    3    0    0 -0.94066246924E+01  0.29425274682E+02 -0.19607291788E+02  0.36589305397E+02  0.00000000000E+00 0. -1.
        -11    1    4    4    0    0  0.12977859621E+03  0.55865158443E+02 -0.16097492185E+03  0.21418759400E+03  0.00000000000E+00 0.  1.
         11    1    4    4    0    0  0.15863640292E+02  0.18495118046E+02 -0.13968826664E+03  0.14179751870E+03  0.00000000000E+00 0. -1.
         -2    1    1    2    0  502 -0.13443568370E+03 -0.69085211752E+02 -0.11874098190E+03  0.19221118676E+03  0.00000000000E+00 0.  1.
<scales pt_clust_5="13000.00000" pt_clust_6="13000.00000" pt_clust_7="13000.00000" pt_clust_8="13000.00000" pt_clust_9="155.12608"></scales>
<clustering>
<clus scale="   86.269">  5  6 -1 -1</clus>
<clus scale="   87.154">  2  5  1 -1</clus>
<clus scale="   97.908">  7  8 -1 -1</clus>
<clus scale="  155.126">  1  9  2 -1</clus>
<clus scale="  155.126">  1  5  2 -1</clus>
</clustering>
</event>
<event>
 9    2  0.3745229E-005  0.1907700E+03  0.7546771E-02  0.1157838E+00
         21   -1    0    0  501  502  0.00000000000E+00  0.00000000000E+00  0.92223394934E+02  0.92223394934E+02  0.00000000000E+00 0. -1.
          2   -1    0    0  502    0 -0.00000000000E+00 -0.00000000000E+00 -0.68574841904E+03  0.68574841904E+03  0.00000000000E+00 0. -1.
         24    2    1    2    0    0 -0.14651207660E+03 -0.56327502961E+02 -0.36658763351E+03  0.40698854439E+03  0.81330228369E+02 0.  0.
         23    2    1    2    0    0  0.18479392526E+03  0.10472998858E+03 -0.20211940455E+03  0.30446836160E+03  0.82046110228E+02 0.  0.
        -11    1    3    3    0    0 -0.17364594322E+02 -0.42679329401E+02 -0.79361009848E+02  0.91767228237E+02  0.00000000000E+00 0.  1.
         12    1    3    3    0    0 -0.12914748227E+03 -0.13648173560E+02 -0.28722662366E+03  0.31522131616E+03  0.00000000000E+00 0. -1.
        -13    1    4    4    0    0  0.25176080198E+02  0.55012880941E+02 -0.55571788584E+02  0.82149106934E+02  0.00000000000E+00 0.  1.
         13    1    4    4    0    0  0.15961784506E+03  0.49717107644E+02 -0.14654761596E+03  0.22231925467E+03  0.00000000000E+00 0. -1.
          1    1    1    2  501    0 -0.38281848659E+02 -0.48402485623E+02 -0.24817986047E+02  0.66514907974E+02  0.00000000000E+00 0. -1.
<scales pt_clust_5="13000.00000" pt_clust_6="13000.00000" pt_clust_7="13000.00000" pt_clust_8="13000.00000" pt_clust_9="61.71143"></scales>
<clustering>
<clus scale="   61.711">  1  9  2 -1</clus>
<clus scale="   81.330">  5  6 -1 -1</clus>
<clus scale="   82.046">  7  8 -1 -1</clus>
<clus scale="  190.463">  2  5  1 -1</clus>
<clus scale="   61.711">  1  5  2 -1</clus>
</clustering>
</event>
<event>
 9    2  0.3745229E-005  0.9249216E+02  0.7546771E-02  0.1303660E+00
         -1   -1    0    0    0  501 -0.00000000000E+00  0.00000000000E+00  0.84466192448E+02  0.84466192448E+02  0.00000000000E+00 0.  1.
         21   -1    0    0  501  502  0.00000000000E+00 -0.00000000000E+00 -0.19386870487E+03  0.19386870487E+03  0.00000000000E+00 0.  1.
         24    2    1    2    0    0  0.85342929343E+01  0.19791471954E+02  0.31155084948E+02  0.88821522872E+02  0.80337333098E+02 0.  0.
         23    2    1    2    0    0  0.83225800273E+01  0.63812965484E+01 -0.81837620552E+02  0.12305132772E+03  0.91292096223E+02 0.  0.
        -13    1    3    3    0    0 -0.95068025019E+01  0.44680038950E+02  0.35398445851E+02  0.57790441624E+02  0.00000000000E+00 0.  1.
         14    1    3    3    0    0  0.18041095436E+02 -0.24888566997E+02 -0.42433609038E+01  0.31031081248E+02  0.00000000000E+00 0. -1.
        -13    1    4    4    0    0  0.21897288800E+02  0.44363129232E+02 -0.57862160972E+02  0.76128891785E+02  0.00000000000E+00 0.  1.
         13    1    4    4    0    0 -0.13574708773E+02 -0.37981832684E+02 -0.23975459579E+02  0.46922435938E+02  0.00000000000E+00 0. -1.
         -2    1    1    2    0  502 -0.16856872962E+02 -0.26172768502E+02 -0.58719976821E+02  0.66462046725E+02  0.00000000000E+00 0.  1.
<scales pt_clust_5="13000.00000" pt_clust_6="13000.00000" pt_clust_7="13000.00000" pt_clust_8="13000.00000" pt_clust_9="31.13146"></scales>
<clustering>
<clus scale="   31.131">  2  9  1 -1</clus>
<clus scale="   80.337">  5  6 -1 -1</clus>
<clus scale="   81.698">  1  5  2 -1</clus>
<clus scale="   91.292">  7  8 -1 -1</clus>
<clus scale="   31.131">  2  5  1 -1</clus>
</clustering>
</event>
<event>
 9    2  0.3745229E-005  0.9459140E+02  0.7546771E-02  0.1292936E+00
         -3   -1    0    0    0  501 -0.00000000000E+00  0.00000000000E+00  0.54137513469E+02  0.54137513469E+02  0.00000000000E+00 0.  1.
         21   -1    0    0  501  502  0.00000000000E+00 -0.00000000000E+00 -0.60025919043E+03  0.60025919043E+03  0.00000000000E+00 0.  1.
         23    2    1    2    0    0 -0.43311531748E+02 -0.30745352911E+02 -0.61407967268E+02  0.12256322907E+03  0.91813077322E+02 0.  0.
         24    2    1    2    0    0 -0.61432149122E+01 -0.48164196645E+02 -0.11031337633E+03  0.14602510452E+03  0.82442472219E+02 0.  0.
        -11    1    4    4    0    0 -0.38093277764E+02 -0.27124382480E+02 -0.26157351747E+02  0.53582058435E+02  0.00000000000E+00 0.  1.
         12    1    4    4    0    0  0.31950062851E+02 -0.21039814165E+02 -0.84156024584E+02  0.92443046088E+02  0.00000000000E+00 0. -1.
        -13    1    3    3    0    0  0.88577958934E+01 -0.44903208290E+02 -0.77925221334E+01  0.46427169460E+02  0.00000000000E+00 0. -1.
         13    1    3    3    0    0 -0.52169327641E+02  0.14157855380E+02 -0.53615445135E+02  0.76136059607E+02  0.00000000000E+00 0.  1.
         -4    1    1    2    0  502  0.49454746660E+02  0.78909549556E+02 -0.37440033336E+03  0.38580837031E+03  0.00000000000E+00 0.  1.
<scales pt_clust_5="13000.00000" pt_clust_6="13000.00000" pt_clust_7="13000.00000" pt_clust_8="13000.00000" pt_clust_9="93.12620"></scales>
<clustering>
<clus scale="   82.442">  5  6 -1 -1</clus>
<clus scale="   91.813">  7  8 -1 -1</clus>
<clus scale="   93.126">  2  9  1 -1</clus>
<clus scale="   93.126">  2  5  1 -1</clus>
<clus scale="   93.126">  2  5  1 -1</clus>
</clustering>
</event>
<event>
 9    2  0.3745229E-005  0.1242810E+03  0.7546771E-02  0.1247094E+00
         21   -1    0    0  501  502  0.00000000000E+00  0.00000000000E+00  0.59579884785E+02  0.59579884785E+02  0.00000000000E+00 0. -1.
          2   -1    0    0  502    0 -0.00000000000E+00 -0.00000000000E+00 -0.51263511252E+03  0.51263511252E+03  0.00000000000E+00 0. -1.
         24    2    1    2    0    0 -0.10410083621E+02  0.57382262168E+02 -0.26311507909E+03  0.28135937229E+03  0.80823620821E+02 0.  0.
         23    2    1    2    0    0 -0.11581299851E+02  0.43528856394E+02 -0.69549731273E+02  0.13223492210E+03  0.10305348930E+03 0.  0.
        -13    1    3    3    0    0  0.25181849718E+02  0.52376621818E+02 -0.11381551081E+03  0.12779439177E+03  0.00000000000E+00 0.  1.
         14    1    3    3    0    0 -0.35591933339E+02  0.50056403499E+01 -0.14929956828E+03  0.15356498052E+03  0.00000000000E+00 0. -1.
        -11    1    4    4    0    0 -0.26168090025E+02 -0.23641345929E+02 -0.49230985059E+02  0.60558831418E+02  0.00000000000E+00 0.  1.
         11    1    4    4    0    0  0.14586790174E+02  0.67170202323E+02 -0.20318746215E+02  0.71676090682E+02  0.00000000000E+00 0. -1.
          1    1    1    2  501    0  0.21991383472E+02 -0.10091111856E+03 -0.12039041738E+03  0.15862070292E+03  0.00000000000E+00 0. -1.
<scales pt_clust_5="13000.00000" pt_clust_6="13000.00000" pt_clust_7="13000.00000" pt_clust_8="13000.00000" pt_clust_9="69.46754"></scales>
<clustering>
<clus scale="   80.824">  5  6 -1 -1</clus>
<clus scale="   99.667">  2  5  1 -1</clus>
<clus scale="   69.468">  1  9  2 -1</clus>
<clus scale="  103.053">  7  8 -1 -1</clus>
<clus scale="   69.468">  1  5  2 -1</clus>
</clustering>
</event>
<event>
 9    2  0.3745229E-005  0.3341235E+03  0.7546771E-02  0.1069327E+00
         -1   -1    0    0    0  501 -0.00000000000E+00  0.00000000000E+00  0.22598749255E+03  0.22598749255E+03  0.00000000000E+00 0.  1.
         21   -1    0    0  501  502  0.00000000000E+00 -0.00000000000E+00 -0.42539104420E+03  0.42539104420E+03  0.00000000000E+00 0. -1.
         24    2    1    2    0    0 -0.21910284858E+03 -0.44762424550E+02 -0.15589894155E+03  0.28378709183E+03  0.78872686065E+02 0.  0.
         23    2    1    2    0    0 -0.19682424173E+02 -0.26653597284E+02 -0.66052423562E+02  0.11733745684E+03  0.91144632583E+02 0.  0.
        -13    1    3    3    0    0 -0.90693786147E+02  0.20148441126E+02 -0.53774981362E+02  0.10734556882E+03  0.00000000000E+00 0.  1.
         14    1    3    3    0    0 -0.12840906244E+03 -0.64910865675E+02 -0.10212396018E+03  0.17644152301E+03  0.00000000000E+00 0. -1.
        -11    1    4    4    0    0  0.19798547896E+02 -0.54910698370E+01 -0.69438708052E+02  0.72414560156E+02  0.00000000000E+00 0.  1.
         11    1    4    4    0    0 -0.39480972069E+02 -0.21162527447E+02  0.33862844899E+01  0.44922896679E+02  0.00000000000E+00 0. -1.
         -2    1    1    2    0  502  0.23878527276E+03  0.71416021834E+02  0.22547813454E+02  0.25025398808E+03  0.00000000000E+00 0.  1.
<scales pt_clust_5="13000.00000" pt_clust_6="13000.00000" pt_clust_7="13000.00000" pt_clust_8="13000.00000" pt_clust_9="249.23627"></scales>
<clustering>
<clus scale="   78.873">  5  6 -1 -1</clus>
<clus scale="   91.145">  7  8 -1 -1</clus>
<clus scale="   95.854">  5  7 -1 -1</clus>
<clus scale="  249.236">  2  9  1 -1</clus>
<clus scale="  249.236">  2  5  1 -1</clus>
</clustering>
</event>
<event>
 9    2  0.3745229E-005  0.9767605E+02  0.7546771E-02  0.1294689E+00
          2   -1    0    0  502    0 -0.00000000000E+00  0.00000000000E+00  0.42835778301E+03  0.42835778301E+03  0.00000000000E+00 0. -1.
         21   -1    0    0  501  502  0.00000000000E+00 -0.00000000000E+00 -0.11725363777E+03  0.11725363777E+03  0.00000000000E+00 0. -1.
         23    2    1    2    0    0  0.20894184190E+02  0.29220275567E+02  0.37357494639E+03  0.38627496585E+03  0.91431489312E+02 0.  0.
         24    2    1    2    0    0 -0.49508410329E+02  0.14840729812E+02 -0.22341569089E+02  0.93226687129E+02  0.74301679180E+02 0.  0.
        -13    1    4    4    0    0 -0.31340735517E+02 -0.27373608150E+02  0.11192663587E+01  0.41627021069E+02  0.00000000000E+00 0.  1.
         14    1    4    4    0    0 -0.18167674812E+02  0.42214337962E+02 -0.23460835448E+02  0.51599666060E+02  0.00000000000E+00 0. -1.
        -13    1    3    3    0    0 -0.21367312704E+02  0.47577270488E+02  0.20000900102E+03  0.20669726463E+03  0.00000000000E+00 0. -1.
         13    1    3    3    0    0  0.42261496894E+02 -0.18356994921E+02  0.17356594537E+03  0.17957770122E+03  0.00000000000E+00 0.  1.
          1    1    1    2  501    0  0.28614226140E+02 -0.44061005379E+02 -0.40129232066E+02  0.66109767801E+02  0.00000000000E+00 0. -1.
<scales pt_clust_5="13000.00000" pt_clust_6="13000.00000" pt_clust_7="13000.00000" pt_clust_8="13000.00000" pt_clust_9="52.53709"></scales>
<clustering>
<clus scale="   52.537">  2  9  1 -1</clus>
<clus scale="   74.302">  5  6 -1 -1</clus>
<clus scale="   81.863">  2  5  1 -1</clus>
<clus scale="   91.431">  7  8 -1 -1</clus>
<clus scale="   52.537">  2  5  1 -1</clus>
</clustering>
</event>
<event>
 9    2  0.3745229E-005  0.9450201E+02  0.7546771E-02  0.1299150E+00
         21   -1    0    0  501  502  0.00000000000E+00  0.00000000000E+00  0.31212965153E+03  0.31212965153E+03  0.00000000000E+00 0. -1.
          2   -1    0    0  502    0 -0.00000000000E+00 -0.00000000000E+00 -0.47469430990E+02  0.47469430990E+02  0.00000000000E+00 0. -1.
         23    2    1    2    0    0 -0.26970366203E+01  0.32948650905E+01  0.81456934779E+02  0.12323435245E+03  0.92376096790E+02 0.  0.
         24    2    1    2    0    0 -0.47032385424E+02  0.18042305651E+02  0.11505694467E+03  0.14934626032E+03  0.80799968346E+02 0.  0.
        -11    1    4    4    0    0  0.53541106435E+01  0.37253301411E+02  0.60878450624E+02  0.71572765192E+02  0.00000000000E+00 0.  1.
         12    1    4    4    0    0 -0.52386496068E+02 -0.19210995760E+02  0.54178494043E+02  0.77773495132E+02  0.00000000000E+00 0. -1.
        -11    1    3    3    0    0 -0.33647625847E+02  0.33591507534E+02  0.54025102777E+02  0.71967102440E+02  0.00000000000E+00 0. -1.
         11    1    3    3    0    0  0.30950589227E+02 -0.30296642443E+02  0.27431832002E+02  0.51267250012E+02  0.00000000000E+00 0.  1.
          1    1    1    2  501    0  0.49729422045E+02 -0.21337170741E+02  0.68146341098E+02  0.87018469748E+02  0.00000000000E+00 0. -1.
<scales pt_clust_5="13000.00000" pt_clust_6="13000.00000" pt_clust_7="13000.00000" pt_clust_8="13000.00000" pt_clust_9="54.11368"></scales>
<clustering>
<clus scale="   54.114">  1  9  2 -1</clus>
<clus scale="   80.800">  5  6 -1 -1</clus>
<clus scale="   83.222">  1  5  2 -1</clus>
<clus scale="   92.376">  7  8 -1 -1</clus>
<clus scale="   54.114">  1  5  2 -1</clus>
</clustering>
</event>
<event>
 9    2  0.3745229E-005  0.2707324E+03  0.7546771E-02  0.1101389E+00
         -1   -1    0    0    0  501 -0.00000000000E+00  0.00000000000E+00  0.11796907378E+03  0.11796907378E+03  0.00000000000E+00 0.  1.
         21   -1    0    0  501  502  0.00000000000E+00 -0.00000000000E+00 -0.92989931629E+03  0.92989931629E+03  0.00000000000E+00 0.  1.
         24    2    1    2    0    0  0.20009411138E+03 -0.74935827696E+02 -0.28443918378E+03  0.36443598154E+03  0.79087949099E+02 0.  0.
         23    2    1    2    0    0 -0.27060534354E+03  0.13089284266E+03 -0.28229135411E+03  0.42223149633E+03  0.90723975196E+02 0.  0.
        -11    1    3    3    0    0  0.14208613672E+03 -0.89504613743E+02 -0.20501469684E+03  0.26501051309E+03  0.00000000000E+00 0.  1.
         12    1    3    3    0    0  0.58007974662E+02  0.14568786046E+02 -0.79424486933E+02  0.99425468446E+02  0.00000000000E+00 0. -1.
        -13    1    4    4    0    0 -0.65407701822E+02  0.59675765123E+02 -0.40980475590E+02  0.97564152127E+02  0.00000000000E+00 0. -1.
         13    1    4    4    0    0 -0.20519764172E+03  0.71217077541E+02 -0.24131087852E+03  0.32466734421E+03  0.00000000000E+00 0.  1.
         -2    1    1    2    0  502  0.70511232162E+02 -0.55957014968E+02 -0.24519970462E+03  0.26120091219E+03  0.00000000000E+00 0.  1.
<scales pt_clust_5="13000.00000" pt_clust_6="13000.00000" pt_clust_7="13000.00000" pt_clust_8="13000.00000" pt_clust_9="90.01678"></scales>
<clustering>
<clus scale="   79.088">  5  6 -1 -1</clus>
<clus scale="   90.017">  2  9  1 -1</clus>
<clus scale="   90.724">  7  8 -1 -1</clus>
<clus scale="  267.058">  1  5  2 -1</clus>
<clus scale="   90.017">  2  5  1 -1</clus>
</clustering>
</event>
<event>
 9    2  0.3745229E-005  0.1380041E+03  0.7546771E-02  0.1225709E+00
         21   -1    0    0  501  502  0.00000000000E+00  0.00000000000E+00  0.18495648308E+02  0.18495648308E+02  0.00000000000E+00 0. -1.
          2   -1    0    0  502    0 -0.00000000000E+00 -0.00000000000E+00 -0.18975843330E+04  0.18975843330E+04  0.00000000000E+00 0. -1.
         24    2    1    2    0    0  0.14456561058E+02 -0.77469012314E+02 -0.75579998743E+03  0.76415354091E+03  0.80539264009E+02 0.  0.
         23    2    1    2    0    0  0.68369560863E+02 -0.22578717076E+02 -0.68788714853E+03  0.69756510483E+03  0.90687105185E+02 0.  0.
        -11    1    3    3    0    0  0.17315579120E+02 -0.41355101034E+02 -0.13404451669E+03  0.14134357473E+03  0.00000000000E+00 0.  1.
         12    1    3    3    0    0 -0.28590180616E+01 -0.36113911280E+02 -0.62175547074E+03  0.62280996618E+03  0.00000000000E+00 0. -1.
        -11    1    4    4    0    0 -0.20636497389E+02  0.73237955027E+01 -0.13171148693E+03  0.13351935737E+03  0.00000000000E+00 0.  1.
         11    1    4    4    0    0  0.89006058252E+02 -0.29902512579E+02 -0.55617566161E+03  0.56404574746E+03  0.00000000000E+00 0. -1.
          1    1    1    2  501    0 -0.82826121921E+02  0.10004772939E+03 -0.43540154875E+03  0.45436133559E+03  0.00000000000E+00 0. -1.
<scales pt_clust_5="13000.00000" pt_clust_6="13000.00000" pt_clust_7="13000.00000" pt_clust_8="13000.00000" pt_clust_9="104.02390"></scales>
<clustering>
<clus scale="   80.539">  5  6 -1 -1</clus>
<clus scale="   90.687">  7  8 -1 -1</clus>
<clus scale="  112.681">  2  5  1 -1</clus>
<clus scale="  104.024">  1  9  2 -1</clus>
<clus scale="  104.024">  1  5  2 -1</clus>
</clustering>
</event>
<event>
 9    2  0.3745229E-005  0.1265590E+03  0.7546771E-02  0.1247480E+00
         21   -1    0    0  501  502  0.00000000000E+00  0.00000000000E+00  0.10604126766E+03  0.10604126766E+03  0.00000000000E+00 0.  1.
         -1   -1    0    0    0  501 -0.00000000000E+00 -0.00000000000E+00 -0.30629904132E+03  0.30629904132E+03  0.00000000000E+00 0.  1.
         24    2    1    2    0    0  0.41859510990E+02 -0.25347457276E+02  0.66163292561E+01  0.93885930313E+02  0.79850359093E+02 0.  0.
         23    2    1    2    0    0  0.44156076445E+02 -0.26351055889E+02 -0.19057914720E+03  0.21678362019E+03  0.89613555917E+02 0.  0.
        -13    1    3    3    0    0  0.43474857279E+02 -0.46605014531E+02  0.22187413262E+02  0.67486086730E+02  0.00000000000E+00 0.  1.
         14    1    3    3    0    0 -0.16153462895E+01  0.21257557255E+02 -0.15571084006E+02  0.26399843583E+02  0.00000000000E+00 0. -1.
        -13    1    4    4    0    0  0.70945704141E+02 -0.26836946225E+02 -0.12937334217E+03  0.14996991793E+03  0.00000000000E+00 0.  1.
         13    1    4    4    0    0 -0.26789627696E+02  0.48589033606E+00 -0.61205805025E+02  0.66813702264E+02  0.00000000000E+00 0. -1.
         -2    1    1    2    0  502 -0.86015587435E+02  0.51698513165E+02 -0.16294955721E+02  0.10167075847E+03  0.00000000000E+00 0.  1.
<scales pt_clust_5="13000.00000" pt_clust_6="13000.00000" pt_clust_7="13000.00000" pt_clust_8="13000.00000" pt_clust_9="89.36769"></scales>
<clustering>
<clus scale="   79.850">  5  6 -1 -1</clus>
<clus scale="   89.614">  7  8 -1 -1</clus>
<clus scale="   93.653">  2  5  1 -1</clus>
<clus scale="   89.368">  1  9  2 -1</clus>
<clus scale="   89.368">  1  5  2 -1</clus>
</clustering>
</event>
<event>
 9    2  0.3745229E-005  0.1116175E+03  0.7546771E-02  0.1264591E+00
          2   -1    0    0  502    0 -0.00000000000E+00  0.00000000000E+00  0.16175386372E+04  0.16175386372E+04  0.00000000000E+00 0. -1.
         21   -1    0    0  501  502  0.00000000000E+00 -0.00000000000E+00 -0.29011803309E+02  0.29011803309E+02  0.00000000000E+00 0. -1.
         24    2    1    2    0    0 -0.47760688661E+02  0.33621588389E+02  0.12861590903E+04  0.12898697344E+04  0.78404282346E+02 0.  0.
         23    2    1    2    0    0  0.30135048432E+02 -0.49202046144E+02  0.31191484076E+03  0.33129250172E+03  0.95576625389E+02 0.  0.
        -13    1    3    3    0    0 -0.39296027629E+01  0.28349201333E+02  0.14180262180E+03  0.14466202869E+03  0.00000000000E+00 0.  1.
         14    1    3    3    0    0 -0.43831085898E+02  0.52723870554E+01  0.11443564685E+04  0.11452077057E+04  0.00000000000E+00 0. -1.
        -11    1    4    4    0    0  0.16954478997E+02  0.28002848571E+02  0.10805738118E+03  0.11290709240E+03  0.00000000000E+00 0.  1.
         11    1    4    4    0    0  0.13180569435E+02 -0.77204894715E+02  0.20385745958E+03  0.21838540932E+03  0.00000000000E+00 0. -1.
          1    1    1    2  501    0  0.17625640230E+02  0.15580457755E+02 -0.95470971976E+01  0.25388204392E+02  0.00000000000E+00 0. -1.
<scales pt_clust_5="13000.00000" pt_clust_6="13000.00000" pt_clust_7="13000.00000" pt_clust_8="13000.00000" pt_clust_9="23.52475"></scales>
<clustering>
<clus scale="   23.525">  2  9  1 -1</clus>
<clus scale="   78.404">  5  6 -1 -1</clus>
<clus scale="   95.577">  7  8 -1 -1</clus>
<clus scale="   97.318">  1  5  2 -1</clus>
<clus scale="   23.525">  2  5  1 -1</clus>
</clustering>
</event>
<event>
 9    2  0.3745229E-005  0.9785563E+02  0.7546771E-02  0.1288843E+00
          2   -1    0    0  502    0 -0.00000000000E+00  0.00000000000E+00  0.57697443214E+03  0.57697443214E+03  0.00000000000E+00 0. -1.
         21   -1    0    0  501  502  0.00000000000E+00 -0.00000000000E+00 -0.22274035159E+02  0.22274035159E+02  0.00000000000E+00 0. -1.
         24    2    1    2    0    0 -0.30934502802E+02  0.36459994461E+02  0.33443425807E+03  0.34700783697E+03  0.79258383044E+02 0.  0.
         23    2    1    2    0    0  0.39532029449E+02 -0.13808074239E+02  0.19201166565E+03  0.21502044477E+03  0.87246018003E+02 0.  0.
        -11    1    3    3    0    0  0.26238398764E+02  0.10923840723E+02  0.77304418788E+02  0.82363566156E+02  0.00000000000E+00 0.  1.
         12    1    3    3    0    0 -0.57172901566E+02  0.25536153737E+02  0.25712983929E+03  0.26464427081E+03  0.00000000000E+00 0. -1.
        -13    1    4    4    0    0  0.11014849908E+02  0.36675678405E+02  0.87252912302E+02  0.95286426159E+02  0.00000000000E+00 0. -1.
         13    1    4    4    0    0  0.28517179542E+02 -0.50483752644E+02  0.10475875335E+03  0.11973401861E+03  0.00000000000E+00 0.  1.
          1    1    1    2  501    0 -0.85975266471E+01 -0.22651920221E+02  0.28254473258E+02  0.37220185562E+02  0.00000000000E+00 0. -1.
<scales pt_clust_5="13000.00000" pt_clust_6="13000.00000" pt_clust_7="13000.00000" pt_clust_8="13000.00000" pt_clust_9="24.22864"></scales>
<clustering>
<clus scale="   24.229">  2  9  1 -1</clus>
<clus scale="   79.258">  5  6 -1 -1</clus>
<clus scale="   87.246">  7  8 -1 -1</clus>
<clus scale="   90.806">  1  5  2 -1</clus>
<clus scale="   24.229">  2  5  1 -1</clus>
</clustering>
</event>
<event>
 9    2  0.3745229E-005  0.2026660E+03  0.7546771E-02  0.1148664E+00
         21   -1    0    0  501  502  0.00000000000E+00  0.00000000000E+00  0.14433078386E+03  0.14433078386E+03  0.00000000000E+00 0. -1.
          2   -1    0    0  502    0 -0.00000000000E+00 -0.00000000000E+00 -0.46834869080E+03  0.46834869080E+03  0.00000000000E+00 0. -1.
         23    2    1    2    0    0  0.33495772022E+02 -0.17556887063E+03 -0.19207893937E+03  0.27782364839E+03  0.91352425123E+02 0.  0.
         24    2    1    2    0    0  0.52851984639E+02  0.19087114620E+03 -0.59657777897E+02  0.22121311821E+03  0.78428734992E+02 0.  0.
        -11    1    4    4    0    0  0.41441836908E+02  0.82132426862E+02 -0.63544783781E+02  0.11180832230E+03  0.00000000000E+00 0.  1.
         12    1    4    4    0    0  0.11410147731E+02  0.10873871934E+03  0.38870058847E+01  0.10940479591E+03  0.00000000000E+00 0. -1.
        -11    1    3    3    0    0 -0.17779552443E+02 -0.79806003857E+02 -0.12745956252E+03  0.15143001953E+03  0.00000000000E+00 0. -1.
         11    1    3    3    0    0  0.51275324465E+02 -0.95762866771E+02 -0.64619376852E+02  0.12639362886E+03  0.00000000000E+00 0.  1.
          1    1    1    2  501    0 -0.86347756662E+02 -0.15302275570E+02 -0.72281189669E+02  0.11364270807E+03  0.00000000000E+00 0. -1.
<scales pt_clust_5="13000.00000" pt_clust_6="13000.00000" pt_clust_7="13000.00000" pt_clust_8="13000.00000" pt_clust_9="87.69323"></scales>
<clustering>
<clus scale="   78.429">  5  6 -1 -1</clus>
<clus scale="   87.693">  1  9  2 -1</clus>
<clus scale="   91.352">  7  8 -1 -1</clus>
<clus scale="  197.178">  1  5  2 -1</clus>
<clus scale="   87.693">  1  5  2 -1</clus>
</clustering>
</event>
<event>
 9    2  0.3745229E-005  0.9352535E+02  0.7546771E-02  0.1300400E+00
          2   -1    0    0  502    0 -0.00000000000E+00  0.00000000000E+00  0.25539631232E+03  0.25539631232E+03  0.00000000000E+00 0. -1.
         21   -1    0    0  501  502  0.00000000000E+00 -0.00000000000E+00 -0.88264229578E+02  0.88264229578E+02  0.00000000000E+00 0.  1.
         23    2    1    2    0    0  0.44443910280E+01  0.26355726064E+02  0.48037185426E+02  0.10569257608E+03  0.90271659705E+02 0.  0.
         24    2    1    2    0    0 -0.56006948464E+02  0.29000905579E+02  0.64490179069E+01  0.10227659490E+03  0.80256346981E+02 0.  0.
        -11    1    4    4    0    0 -0.40358592847E+02  0.56944043566E+02  0.77442181022E+01  0.70224020309E+02  0.00000000000E+00 0.  1.
         12    1    4    4    0    0 -0.15648355617E+02 -0.27943137987E+02 -0.12952001953E+01  0.32052574587E+02  0.00000000000E+00 0. -1.
        -13    1    3    3    0    0 -0.12633662413E+02 -0.29951059839E+02  0.52202230564E+01  0.32923033582E+02  0.00000000000E+00 0.  1.
         13    1    3    3    0    0  0.17078053441E+02  0.56306785903E+02  0.42816962370E+02  0.72769542493E+02  0.00000000000E+00 0. -1.
          1    1    1    2  501    0  0.51562557436E+02 -0.55356631643E+02  0.11264587941E+03  0.13569137093E+03  0.00000000000E+00 0. -1.
<scales pt_clust_5="13000.00000" pt_clust_6="13000.00000" pt_clust_7="13000.00000" pt_clust_8="13000.00000" pt_clust_9="75.65091"></scales>
<clustering>
<clus scale="   75.651">  2  9  1 -1</clus>
<clus scale="   80.256">  5  6 -1 -1</clus>
<clus scale="   83.899">  2  5  1 -1</clus>
<clus scale="   90.272">  7  8 -1 -1</clus>
<clus scale="   75.651">  2  5  1 -1</clus>
</clustering>
</event>
<event>
 9    2  0.3745229E-005  0.1005356E+03  0.7546771E-02  0.1280930E+00
          2   -1    0    0  502    0 -0.00000000000E+00  0.00000000000E+00  0.48547044454E+03  0.48547044454E+03  0.00000000000E+00 0. -1.
         21   -1    0    0  501  502  0.00000000000E+00 -0.00000000000E+00 -0.10180575344E+03  0.10180575344E+03  0.00000000000E+00 0.  1.
         24    2    1    2    0    0 -0.12104703495E+02  0.44432743443E+02  0.28024660974E+03  0.29812666351E+03  0.90667263600E+02 0.  0.
         23    2    1    2    0    0  0.44286300457E+01 -0.16045635590E+02 -0.70228060337E+02  0.11303101608E+03  0.86988246051E+02 0.  0.
        -11    1    3    3    0    0 -0.47154116520E+00  0.71856625151E+02  0.19402918016E+03  0.20690799811E+03  0.00000000000E+00 0.  1.
         12    1    3    3    0    0 -0.11633162329E+02 -0.27423881708E+02  0.86217429583E+02  0.91218665401E+02  0.00000000000E+00 0. -1.
        -13    1    4    4    0    0  0.13530072840E+02  0.21150038799E+02  0.76505031377E+01  0.26247232435E+02  0.00000000000E+00 0. -1.
         13    1    4    4    0    0 -0.91014427941E+01 -0.37195674389E+02 -0.77878563475E+02  0.86783783641E+02  0.00000000000E+00 0.  1.
          1    1    1    2  501    0  0.76760734490E+01 -0.28387107853E+02  0.17364614169E+03  0.17611851839E+03  0.00000000000E+00 0. -1.
<scales pt_clust_5="13000.00000" pt_clust_6="13000.00000" pt_clust_7="13000.00000" pt_clust_8="13000.00000" pt_clust_9="29.40665"></scales>
<clustering>
<clus scale="   29.407">  2  9  1 -1</clus>
<clus scale="   86.988">  7  8 -1 -1</clus>
<clus scale="   90.667">  5  6 -1 -1</clus>
<clus scale="   97.231">  2  7  1 -1</clus>
<clus scale="   29.407">  2  5  1 -1</clus>
</clustering>
</event>
<event>
 9    2  0.3745229E-005  0.1282715E+03  0.7546771E-02  0.1240000E+00
          2   -1    0    0  502    0 -0.00000000000E+00  0.00000000000E+00  0.15711802677E+03  0.15711802677E+03  0.00000000000E+00 0. -1.
         21   -1    0    0  501  502  0.00000000000E+00 -0.00000000000E+00 -0.16541473737E+03  0.16541473737E+03  0.00000000000E+00 0. -1.
         23    2    1    2    0    0  0.63814661638E+00  0.77943811107E+02  0.73092242900E+02  0.15271155325E+03  0.10909948489E+03 0.  0.
         24    2    1    2    0    0  0.10607815590E+02 -0.52460341195E+02 -0.14418078941E+02  0.97288618603E+02  0.79953618802E+02 0.  0.
        -11    1    4    4    0    0  0.27687925132E+02 -0.14183954303E+02 -0.38067722429E+02  0.49162559419E+02  0.00000000000E+00 0.  1.
         12    1    4    4    0    0 -0.17080109541E+02 -0.38276386892E+02  0.23649643488E+02  0.48126059184E+02  0.00000000000E+00 0. -1.
        -11    1    3    3    0    0 -0.29218602260E+02  0.99449376459E+01 -0.17570193676E+02  0.35515351731E+02  0.00000000000E+00 0.  1.
         11    1    3    3    0    0  0.29856748876E+02  0.67998873461E+02  0.90662436576E+02  0.11719620152E+03  0.00000000000E+00 0. -1.
          1    1    1    2  501    0 -0.11245962207E+02 -0.25483469912E+02 -0.66970874558E+02  0.72532592286E+02  0.00000000000E+00 0. -1.
<scales pt_clust_5="13000.00000" pt_clust_6="13000.00000" pt_clust_7="13000.00000" pt_clust_8="13000.00000" pt_clust_9="27.85460"></scales>
<clustering>
<clus scale="   27.855">  2  9  1 -1</clus>
<clus scale="   79.954">  5  6 -1 -1</clus>
<clus scale="  104.611">  2  5  1 -1</clus>
<clus scale="  109.099">  7  8 -1 -1</clus>
<clus scale="   27.855">  2  5  1 -1</clus>
</clustering>
</event>
<event>
 9    2  0.3745229E-005  0.1762215E+03  0.7546771E-02  0.1184267E+00
          2   -1    0    0  502    0 -0.00000000000E+00  0.00000000000E+00  0.56361411645E+03  0.56361411645E+03  0.00000000000E+00 0. -1.
         21   -1    0    0  501  502  0.00000000000E+00 -0.00000000000E+00 -0.10696397968E+03  0.10696397968E+03  0.00000000000E+00 0. -1.
         23    2    1    2    0    0 -0.10868439652E+03  0.48457003079E+02  0.15880948138E+03  0.20660061091E+03  0.57471574342E+02 0.  0.
         24    2    1    2    0    0  0.31421854449E+02  0.13287934699E+03  0.14891499545E+03  0.21693250055E+03  0.78992278922E+02 0.  0.
        -11    1    4    4    0    0  0.35625805576E+02  0.14830902945E+02  0.47870112372E+02  0.61487408172E+02  0.00000000000E+00 0.  1.
         12    1    4    4    0    0 -0.42039511275E+01  0.11804844405E+03  0.10104488308E+03  0.15544509238E+03  0.00000000000E+00 0. -1.
        -11    1    3    3    0    0 -0.91133297115E+02  0.60120594500E+02  0.14458636416E+03  0.18117665530E+03  0.00000000000E+00 0. -1.
         11    1    3    3    0    0 -0.17551099404E+02 -0.11663591421E+02  0.14223117221E+02  0.25423955606E+02  0.00000000000E+00 0.  1.
          1    1    1    2  501    0  0.77262542070E+02 -0.18133635007E+03  0.14892565994E+03  0.24704498467E+03  0.00000000000E+00 0. -1.
<scales pt_clust_5="13000.00000" pt_clust_6="13000.00000" pt_clust_7="13000.00000" pt_clust_8="13000.00000" pt_clust_9="157.52540"></scales>
<clustering>
<clus scale="   57.472">  7  8 -1 -1</clus>
<clus scale="   78.992">  5  6 -1 -1</clus>
<clus scale="  132.149">  1  7  2 -1</clus>
<clus scale="  157.525">  2  9  1 -1</clus>
<clus scale="  157.525">  2  5  1 -1</clus>
</clustering>
</event>
<event>
 9    2  0.3745229E-005  0.1218095E+03  0.7546771E-02  0.1243882E+00
          2   -1    0    0  502    0 -0.00000000000E+00  0.00000000000E+00  0.60869953981E+02  0.60869953981E+02  0.00000000000E+00 0. -1.
         21   -1    0    0  501  502  0.00000000000E+00 -0.00000000000E+00 -0.43667604158E+03  0.43667604158E+03  0.00000000000E+00 0. -1.
         24    2    1    2    0    0 -0.63225882090E+02 -0.62772156258E+02 -0.38255152103E+02  0.12557844621E+03  0.79803719979E+02 0.  0.
         23    2    1    2    0    0  0.36032173717E+02  0.46673400321E+02 -0.17437195069E+03  0.20575669291E+03  0.91943002172E+02 0.  0.
        -13    1    3    3    0    0 -0.59700110652E+02 -0.19472364279E+02 -0.50343980205E+02  0.80484734735E+02  0.00000000000E+00 0.  1.
         14    1    3    3    0    0 -0.35257714383E+01 -0.43299791979E+02  0.12088828102E+02  0.45093711475E+02  0.00000000000E+00 0. -1.
        -11    1    4    4    0    0  0.51927587650E+02  0.94761073443E+01 -0.14883734678E+03  0.15792031778E+03  0.00000000000E+00 0.  1.
         11    1    4    4    0    0 -0.15895413933E+02  0.37197292977E+02 -0.25534603908E+02  0.47836375130E+02  0.00000000000E+00 0. -1.
          1    1    1    2  501    0  0.27193708373E+02  0.16098755937E+02 -0.16317898481E+03  0.16621085645E+03  0.00000000000E+00 0. -1.
<scales pt_clust_5="13000.00000" pt_clust_6="13000.00000" pt_clust_7="13000.00000" pt_clust_8="13000.00000" pt_clust_9="31.60170"></scales>
<clustering>
<clus scale="   31.602">  2  9  1 -1</clus>
<clus scale="   79.804">  5  6 -1 -1</clus>
<clus scale="   91.943">  7  8 -1 -1</clus>
<clus scale="  112.928">  1  5  2 -1</clus>
<clus scale="   31.602">  2  5  1 -1</clus>
</clustering>
</event>
<event>
 9    2  0.3745229E-005  0.9498023E+02  0.7546771E-02  0.1296399E+00
         -1   -1    0    0    0  501 -0.00000000000E+00  0.00000000000E+00  0.19466556951E+03  0.19466556951E+03  0.00000000000E+00 0.  1.
         21   -1    0    0  501  502  0.00000000000E+00 -0.00000000000E+00 -0.10034172940E+03  0.10034172940E+03  0.00000000000E+00 0.  1.
         24    2    1    2    0    0 -0.97930413600E+01 -0.33332538880E+02  0.11819570698E+03  0.14807101133E+03  0.82145221646E+02 0.  0.
         23    2    1    2    0    0  0.20991103390E+02 -0.64715819295E+01  0.87320146685E+01  0.94279116014E+02  0.91267715224E+02 0.  0.
        -11    1    3    3    0    0 -0.36326419260E+02 -0.17665914131E+02  0.19843829754E+02  0.45005231225E+02  0.00000000000E+00 0.  1.
         12    1    3    3    0    0  0.26533377900E+02 -0.15666624748E+02  0.98351877227E+02  0.10306578010E+03  0.00000000000E+00 0. -1.
        -11    1    4    4    0    0  0.26109000901E+02 -0.30839665320E+02 -0.28529252506E+02  0.49463957926E+02  0.00000000000E+00 0.  1.
         11    1    4    4    0    0 -0.51178975117E+01  0.24368083390E+02  0.37261267175E+02  0.44815158089E+02  0.00000000000E+00 0. -1.
         -2    1    1    2    0  502 -0.11198062030E+02  0.39804120809E+02 -0.32603881535E+02  0.52657171570E+02  0.00000000000E+00 0.  1.
<scales pt_clust_5="13000.00000" pt_clust_6="13000.00000" pt_clust_7="13000.00000" pt_clust_8="13000.00000" pt_clust_9="41.34930"></scales>
<clustering>
<clus scale="   41.349">  2  9  1 -1</clus>
<clus scale="   82.145">  5  6 -1 -1</clus>
<clus scale="   86.251">  1  5  2 -1</clus>
<clus scale="   91.268">  7  8 -1 -1</clus>
<clus scale="   41.349">  2  5  1 -1</clus>
</clustering>
</event>
<event>
 9    2  0.3745229E-005  0.1603032E+03  0.7546771E-02  0.1192194E+00
          2   -1    0    0  502    0 -0.00000000000E+00  0.00000000000E+00  0.69639266483E+03  0.69639266483E+03  0.00000000000E+00 0. -1.
         21   -1    0    0  501  502  0.00000000000E+00 -0.00000000000E+00 -0.77059951803E+02  0.77059951803E+02  0.00000000000E+00 0.  1.
         23    2    1    2    0    0  0.12681485447E+03 -0.97559193176E+02  0.33182667307E+03  0.37864785839E+03  0.87552591163E+02 0.  0.
         24    2    1    2    0    0 -0.12158460802E+03 -0.23893021845E+02  0.96132149256E+02  0.16808475018E+03  0.60476439396E+02 0.  0.
        -13    1    4    4    0    0 -0.54283055418E+02  0.18204721439E+02  0.51534736474E+02  0.77031753528E+02  0.00000000000E+00 0.  1.
         14    1    4    4    0    0 -0.67301552604E+02 -0.42097743284E+02  0.44597412782E+02  0.91052996652E+02  0.00000000000E+00 0. -1.
        -13    1    3    3    0    0  0.34509241877E+01 -0.26241757762E+02  0.12314063621E+03  0.12595298731E+03  0.00000000000E+00 0.  1.
         13    1    3    3    0    0  0.12336393028E+03 -0.71317435414E+02  0.20868603686E+03  0.25269487108E+03  0.00000000000E+00 0. -1.
          1    1    1    2  501    0 -0.52302464462E+01  0.12145221502E+03  0.19137389071E+03  0.22672000806E+03  0.00000000000E+00 0. -1.
<scales pt_clust_5="13000.00000" pt_clust_6="13000.00000" pt_clust_7="13000.00000" pt_clust_8="13000.00000" pt_clust_9="121.56484"></scales>
<clustering>
<clus scale="   60.476">  5  6 -1 -1</clus>
<clus scale="   87.553">  7  8 -1 -1</clus>
<clus scale="  121.565">  2  9  1 -1</clus>
<clus scale="  147.272">  2  5  1 -1</clus>
<clus scale="  121.565">  2  5  1 -1</clus>
</clustering>
</event>
<event>
 9    2  0.3745229E-005  0.1077192E+03  0.7546771E-02  0.1272334E+00
          2   -1    0    0  502    0 -0.00000000000E+00  0.00000000000E+00  0.66961800286E+02  0.66961800286E+02  0.00000000000E+00 0. -1.
         21   -1    0    0  501  502  0.00000000000E+00 -0.00000000000E+00 -0.25059700056E+03  0.25059700056E+03  0.00000000000E+00 0.  1.
         24    2    1    2    0    0 -0.32091627947E+01 -0.48608639046E+02 -0.92630188203E-01  0.94258244792E+02  0.80693925515E+02 0.  0.
         23    2    1    2    0    0  0.20883899213E+02  0.36866831669E+02 -0.15304711176E+03  0.18614898373E+03  0.97122217853E+02 0.  0.
        -11    1    3    3    0    0 -0.37901342007E+02 -0.45893795688E+01  0.11909448771E+01  0.38196760078E+02  0.00000000000E+00 0.  1.
         12    1    3    3    0    0  0.34692179212E+02 -0.44019259477E+02 -0.12835750653E+01  0.56061484714E+02  0.00000000000E+00 0. -1.
        -13    1    4    4    0    0 -0.19297449313E+02  0.22445597418E+02 -0.13760237055E+03  0.14075016438E+03  0.00000000000E+00 0.  1.
         13    1    4    4    0    0  0.40181348526E+02  0.14421234252E+02 -0.15444741213E+02  0.45398819344E+02  0.00000000000E+00 0. -1.
          1    1    1    2  501    0 -0.17674736418E+02  0.11741807377E+02 -0.30495458326E+02  0.37151572328E+02  0.00000000000E+00 0. -1.
<scales pt_clust_5="13000.00000" pt_clust_6="13000.00000" pt_clust_7="13000.00000" pt_clust_8="13000.00000" pt_clust_9="21.21948"></scales>
<clustering>
<clus scale="   21.219">  2  9  1 -1</clus>
<clus scale="   80.694">  5  6 -1 -1</clus>
<clus scale="   93.178">  1  5  2 -1</clus>
<clus scale="   97.122">  7  8 -1 -1</clus>
<clus scale="   21.219">  2  5  1 -1</clus>
</clustering>
</event>
<event>
 9    2  0.3745229E-005  0.1397556E+03  0.7546771E-02  0.1215967E+00
         21   -1    0    0  501  502  0.00000000000E+00  0.00000000000E+00  0.19155065573E+03  0.19155065573E+03  0.00000000000E+00 0. -1.
         -1   -1    0    0    0  501 -0.00000000000E+00 -0.00000000000E+00 -0.62755641723E+03  0.62755641723E+03  0.00000000000E+00 0.  1.
         24    2    1    2    0    0 -0.53008452569E+02  0.93726599936E+02 -0.56440051234E+03  0.58015476567E+03  0.80231179852E+02 0.  0.
         23    2    1    2    0    0  0.48451424758E+02 -0.56607092366E+02  0.15393732137E+03  0.19366381808E+03  0.90868432668E+02 0.  0.
        -13    1    3    3    0    0 -0.71492843063E+02  0.51319226925E+02 -0.36565773708E+03  0.37609901668E+03  0.00000000000E+00 0.  1.
         14    1    3    3    0    0  0.18484390494E+02  0.42407373011E+02 -0.19874277526E+03  0.20405574899E+03  0.00000000000E+00 0. -1.
        -13    1    4    4    0    0 -0.11693007661E+02 -0.35091663468E+02  0.11021560470E+03  0.11625674514E+03  0.00000000000E+00 0. -1.
         13    1    4    4    0    0  0.60144432419E+02 -0.21515428898E+02  0.43721716678E+02  0.77407072939E+02  0.00000000000E+00 0.  1.
         -2    1    1    2    0  502  0.45570278109E+01 -0.37119507570E+02 -0.25542570535E+02  0.45288489203E+02  0.00000000000E+00 0.  1.
<scales pt_clust_5="13000.00000" pt_clust_6="13000.00000" pt_clust_7="13000.00000" pt_clust_8="13000.00000" pt_clust_9="37.39821"></scales>
<clustering>
<clus scale="   37.398">  1  9  2 -1</clus>
<clus scale="   80.231">  5  6 -1 -1</clus>
<clus scale="   90.868">  7  8 -1 -1</clus>
<clus scale="  133.085">  2  5  1 -1</clus>
<clus scale="   37.398">  1  5  2 -1</clus>
</clustering>
</event>
<event>
 9    2  0.3745229E-005  0.1170971E+03  0.7546771E-02  0.1262580E+00
         21   -1    0    0  501  502  0.00000000000E+00  0.00000000000E+00  0.28679934877E+02  0.28679934877E+02  0.00000000000E+00 0. -1.
          2   -1    0    0  502    0 -0.00000000000E+00 -0.00000000000E+00 -0.10643301349E+04  0.10643301349E+04  0.00000000000E+00 0. -1.
         24    2    1    2    0    0  0.16439780639E+02  0.32756820379E+02 -0.23859457507E+03  0.25418913281E+03  0.79633336705E+02 0.  0.
         23    2    1    2    0    0  0.65047797729E+02  0.20162139486E+02 -0.17027126268E+03  0.20455027035E+03  0.90613367387E+02 0.  0.
        -13    1    3    3    0    0 -0.75636301840E+01  0.53860993677E+02 -0.17053521424E+03  0.17899853194E+03  0.00000000000E+00 0.  1.
         14    1    3    3    0    0  0.24003410823E+02 -0.21104173297E+02 -0.68059360834E+02  0.75190600868E+02  0.00000000000E+00 0. -1.
        -13    1    4    4    0    0  0.12795036650E+02 -0.32872833738E+02 -0.80726803335E+02  0.88097405964E+02  0.00000000000E+00 0.  1.
         13    1    4    4    0    0  0.52252761079E+02  0.53034973224E+02 -0.89544459343E+02  0.11645286439E+03  0.00000000000E+00 0. -1.
          1    1    1    2  501    0 -0.81487578368E+02 -0.52918959866E+02 -0.62678436228E+03  0.63427066662E+03  0.00000000000E+00 0. -1.
<scales pt_clust_5="13000.00000" pt_clust_6="13000.00000" pt_clust_7="13000.00000" pt_clust_8="13000.00000" pt_clust_9="74.16836"></scales>
<clustering>
<clus scale="   79.633">  5  6 -1 -1</clus>
<clus scale="   87.663">  2  5  1 -1</clus>
<clus scale="   74.168">  1  9  2 -1</clus>
<clus scale="   90.613">  7  8 -1 -1</clus>
<clus scale="   74.168">  1  5  2 -1</clus>
</clustering>
</event>
<event>
 9    2  0.3745229E-005  0.1920872E+03  0.7546771E-02  0.1181180E+00
         21   -1    0    0  501  502  0.00000000000E+00  0.00000000000E+00  0.62085668010E+03  0.62085668010E+03  0.00000000000E+00 0. -1.
         -3   -1    0    0    0  501 -0.00000000000E+00 -0.00000000000E+00 -0.26576827308E+03  0.26576827308E+03  0.00000000000E+00 0.  1.
         24    2    1    2    0    0  0.60992412368E+02  0.39570626189E+02  0.45308898255E+03  0.46609316626E+03  0.81653565123E+02 0.  0.
         23    2    1    2    0    0  0.93413405028E+02  0.65442385815E+02 -0.16621111872E+03  0.22173146665E+03  0.92357659236E+02 0.  0.
        -11    1    3    3    0    0 -0.11491334053E+02  0.25894376151E+02  0.62789317011E+02  0.68884452566E+02  0.00000000000E+00 0.  1.
         12    1    3    3    0    0  0.72483746421E+02  0.13676250038E+02  0.39029966554E+03  0.39720871369E+03  0.00000000000E+00 0. -1.
        -13    1    4    4    0    0  0.10536366494E+03  0.30813618555E+02 -0.11778225503E+03  0.16100820034E+03  0.00000000000E+00 0.  1.
         13    1    4    4    0    0 -0.11950259907E+02  0.34628767260E+02 -0.48428863686E+02  0.60723266313E+02  0.00000000000E+00 0. -1.
         -4    1    1    2    0  502 -0.15440581740E+03 -0.10501301200E+03  0.68210543189E+02  0.19880032027E+03  0.00000000000E+00 0.  1.
<scales pt_clust_5="13000.00000" pt_clust_6="13000.00000" pt_clust_7="13000.00000" pt_clust_8="13000.00000" pt_clust_9="168.42672"></scales>
<clustering>
<clus scale="   81.654">  5  6 -1 -1</clus>
<clus scale="   92.358">  7  8 -1 -1</clus>
<clus scale="  109.331">  2  5  1 -1</clus>
<clus scale="  168.427">  1  9  2 -1</clus>
<clus scale="  168.427">  1  5  2 -1</clus>
</clustering>
</event>
<event>
 9    2  0.3745229E-005  0.1419993E+03  0.7546771E-02  0.1238950E+00
         21   -1    0    0  501  502  0.00000000000E+00  0.00000000000E+00  0.20942582836E+03  0.20942582836E+03  0.00000000000E+00 0.  1.
         -3   -1    0    0    0  501 -0.00000000000E+00 -0.00000000000E+00 -0.15427681576E+03  0.15427681576E+03  0.00000000000E+00 0.  1.
         24    2    1    2    0    0 -0.17944531299E+02  0.17821477163E+02  0.60560736749E+02  0.99362256534E+02  0.74603243470E+02 0.  0.
         23    2    1    2    0    0 -0.51408731762E+02 -0.97816913987E+02  0.39576849194E+02  0.14930510282E+03  0.92275025732E+02 0.  0.
        -13    1    3    3    0    0 -0.25127384508E+01  0.21200441706E+02 -0.12414984675E+02  0.24696243187E+02  0.00000000000E+00 0.  1.
         14    1    3    3    0    0 -0.15431792848E+02 -0.33789645432E+01  0.72975721424E+02  0.74666013348E+02  0.00000000000E+00 0. -1.
        -13    1    4    4    0    0 -0.47283352132E+02 -0.46114537223E+02 -0.21236404638E+02  0.69377595908E+02  0.00000000000E+00 0. -1.
         13    1    4    4    0    0 -0.41253796300E+01 -0.51702376764E+02  0.60813253832E+02  0.79927506915E+02  0.00000000000E+00 0.  1.
         -4    1    1    2    0  502  0.69353263061E+02  0.79995436824E+02 -0.44988573335E+02  0.11503528476E+03  0.00000000000E+00 0.  1.
<scales pt_clust_5="13000.00000" pt_clust_6="13000.00000" pt_clust_7="13000.00000" pt_clust_8="13000.00000" pt_clust_9="107.93119"></scales>
<clustering>
<clus scale="   74.603">  5  6 -1 -1</clus>
<clus scale="   78.773">  2  5  1 -1</clus>
<clus scale="   92.275">  7  8 -1 -1</clus>
<clus scale="  107.931">  1  9  2 -1</clus>
<clus scale="  107.931">  1  5  2 -1</clus>
</clustering>
</event>
<event>
 9    2  0.3745229E-005  0.2129069E+03  0.7546771E-02  0.1140113E+00
         21   -1    0    0  501  502  0.00000000000E+00  0.00000000000E+00  0.67949341651E+03  0.67949341651E+03  0.00000000000E+00 0. -1.
         -3   -1    0    0    0  501 -0.00000000000E+00 -0.00000000000E+00 -0.83650811634E+02  0.83650811634E+02  0.00000000000E+00 0.  1.
         23    2    1    2    0    0 -0.15157209863E+03  0.13352410332E+03  0.19375598286E+03  0.29425939699E+03  0.90798813722E+02 0.  0.
         24    2    1    2    0    0  0.13385604454E+03 -0.12177493759E+03  0.26855419730E+03  0.33367088987E+03  0.80425927246E+02 0.  0.
        -13    1    4    4    0    0  0.34489517573E+01 -0.47643875865E+02  0.57804576371E+02  0.74988020544E+02  0.00000000000E+00 0.  1.
         14    1    4    4    0    0  0.13040709278E+03 -0.74131061726E+02  0.21074962093E+03  0.25868286933E+03  0.00000000000E+00 0. -1.
        -13    1    3    3    0    0 -0.81681770561E+02  0.11788485422E+03  0.16066697574E+03  0.21536626382E+03  0.00000000000E+00 0.  1.
         13    1    3    3    0    0 -0.69890328065E+02  0.15639249095E+02  0.33089007116E+02  0.78893133169E+02  0.00000000000E+00 0. -1.
         -4    1    1    2    0  502  0.17716054089E+02 -0.11749165726E+02  0.13353242471E+03  0.13521394128E+03  0.00000000000E+00 0.  1.
<scales pt_clust_5="13000.00000" pt_clust_6="13000.00000" pt_clust_7="13000.00000" pt_clust_8="13000.00000" pt_clust_9="21.25797"></scales>
<clustering>
<clus scale="   21.258">  1  9  2 -1</clus>
<clus scale="   80.426">  5  6 -1 -1</clus>
<clus scale="   90.799">  7  8 -1 -1</clus>
<clus scale="  208.694">  1  5  2 -1</clus>
<clus scale="   21.258">  1  5  2 -1</clus>
</clustering>
</event>
<event>
 9    2  0.3745229E-005  0.1497126E+03  0.7546771E-02  0.1202538E+00
          2   -1    0    0  502    0 -0.00000000000E+00  0.00000000000E+00  0.10468665224E+04  0.10468665224E+04  0.00000000000E+00 0. -1.
         21   -1    0    0  501  502  0.00000000000E+00 -0.00000000000E+00 -0.55526233877E+02  0.55526233877E+02  0.00000000000E+00 0. -1.
         23    2    1    2    0    0  0.24731893929E+02 -0.11482328497E+03  0.77554257427E+03  0.78957237561E+03  0.90344886212E+02 0.  0.
         24    2    1    2    0    0 -0.45219282307E+02  0.11805952491E+03  0.23865351312E+03  0.28195626117E+03  0.80999993643E+02 0.  0.
        -13    1    4    4    0    0 -0.93172743625E+00  0.89320522652E+02  0.19091486051E+03  0.21077833818E+03  0.00000000000E+00 0.  1.
         14    1    4    4    0    0 -0.44287554871E+02  0.28739002258E+02  0.47738652617E+02  0.71177922988E+02  0.00000000000E+00 0. -1.
        -13    1    3    3    0    0 -0.12736391743E+02 -0.10809739892E+03  0.61672484581E+03  0.62625617663E+03  0.00000000000E+00 0. -1.
         13    1    3    3    0    0  0.37468285671E+02 -0.67258860456E+01  0.15881772846E+03  0.16331619898E+03  0.00000000000E+00 0.  1.
          1    1    1    2  501    0  0.20487388379E+02 -0.32362399439E+01 -0.22855798864E+02  0.30864119512E+02  0.00000000000E+00 0. -1.
<scales pt_clust_5="13000.00000" pt_clust_6="13000.00000" pt_clust_7="13000.00000" pt_clust_8="13000.00000" pt_clust_9="20.74142"></scales>
<clustering>
<clus scale="   20.741">  2  9  1 -1</clus>
<clus scale="   81.000">  5  6 -1 -1</clus>
<clus scale="   90.345">  7  8 -1 -1</clus>
<clus scale="  144.266">  2  5  1 -1</clus>
<clus scale="   20.741">  2  5  1 -1</clus>
</clustering>
</event>
<event>
 9    2  0.3745229E-005  0.3334309E+03  0.7546771E-02  0.1069629E+00
          2   -1    0    0  502    0 -0.00000000000E+00  0.00000000000E+00  0.63130738036E+02  0.63130738036E+02  0.00000000000E+00 0. -1.
         21   -1    0    0  501  502  0.00000000000E+00 -0.00000000000E+00 -0.15784376487E+04  0.15784376487E+04  0.00000000000E+00 0. -1.
         24    2    1    2    0    0 -0.19421727345E+03  0.65048855072E+02 -0.85906187100E+03  0.88678744716E+03  0.80330413804E+02 0.  0.
         23    2    1    2    0    0 -0.50687732068E+02 -0.12895127830E+02 -0.30041232440E+03  0.31967705056E+03  0.95970419912E+02 0.  0.
        -11    1    3    3    0    0 -0.29199934831E+02 -0.17855877352E+02 -0.16977538166E+03  0.17319107589E+03  0.00000000000E+00 0.  1.
         12    1    3    3    0    0 -0.16501733862E+03  0.82904732424E+02 -0.68928648934E+03  0.71359637127E+03  0.00000000000E+00 0. -1.
        -11    1    4    4    0    0  0.13698164891E+02 -0.29708084138E+02 -0.17160978604E+03  0.17470011062E+03  0.00000000000E+00 0. -1.
         11    1    4    4    0    0 -0.64385896959E+02  0.16812956308E+02 -0.12880253836E+03  0.14497693994E+03  0.00000000000E+00 0.  1.
          1    1    1    2  501    0  0.24490500552E+03 -0.52153727242E+02 -0.35583271530E+03  0.43510388905E+03  0.00000000000E+00 0. -1.
<scales pt_clust_5="13000.00000" pt_clust_6="13000.00000" pt_clust_7="13000.00000" pt_clust_8="13000.00000" pt_clust_9="250.39676"></scales>
<clustering>
<clus scale="   80.330">  5  6 -1 -1</clus>
<clus scale="   95.970">  7  8 -1 -1</clus>
<clus scale="  101.143">  5  7 -1 -1</clus>
<clus scale="  250.397">  2  9  1 -1</clus>
<clus scale="  250.397">  2  5  1 -1</clus>
</clustering>
</event>
<event>
 9    2  0.3745229E-005  0.2312801E+03  0.7546771E-02  0.1126386E+00
         21   -1    0    0  501  502  0.00000000000E+00  0.00000000000E+00  0.19132821127E+03  0.19132821127E+03  0.00000000000E+00 0. -1.
         -1   -1    0    0    0  501 -0.00000000000E+00 -0.00000000000E+00 -0.87520921281E+03  0.87520921281E+03  0.00000000000E+00 0.  1.
         24    2    1    2    0    0  0.14839404050E+03  0.14767662926E+03 -0.69742579556E+03  0.73242266000E+03  0.78810116669E+02 0.  0.
         23    2    1    2    0    0 -0.18154664183E+03 -0.15555946794E+03 -0.51957917719E+02  0.26027819207E+03  0.88809801424E+02 0.  0.
        -11    1    3    3    0    0  0.12710008066E+03  0.10649687289E+03 -0.62341655891E+03  0.64509241226E+03  0.00000000000E+00 0.  1.
         12    1    3    3    0    0  0.21293959841E+02  0.41179756373E+02 -0.74009236646E+02  0.87330247736E+02  0.00000000000E+00 0. -1.
        -11    1    4    4    0    0 -0.22254888070E+02 -0.45384911756E+01 -0.32861498903E+02  0.39946915467E+02  0.00000000000E+00 0.  1.
         11    1    4    4    0    0 -0.15929175376E+03 -0.15102097676E+03 -0.19096418816E+02  0.22033127661E+03  0.00000000000E+00 0. -1.
         -2    1    1    2    0  502  0.33152601330E+02  0.78828386810E+01  0.65502711737E+02  0.73836572006E+02  0.00000000000E+00 0.  1.
<scales pt_clust_5="13000.00000" pt_clust_6="13000.00000" pt_clust_7="13000.00000" pt_clust_8="13000.00000" pt_clust_9="34.07689"></scales>
<clustering>
<clus scale="   34.077">  1  9  2 -1</clus>
<clus scale="   78.810">  5  6 -1 -1</clus>
<clus scale="   88.810">  7  8 -1 -1</clus>
<clus scale="  227.628">  2  5  1 -1</clus>
<clus scale="   34.077">  1  5  2 -1</clus>
</clustering>
</event>
<event>
 9    2  0.3745229E-005  0.9924838E+02  0.7546771E-02  0.1287804E+00
          4   -1    0    0  502    0 -0.00000000000E+00  0.00000000000E+00  0.28685951473E+03  0.28685951473E+03  0.00000000000E+00 0. -1.
         21   -1    0    0  501  502  0.00000000000E+00 -0.00000000000E+00 -0.18633012019E+03  0.18633012019E+03  0.00000000000E+00 0.  1.
         23    2    1    2    0    0 -0.24895186808E+02  0.28254658335E+02  0.24417617277E+03  0.26381955131E+03  0.92523814565E+02 0.  0.
         24    2    1    2    0    0  0.40724869164E+02  0.77613727078E+01 -0.41948868061E+02  0.10032789788E+03  0.81161725507E+02 0.  0.
        -11    1    4    4    0    0  0.40019021786E+02  0.27595886334E+02 -0.57368801067E+02  0.75194643315E+02  0.00000000000E+00 0.  1.
         12    1    4    4    0    0  0.70584737743E+00 -0.19834513626E+02  0.15419933006E+02  0.25133254569E+02  0.00000000000E+00 0. -1.
        -11    1    3    3    0    0 -0.22950442067E+02  0.55930137174E+02  0.21590437755E+03  0.22420883854E+03  0.00000000000E+00 0. -1.
         11    1    3    3    0    0 -0.19447447408E+01 -0.27675478839E+02  0.28271795220E+02  0.39610712769E+02  0.00000000000E+00 0.  1.
          3    1    1    2  501    0 -0.15829682356E+02 -0.36016031043E+02 -0.10169791017E+03  0.10904218573E+03  0.00000000000E+00 0. -1.
<scales pt_clust_5="13000.00000" pt_clust_6="13000.00000" pt_clust_7="13000.00000" pt_clust_8="13000.00000" pt_clust_9="39.34124"></scales>
<clustering>
<clus scale="   39.341">  2  9  1 -1</clus>
<clus scale="   81.162">  5  6 -1 -1</clus>
<clus scale="   88.751">  2  5  1 -1</clus>
<clus scale="   92.524">  7  8 -1 -1</clus>
<clus scale="   39.341">  2  5  1 -1</clus>
</clustering>
</event>
<event>
 9    2  0.3745229E-005  0.9758233E+02  0.7546771E-02  0.1291533E+00
         -3   -1    0    0    0  501 -0.00000000000E+00  0.00000000000E+00  0.85283774158E+02  0.85283774158E+02  0.00000000000E+00 0.  1.
         21   -1    0    0  501  502  0.00000000000E+00 -0.00000000000E+00 -0.28818386741E+03  0.28818386741E+03  0.00000000000E+00 0. -1.
         24    2    1    2    0    0  0.15612990163E+02 -0.56275554466E+02 -0.17729181043E+02  0.10092250399E+03  0.80376143590E+02 0.  0.
         23    2    1    2    0    0  0.35782895390E+02 -0.22129674736E+02 -0.12716366968E+03  0.16230105745E+03  0.91656403250E+02 0.  0.
        -11    1    3    3    0    0 -0.29850988595E+02 -0.41165215472E+02 -0.14634689935E+02  0.52913425843E+02  0.00000000000E+00 0.  1.
         12    1    3    3    0    0  0.45463978758E+02 -0.15110338993E+02 -0.30944911080E+01  0.48009078144E+02  0.00000000000E+00 0. -1.
        -13    1    4    4    0    0  0.60889892791E+02 -0.29140602231E+02 -0.60219558566E+02  0.90460759318E+02  0.00000000000E+00 0.  1.
         13    1    4    4    0    0 -0.25106997401E+02  0.70109274949E+01 -0.66944111119E+02  0.71840298136E+02  0.00000000000E+00 0. -1.
         -4    1    1    2    0  502 -0.51395885553E+02  0.78405229201E+02 -0.58007242523E+02  0.11024408013E+03  0.00000000000E+00 0.  1.
<scales pt_clust_5="13000.00000" pt_clust_6="13000.00000" pt_clust_7="13000.00000" pt_clust_8="13000.00000" pt_clust_9="93.74927"></scales>
<clustering>
<clus scale="   80.376">  5  6 -1 -1</clus>
<clus scale="   91.656">  7  8 -1 -1</clus>
<clus scale="   93.749">  2  9  1 -1</clus>
<clus scale="   87.073">  1  5  2 -1</clus>
<clus scale="   93.749">  2  5  1 -1</clus>
</clustering>
</event>
<event>
 9    2  0.5191350E-005  0.1028176E+03  0.7546771E-02  0.1278797E+00
         -1   -1    0    0    0  501 -0.00000000000E+00  0.00000000000E+00  0.25657046689E+03  0.25657046689E+03  0.00000000000E+00 0.  1.
         21   -1    0    0  501  502  0.00000000000E+00 -0.00000000000E+00 -0.56668037600E+03  0.56668037600E+03  0.00000000000E+00 0.  1.
         24    2    1    2    0    0 -0.48237772744E+02  0.21093872302E+02  0.21768409101E+03  0.23854998952E+03  0.82145601540E+02 0.  0.
         23    2    1    2    0    0 -0.20032470785E+02 -0.32473319775E+02 -0.69020736537E+02  0.12073617222E+03  0.91419608553E+02 0.  0.
        -11    1    3    3    0    0 -0.61364351994E+02 -0.11457642939E+02  0.14281649343E+03  0.15586344046E+03  0.00000000000E+00 0.  1.
         12    1    3    3    0    0  0.13126579250E+02  0.32551515241E+02  0.74867597584E+02  0.82686549059E+02  0.00000000000E+00 0. -1.
        -13    1    4    4    0    0 -0.41404385746E+02 -0.54434049525E+02 -0.48968053225E+02  0.84114559640E+02  0.00000000000E+00 0.  1.
         13    1    4    4    0    0  0.21371914961E+02  0.21960729750E+02 -0.20052683311E+02  0.36621612583E+02  0.00000000000E+00 0. -1.
         -2    1    1    2    0  502  0.68270243529E+02  0.11379447474E+02 -0.45877326359E+03  0.46396468115E+03  0.00000000000E+00 0.  1.
<scales pt_clust_5="13000.00000" pt_clust_6="13000.00000" pt_clust_7="13000.00000" pt_clust_8="13000.00000" pt_clust_9="69.21212"></scales>
<clustering>
<clus scale="   69.212">  2  9  1 -1</clus>
<clus scale="   82.146">  5  6 -1 -1</clus>
<clus scale="   91.420">  7  8 -1 -1</clus>
<clus scale="   94.667">  1  5  2 -1</clus>
<clus scale="   69.212">  2  5  1 -1</clus>
</clustering>
</event>
<event>
 9    2  0.3745229E-005  0.1030456E+03  0.7546771E-02  0.1278814E+00
         21   -1    0    0  501  502  0.00000000000E+00  0.00000000000E+00  0.64807859549E+02  0.64807859549E+02  0.00000000000E+00 0. -1.
          2   -1    0    0  502    0 -0.00000000000E+00 -0.00000000000E+00 -0.30058848099E+03  0.30058848099E+03  0.00000000000E+00 0. -1.
         24    2    1    2    0    0  0.15757468867E+02  0.49310452093E+02 -0.16289984631E+03  0.18895184609E+03  0.80539566077E+02 0.  0.
         23    2    1    2    0    0 -0.56529651590E+02 -0.16449154364E+02 -0.48724831371E+02  0.11877521847E+03  0.90924513425E+02 0.  0.
        -11    1    3    3    0    0  0.42210422073E+02  0.54121264566E+02 -0.11113560063E+03  0.13062140995E+03  0.00000000000E+00 0.  1.
         12    1    3    3    0    0 -0.26452953207E+02 -0.48108124729E+01 -0.51764245679E+02  0.58330436144E+02  0.00000000000E+00 0. -1.
        -13    1    4    4    0    0 -0.35495413311E+02  0.10095160184E+02  0.20133922552E+02  0.42038214313E+02  0.00000000000E+00 0. -1.
         13    1    4    4    0    0 -0.21034238279E+02 -0.26544314548E+02 -0.68858753923E+02  0.76737004155E+02  0.00000000000E+00 0.  1.
          1    1    1    2  501    0  0.40772182724E+02 -0.32861297729E+02 -0.24155943755E+02  0.57669275973E+02  0.00000000000E+00 0. -1.
<scales pt_clust_5="13000.00000" pt_clust_6="13000.00000" pt_clust_7="13000.00000" pt_clust_8="13000.00000" pt_clust_9="52.36636"></scales>
<clustering>
<clus scale="   52.366">  1  9  2 -1</clus>
<clus scale="   80.540">  5  6 -1 -1</clus>
<clus scale="   90.925">  7  8 -1 -1</clus>
<clus scale="   94.009">  2  5  1 -1</clus>
<clus scale="   52.366">  1  5  2 -1</clus>
</clustering>
</event>
<event>
 9    2  0.3745229E-005  0.3919924E+03  0.7546771E-02  0.1094481E+00
          2   -1    0    0  502    0 -0.00000000000E+00  0.00000000000E+00  0.89306527523E+03  0.89306527523E+03  0.00000000000E+00 0. -1.
         21   -1    0    0  501  502  0.00000000000E+00 -0.00000000000E+00 -0.24508070483E+03  0.24508070483E+03  0.00000000000E+00 0.  1.
         23    2    1    2    0    0  0.29744110527E+01 -0.54914586893E+02  0.22793369330E+03  0.25109187908E+03  0.89827079545E+02 0.  0.
         24    2    1    2    0    0 -0.31890649592E+03 -0.19023506195E+03  0.24736671387E+03  0.45147258989E+03  0.68894675865E+02 0.  0.
        -13    1    4    4    0    0 -0.30039137794E+03 -0.18262027178E+03  0.21113283594E+03  0.41007586861E+03  0.00000000000E+00 0.  1.
         14    1    4    4    0    0 -0.18515117979E+02 -0.76147901633E+01  0.36233877930E+02  0.41396721281E+02  0.00000000000E+00 0. -1.
        -13    1    3    3    0    0 -0.75809447050E+01  0.21427933256E+02  0.23873801756E+02  0.32963395707E+02  0.00000000000E+00 0. -1.
         13    1    3    3    0    0  0.10555355758E+02 -0.76342520149E+02  0.20405989155E+03  0.21812848337E+03  0.00000000000E+00 0.  1.
          1    1    1    2  501    0  0.31593208487E+03  0.24514964884E+03  0.17268416323E+03  0.43558151109E+03  0.00000000000E+00 0. -1.
<scales pt_clust_5="13000.00000" pt_clust_6="13000.00000" pt_clust_7="13000.00000" pt_clust_8="13000.00000" pt_clust_9="385.89058"></scales>
<clustering>
<clus scale="   68.895">  5  6 -1 -1</clus>
<clus scale="   89.827">  7  8 -1 -1</clus>
<clus scale="  105.325">  1  7  2 -1</clus>
<clus scale="  385.891">  2  9  1 -1</clus>
<clus scale="  385.891">  2  5  1 -1</clus>
</clustering>
</event>
<event>
 9    2  0.3745229E-005  0.1443892E+03  0.7546771E-02  0.1226943E+00
         21   -1    0    0  501  502  0.00000000000E+00  0.00000000000E+00  0.16926975350E+03  0.16926975350E+03  0.00000000000E+00 0. -1.
          2   -1    0    0  502    0 -0.00000000000E+00 -0.00000000000E+00 -0.36700007893E+03  0.36700007893E+03  0.00000000000E+00 0. -1.
         24    2    1    2    0    0  0.42588297631E+02 -0.31817370862E+02 -0.22640920268E+03  0.24587933449E+03  0.79808595324E+02 0.  0.
         23    2    1    2    0    0  0.16325871105E+02 -0.74909472123E+02 -0.65074763766E+02  0.13660089005E+03  0.92450609533E+02 0.  0.
        -11    1    3    3    0    0 -0.15933932001E+02 -0.19741573467E+02 -0.24330939444E+02  0.35151309026E+02  0.00000000000E+00 0.  1.
         12    1    3    3    0    0  0.58522229632E+02 -0.12075797394E+02 -0.20207826323E+03  0.21072802546E+03  0.00000000000E+00 0. -1.
        -13    1    4    4    0    0  0.41406845551E+02 -0.68272360166E+02 -0.74295924243E+02  0.10906661442E+03  0.00000000000E+00 0. -1.
         13    1    4    4    0    0 -0.25080974446E+02 -0.66371119572E+01  0.92211604772E+01  0.27534275637E+02  0.00000000000E+00 0.  1.
          1    1    1    2  501    0 -0.58914168736E+02  0.10672684298E+03  0.93753641014E+02  0.15378960789E+03  0.00000000000E+00 0. -1.
<scales pt_clust_5="13000.00000" pt_clust_6="13000.00000" pt_clust_7="13000.00000" pt_clust_8="13000.00000" pt_clust_9="110.91039"></scales>
<clustering>
<clus scale="   79.809">  5  6 -1 -1</clus>
<clus scale="   92.451">  7  8 -1 -1</clus>
<clus scale="   95.893">  2  5  1 -1</clus>
<clus scale="  110.910">  1  9  2 -1</clus>
<clus scale="  110.910">  1  5  2 -1</clus>
</clustering>
</event>
<event>
 9    2  0.3745229E-005  0.1772813E+03  0.7546771E-02  0.1192565E+00
         -3   -1    0    0    0  501 -0.00000000000E+00  0.00000000000E+00  0.53054422908E+02  0.53054422908E+02  0.00000000000E+00 0.  1.
         21   -1    0    0  501  502  0.00000000000E+00 -0.00000000000E+00 -0.17260770202E+04  0.17260770202E+04  0.00000000000E+00 0.  1.
         23    2    1    2    0    0  0.15982686697E+02  0.58696381787E+02 -0.47922921784E+02  0.11815208610E+03  0.89233387856E+02 0.  0.
         24    2    1    2    0    0 -0.16309193217E+03 -0.54812065616E+00 -0.98267143503E+03  0.99936285591E+03  0.80521362117E+02 0.  0.
        -11    1    4    4    0    0 -0.16473644796E+03  0.14263694021E+02 -0.85657620789E+03  0.87239002183E+03  0.00000000000E+00 0.  1.
         12    1    4    4    0    0  0.16445157949E+01 -0.14811814677E+02 -0.12609522714E+03  0.12697283408E+03  0.00000000000E+00 0. -1.
        -13    1    3    3    0    0  0.52668228660E+02  0.40997383842E+02 -0.35331221093E+02  0.75518361846E+02  0.00000000000E+00 0.  1.
         13    1    3    3    0    0 -0.36685541962E+02  0.17698997945E+02 -0.12591700691E+02  0.42633724252E+02  0.00000000000E+00 0. -1.
         -4    1    1    2    0  502  0.14710924547E+03 -0.58148261131E+02 -0.64242824052E+03  0.66161650115E+03  0.00000000000E+00 0.  1.
<scales pt_clust_5="13000.00000" pt_clust_6="13000.00000" pt_clust_7="13000.00000" pt_clust_8="13000.00000" pt_clust_9="157.93990"></scales>
<clustering>
<clus scale="   80.521">  5  6 -1 -1</clus>
<clus scale="   89.233">  7  8 -1 -1</clus>
<clus scale="  107.997">  1  7  2 -1</clus>
<clus scale="  157.940">  2  9  1 -1</clus>
<clus scale="  157.940">  2  5  1 -1</clus>
</clustering>
</event>
<event>
 9    2  0.3745229E-005  0.9758483E+02  0.7546771E-02  0.1289816E+00
          4   -1    0    0  502    0 -0.00000000000E+00  0.00000000000E+00  0.73349242972E+02  0.73349242972E+02  0.00000000000E+00 0. -1.
         21   -1    0    0  501  502  0.00000000000E+00 -0.00000000000E+00 -0.18318768398E+03  0.18318768398E+03  0.00000000000E+00 0.  1.
         23    2    1    2    0    0 -0.43515945879E+02  0.57935310460E+01 -0.33651580692E+02  0.10590333158E+03  0.90309934165E+02 0.  0.
         24    2    1    2    0    0  0.26730443256E+02  0.21566117831E+02 -0.78341092531E+02  0.11846304671E+03  0.81954576577E+02 0.  0.
        -11    1    4    4    0    0  0.52553493016E+02  0.14250671729E+02 -0.73043427522E+02  0.91105946990E+02  0.00000000000E+00 0.  1.
         12    1    4    4    0    0 -0.25823049759E+02  0.73154461022E+01 -0.52976650093E+01  0.27357099720E+02  0.00000000000E+00 0. -1.
        -13    1    3    3    0    0 -0.23432841325E+02  0.26936071749E+02  0.22802511119E+02  0.42362772893E+02  0.00000000000E+00 0.  1.
         13    1    3    3    0    0 -0.20083104553E+02 -0.21142540703E+02 -0.56454091811E+02  0.63540558686E+02  0.00000000000E+00 0. -1.
          3    1    1    2  501    0  0.16785502622E+02 -0.27359648877E+02  0.21542322133E+01  0.32170548664E+02  0.00000000000E+00 0. -1.
<scales pt_clust_5="13000.00000" pt_clust_6="13000.00000" pt_clust_7="13000.00000" pt_clust_8="13000.00000" pt_clust_9="32.09836"></scales>
<clustering>
<clus scale="   32.098">  2  9  1 -1</clus>
<clus scale="   81.955">  5  6 -1 -1</clus>
<clus scale="   89.908">  2  5  1 -1</clus>
<clus scale="   90.310">  7  8 -1 -1</clus>
<clus scale="   32.098">  2  5  1 -1</clus>
</clustering>
</event>
<event>
 9    2  0.3745229E-005  0.1470117E+03  0.7546771E-02  0.1206287E+00
         21   -1    0    0  501  502  0.00000000000E+00  0.00000000000E+00  0.27676412119E+02  0.27676412119E+02  0.00000000000E+00 0.  1.
         -3   -1    0    0    0  501 -0.00000000000E+00 -0.00000000000E+00 -0.10810087686E+04  0.10810087686E+04  0.00000000000E+00 0.  1.
         24    2    1    2    0    0 -0.74909170002E+02  0.60903092312E+02 -0.43149966974E+03  0.44943325933E+03  0.80484279256E+02 0.  0.
         23    2    1    2    0    0  0.11382605255E+03 -0.86889407677E+02 -0.52328559239E+03  0.55015864873E+03  0.91326820602E+02 0.  0.
        -11    1    3    3    0    0 -0.27544387750E+02  0.71479138324E+02 -0.28432767792E+03  0.29446593851E+03  0.00000000000E+00 0.  1.
         12    1    3    3    0    0 -0.47364782252E+02 -0.10576046012E+02 -0.14717199182E+03  0.15496732083E+03  0.00000000000E+00 0. -1.
        -11    1    4    4    0    0  0.77013501162E+02 -0.65797085545E+01 -0.30573817632E+03  0.31535726468E+03  0.00000000000E+00 0.  1.
         11    1    4    4    0    0  0.36812551393E+02 -0.80309699122E+02 -0.21754741607E+03  0.23480138405E+03  0.00000000000E+00 0. -1.
         -4    1    1    2    0  502 -0.38916882553E+02  0.25986315365E+02 -0.98547094356E+02  0.10909327266E+03  0.00000000000E+00 0.  1.
<scales pt_clust_5="13000.00000" pt_clust_6="13000.00000" pt_clust_7="13000.00000" pt_clust_8="13000.00000" pt_clust_9="46.79543"></scales>
<clustering>
<clus scale="   46.795">  1  9  2 -1</clus>
<clus scale="   80.484">  5  6 -1 -1</clus>
<clus scale="   91.327">  7  8 -1 -1</clus>
<clus scale="  140.533">  2  5  1 -1</clus>
<clus scale="   46.795">  1  5  2 -1</clus>
</clustering>
</event>
<event>
 9    2  0.3745229E-005  0.9353382E+02  0.7546771E-02  0.1302248E+00
         21   -1    0    0  501  502  0.00000000000E+00  0.00000000000E+00  0.20199840249E+02  0.20199840249E+02  0.00000000000E+00 0.  1.
          2   -1    0    0  502    0 -0.00000000000E+00 -0.00000000000E+00 -0.68168417428E+03  0.68168417428E+03  0.00000000000E+00 0. -1.
         23    2    1    2    0    0 -0.30538786057E+02  0.10632737350E+02 -0.23450708996E+03  0.25369956613E+03  0.91237174750E+02 0.  0.
         24    2    1    2    0    0 -0.78971470699E+01 -0.24174361274E+02 -0.18143383377E+03  0.19928233335E+03  0.78412037809E+02 0.  0.
        -11    1    4    4    0    0  0.90590414318E+01  0.18698198797E+02 -0.12672668416E+02  0.24336914240E+02  0.00000000000E+00 0.  1.
         12    1    4    4    0    0 -0.16956188502E+02 -0.42872560071E+02 -0.16876116536E+03  0.17494541911E+03  0.00000000000E+00 0. -1.
        -11    1    3    3    0    0 -0.58913944833E+01 -0.36140533838E+02 -0.51379547545E+02  0.63092825433E+02  0.00000000000E+00 0.  1.
         11    1    3    3    0    0 -0.24647391573E+02  0.46773271188E+02 -0.18312754242E+03  0.19060674070E+03  0.00000000000E+00 0. -1.
          1    1    1    2  501    0  0.38435933127E+02  0.13541623924E+02 -0.24554341030E+03  0.24890211505E+03  0.00000000000E+00 0. -1.
<scales pt_clust_5="13000.00000" pt_clust_6="13000.00000" pt_clust_7="13000.00000" pt_clust_8="13000.00000" pt_clust_9="40.75166"></scales>
<clustering>
<clus scale="   40.752">  1  9  2 -1</clus>
<clus scale="   78.412">  5  6 -1 -1</clus>
<clus scale="   81.073">  1  5  2 -1</clus>
<clus scale="   91.237">  7  8 -1 -1</clus>
<clus scale="   40.752">  1  5  2 -1</clus>
</clustering>
</event>
<event>
 9    2  0.3745229E-005  0.1041178E+03  0.7546771E-02  0.1276292E+00
         21   -1    0    0  501  502  0.00000000000E+00  0.00000000000E+00  0.46942733512E+02  0.46942733512E+02  0.00000000000E+00 0. -1.
          2   -1    0    0  502    0 -0.00000000000E+00 -0.00000000000E+00 -0.48713212759E+03  0.48713212759E+03  0.00000000000E+00 0. -1.
         24    2    1    2    0    0  0.31867550865E+02 -0.28082090110E+02 -0.20808233943E+03  0.22694980593E+03  0.80023808005E+02 0.  0.
         23    2    1    2    0    0 -0.29879989799E+02  0.87354423823E+02 -0.10289609830E+03  0.16495392173E+03  0.89992111302E+02 0.  0.
        -13    1    3    3    0    0  0.44248382668E+02 -0.22857263175E+02 -0.58771519207E+02  0.77035480906E+02  0.00000000000E+00 0.  1.
         14    1    3    3    0    0 -0.12380831803E+02 -0.52248269348E+01 -0.14931082022E+03  0.14991432503E+03  0.00000000000E+00 0. -1.
        -11    1    4    4    0    0 -0.54362435968E+02  0.55196671263E+02 -0.96950595873E+02  0.12410223609E+03  0.00000000000E+00 0.  1.
         11    1    4    4    0    0  0.24482446169E+02  0.32157752559E+02 -0.59455024225E+01  0.40851685634E+02  0.00000000000E+00 0. -1.
          1    1    1    2  501    0 -0.19875610660E+01 -0.59272333713E+02 -0.12921095635E+03  0.14217113344E+03  0.00000000000E+00 0. -1.
<scales pt_clust_5="13000.00000" pt_clust_6="13000.00000" pt_clust_7="13000.00000" pt_clust_8="13000.00000" pt_clust_9="59.30568"></scales>
<clustering>
<clus scale="   59.306">  1  9  2 -1</clus>
<clus scale="   80.024">  5  6 -1 -1</clus>
<clus scale="   89.992">  7  8 -1 -1</clus>
<clus scale="   95.633">  2  5  1 -1</clus>
<clus scale="   59.306">  1  5  2 -1</clus>
</clustering>
</event>
<event>
 9    2  0.3745229E-005  0.9836306E+02  0.7546771E-02  0.1288195E+00
         21   -1    0    0  501  502  0.00000000000E+00  0.00000000000E+00  0.56809929952E+03  0.56809929952E+03  0.00000000000E+00 0. -1.
          2   -1    0    0  502    0 -0.00000000000E+00 -0.00000000000E+00 -0.27350357933E+02  0.27350357933E+02  0.00000000000E+00 0. -1.
         23    2    1    2    0    0 -0.40678364780E+01  0.20490497481E+02  0.15656342512E+03  0.18224944162E+03  0.90919442938E+02 0.  0.
         24    2    1    2    0    0 -0.47435558757E+01 -0.66013166275E+02  0.27337938765E+03  0.29308380483E+03  0.82350395373E+02 0.  0.
        -11    1    4    4    0    0 -0.42293151218E+02 -0.31594240974E+02  0.16685665038E+03  0.17500870973E+03  0.00000000000E+00 0.  1.
         12    1    4    4    0    0  0.37549595342E+02 -0.34418925301E+02  0.10652273726E+03  0.11807509510E+03  0.00000000000E+00 0. -1.
        -11    1    3    3    0    0 -0.46576283363E+02  0.20050259096E+02  0.88651643650E+02  0.10212970667E+03  0.00000000000E+00 0. -1.
         11    1    3    3    0    0  0.42508446885E+02  0.44023838525E+00  0.67911781467E+02  0.80119734950E+02  0.00000000000E+00 0.  1.
          1    1    1    2  501    0  0.88113923537E+01  0.45522668794E+02  0.11080612882E+03  0.12011641101E+03  0.00000000000E+00 0. -1.
<scales pt_clust_5="13000.00000" pt_clust_6="13000.00000" pt_clust_7="13000.00000" pt_clust_8="13000.00000" pt_clust_9="46.36760"></scales>
<clustering>
<clus scale="   46.368">  1  9  2 -1</clus>
<clus scale="   82.350">  5  6 -1 -1</clus>
<clus scale="   90.502">  1  5  2 -1</clus>
<clus scale="   90.919">  7  8 -1 -1</clus>
<clus scale="   46.368">  1  5  2 -1</clus>
</clustering>
</event>
<event>
 9    2  0.3745229E-005  0.1001705E+03  0.7546771E-02  0.1282837E+00
         21   -1    0    0  501  502  0.00000000000E+00  0.00000000000E+00  0.47693823844E+02  0.47693823844E+02  0.00000000000E+00 0. -1.
         -3   -1    0    0    0  501 -0.00000000000E+00 -0.00000000000E+00 -0.61964995949E+03  0.61964995949E+03  0.00000000000E+00 0.  1.
         23    2    1    2    0    0 -0.58537419099E+02 -0.21997017361E+02 -0.28967178561E+03  0.30539906337E+03  0.73812914302E+02 0.  0.
         24    2    1    2    0    0  0.17240248534E+02  0.69057422526E+02 -0.45032152247E+02  0.11657002000E+03  0.80588591320E+02 0.  0.
        -13    1    4    4    0    0  0.56428107279E+01  0.33289897770E+02 -0.65550291389E+02  0.73735332831E+02  0.00000000000E+00 0.  1.
         14    1    4    4    0    0  0.11597437806E+02  0.35767524756E+02  0.20518139143E+02  0.42834687167E+02  0.00000000000E+00 0. -1.
        -13    1    3    3    0    0 -0.45642745639E+02  0.21414422127E+02 -0.17471685903E+03  0.18184558981E+03  0.00000000000E+00 0.  1.
         13    1    3    3    0    0 -0.12894673460E+02 -0.43411439488E+02 -0.11495492658E+03  0.12355347356E+03  0.00000000000E+00 0. -1.
         -4    1    1    2    0  502  0.41297170565E+02 -0.47060405164E+02 -0.23725219779E+03  0.24537469997E+03  0.00000000000E+00 0.  1.
<scales pt_clust_5="13000.00000" pt_clust_6="13000.00000" pt_clust_7="13000.00000" pt_clust_8="13000.00000" pt_clust_9="62.61104"></scales>
<clustering>
<clus scale="   62.611">  1  9  2 -1</clus>
<clus scale="   73.813">  7  8 -1 -1</clus>
<clus scale="   80.589">  5  6 -1 -1</clus>
<clus scale="   94.805">  2  7  1 -1</clus>
<clus scale="   62.611">  1  5  2 -1</clus>
</clustering>
</event>
<event>
 9    2  0.3745229E-005  0.2000754E+03  0.7546771E-02  0.1150710E+00
          4   -1    0    0  502    0 -0.00000000000E+00  0.00000000000E+00  0.25013232860E+03  0.25013232860E+03  0.00000000000E+00 0. -1.
         21   -1    0    0  501  502  0.00000000000E+00 -0.00000000000E+00 -0.23314914900E+03  0.23314914900E+03  0.00000000000E+00 0. -1.
         24    2    1    2    0    0 -0.10675345704E+03 -0.13550508976E+03  0.76199140246E+02  0.20738284855E+03  0.86275181606E+02 0.  0.
         23    2    1    2    0    0  0.15393555207E+03  0.10535783289E+03 -0.64120087311E+02  0.21969313423E+03  0.96732933832E+02 0.  0.
        -13    1    3    3    0    0  0.15172368377E+02 -0.17453167298E+02  0.78043357968E+01  0.24407406009E+02  0.00000000000E+00 0.  1.
         14    1    3    3    0    0 -0.12192582541E+03 -0.11805192246E+03  0.68394804449E+02  0.18297544254E+03  0.00000000000E+00 0. -1.
        -13    1    4    4    0    0  0.40935521413E+02  0.73730359317E+02  0.32339154968E+01  0.84393963101E+02  0.00000000000E+00 0.  1.
         13    1    4    4    0    0  0.11300003066E+03  0.31627473568E+02 -0.67354002808E+02  0.13529917113E+03  0.00000000000E+00 0. -1.
          3    1    1    2  501    0 -0.47182095034E+02  0.30147256870E+02  0.49041266648E+01  0.56205494811E+02  0.00000000000E+00 0. -1.
<scales pt_clust_5="13000.00000" pt_clust_6="13000.00000" pt_clust_7="13000.00000" pt_clust_8="13000.00000" pt_clust_9="55.99116"></scales>
<clustering>
<clus scale="   55.991">  2  9  1 -1</clus>
<clus scale="   86.275">  5  6 -1 -1</clus>
<clus scale="   96.733">  7  8 -1 -1</clus>
<clus scale="  195.234">  1  5  2 -1</clus>
<clus scale="   55.991">  2  5  1 -1</clus>
</clustering>
</event>
<event>
 9    2  0.3745229E-005  0.1010843E+03  0.7546771E-02  0.1283760E+00
         21   -1    0    0  501  502  0.00000000000E+00  0.00000000000E+00  0.29876542151E+02  0.29876542151E+02  0.00000000000E+00 0. -1.
          4   -1    0    0  502    0 -0.00000000000E+00 -0.00000000000E+00 -0.50495479116E+03  0.50495479116E+03  0.00000000000E+00 0. -1.
         23    2    1    2    0    0 -0.40373024020E+02 -0.38708846593E+01 -0.31208433397E+03  0.32876709766E+03  0.95111556495E+02 0.  0.
         24    2    1    2    0    0  0.20032594323E+02 -0.18405112699E+02 -0.85355145223E+02  0.12277118842E+03  0.83947667511E+02 0.  0.
        -13    1    4    4    0    0  0.14246374799E+02  0.28531066149E+02 -0.93116968841E+01  0.33221809544E+02  0.00000000000E+00 0.  1.
         14    1    4    4    0    0  0.57862195242E+01 -0.46936178849E+02 -0.76043448338E+02  0.89549378873E+02  0.00000000000E+00 0. -1.
        -13    1    3    3    0    0  0.22196548500E+02 -0.23661066160E+02 -0.59203457757E+02  0.67509867630E+02  0.00000000000E+00 0.  1.
         13    1    3    3    0    0 -0.62569572521E+02  0.19790181501E+02 -0.25288087621E+03  0.26125723003E+03  0.00000000000E+00 0. -1.
          3    1    1    2  501    0  0.20340429697E+02  0.22275997359E+02 -0.77638769815E+02  0.83293047230E+02  0.00000000000E+00 0. -1.
<scales pt_clust_5="13000.00000" pt_clust_6="13000.00000" pt_clust_7="13000.00000" pt_clust_8="13000.00000" pt_clust_9="30.16544"></scales>
<clustering>
<clus scale="   30.165">  1  9  2 -1</clus>
<clus scale="   83.948">  5  6 -1 -1</clus>
<clus scale="   90.659">  1  5  2 -1</clus>
<clus scale="   95.112">  7  8 -1 -1</clus>
<clus scale="   30.165">  1  5  2 -1</clus>
</clustering>
</event>
<event>
 9    2  0.3745229E-005  0.1043829E+03  0.7546771E-02  0.1278526E+00
         21   -1    0    0  501  502  0.00000000000E+00  0.00000000000E+00  0.33098114686E+02  0.33098114686E+02  0.00000000000E+00 0.  1.
          2   -1    0    0  502    0 -0.00000000000E+00 -0.00000000000E+00 -0.44216839551E+03  0.44216839551E+03  0.00000000000E+00 0. -1.
         24    2    1    2    0    0 -0.31110638041E+02 -0.49322277379E+02 -0.15556930782E+03  0.18290743261E+03  0.76503336686E+02 0.  0.
         23    2    1    2    0    0  0.36580254115E+02  0.18843178610E+02 -0.12727698539E+03  0.16239220792E+03  0.92079410354E+02 0.  0.
        -13    1    3    3    0    0  0.20359116229E+02  0.45783937989E+01 -0.44514368040E+02  0.49162834188E+02  0.00000000000E+00 0.  1.
         14    1    3    3    0    0 -0.51469754271E+02 -0.53900671177E+02 -0.11105493978E+03  0.13374459842E+03  0.00000000000E+00 0. -1.
        -13    1    4    4    0    0  0.61278907861E+02 -0.25935214320E+01 -0.52343656811E+02  0.80633053461E+02  0.00000000000E+00 0.  1.
         13    1    4    4    0    0 -0.24698653746E+02  0.21436700042E+02 -0.74933328580E+02  0.81759154458E+02  0.00000000000E+00 0. -1.
          1    1    1    2  501    0 -0.54696160742E+01  0.30479098769E+02 -0.12622398761E+03  0.12996686967E+03  0.00000000000E+00 0. -1.
<scales pt_clust_5="13000.00000" pt_clust_6="13000.00000" pt_clust_7="13000.00000" pt_clust_8="13000.00000" pt_clust_9="30.96600"></scales>
<clustering>
<clus scale="   30.966">  1  9  2 -1</clus>
<clus scale="   76.503">  5  6 -1 -1</clus>
<clus scale="   90.939">  2  5  1 -1</clus>
<clus scale="   92.079">  7  8 -1 -1</clus>
<clus scale="   30.966">  1  5  2 -1</clus>
</clustering>
</event>
<event>
 9    2  0.3745229E-005  0.8599643E+02  0.7546771E-02  0.1317189E+00
         21   -1    0    0  501  502  0.00000000000E+00  0.00000000000E+00  0.87507748822E+02  0.87507748822E+02  0.00000000000E+00 0.  1.
          2   -1    0    0  502    0 -0.00000000000E+00 -0.00000000000E+00 -0.11564864885E+03  0.11564864885E+03  0.00000000000E+00 0. -1.
         23    2    1    2    0    0 -0.44330546373E+01 -0.10245534132E+02 -0.20406264917E+02  0.82199907474E+02  0.78840257469E+02 0.  0.
         24    2    1    2    0    0 -0.22747561752E+02  0.21353213559E+01 -0.19089051019E+02  0.90403516221E+02  0.85360369689E+02 0.  0.
        -13    1    4    4    0    0  0.26645194638E+02 -0.19606156470E+02 -0.14879538012E+02  0.36273522303E+02  0.00000000000E+00 0.  1.
         14    1    4    4    0    0 -0.49392756390E+02  0.21741477825E+02 -0.42095130068E+01  0.54129993918E+02  0.00000000000E+00 0. -1.
        -13    1    3    3    0    0 -0.25670420154E+02 -0.36439850444E+02 -0.18983528457E+02  0.48447987822E+02  0.00000000000E+00 0. -1.
         13    1    3    3    0    0  0.21237365516E+02  0.26194316313E+02 -0.14227364596E+01  0.33751919652E+02  0.00000000000E+00 0.  1.
          1    1    1    2  501    0  0.27180616389E+02  0.81102127759E+01  0.11354415904E+02  0.30552973981E+02  0.00000000000E+00 0. -1.
<scales pt_clust_5="13000.00000" pt_clust_6="13000.00000" pt_clust_7="13000.00000" pt_clust_8="13000.00000" pt_clust_9="28.36479"></scales>
<clustering>
<clus scale="   28.365">  1  9  2 -1</clus>
<clus scale="   78.840">  7  8 -1 -1</clus>
<clus scale="   79.528">  2  7  1 -1</clus>
<clus scale="   85.360">  5  6 -1 -1</clus>
<clus scale="   28.365">  1  5  2 -1</clus>
</clustering>
</event>
<event>
 9    2  0.3745229E-005  0.1559135E+03  0.7546771E-02  0.1209056E+00
         21   -1    0    0  501  502  0.00000000000E+00  0.00000000000E+00  0.47540269342E+03  0.47540269342E+03  0.00000000000E+00 0.  1.
         -1   -1    0    0    0  501 -0.00000000000E+00 -0.00000000000E+00 -0.10182317907E+03  0.10182317907E+03  0.00000000000E+00 0.  1.
         23    2    1    2    0    0 -0.43755220244E+02  0.44594077553E+02  0.12328198835E+02  0.11170432823E+03  0.91775385634E+02 0.  0.
         24    2    1    2    0    0 -0.94863841761E+02 -0.26277820600E+02  0.10005392875E+03  0.16925341489E+03  0.94584657659E+02 0.  0.
        -13    1    4    4    0    0 -0.68853976083E+02  0.29526931668E+02  0.56590933720E+02  0.93889528146E+02  0.00000000000E+00 0.  1.
         14    1    4    4    0    0 -0.26009865679E+02 -0.55804752267E+02  0.43462995028E+02  0.75363886743E+02  0.00000000000E+00 0. -1.
        -13    1    3    3    0    0 -0.70627973271E+02  0.32685686489E+02 -0.42825966086E+01  0.77942320618E+02  0.00000000000E+00 0.  1.
         13    1    3    3    0    0  0.26872753027E+02  0.11908391064E+02  0.16610795444E+02  0.33762007616E+02  0.00000000000E+00 0. -1.
         -2    1    1    2    0  502  0.13861906201E+03 -0.18316256953E+02  0.26119738677E+03  0.29626812936E+03  0.00000000000E+00 0.  1.
<scales pt_clust_5="13000.00000" pt_clust_6="13000.00000" pt_clust_7="13000.00000" pt_clust_8="13000.00000" pt_clust_9="123.94662"></scales>
<clustering>
<clus scale="   91.775">  7  8 -1 -1</clus>
<clus scale="   94.585">  5  6 -1 -1</clus>
<clus scale="  111.022">  2  7  1 -1</clus>
<clus scale="  123.947">  1  9  2 -1</clus>
<clus scale="  123.947">  1  5  2 -1</clus>
</clustering>
</event>
<event>
 9    2  0.3745229E-005  0.2681339E+03  0.7546771E-02  0.1116412E+00
          2   -1    0    0  502    0 -0.00000000000E+00  0.00000000000E+00  0.90445842621E+03  0.90445842621E+03  0.00000000000E+00 0. -1.
         21   -1    0    0  501  502  0.00000000000E+00 -0.00000000000E+00 -0.28031641066E+03  0.28031641066E+03  0.00000000000E+00 0.  1.
         23    2    1    2    0    0  0.10764811097E+03  0.12310676069E+03  0.53891646022E+03  0.57055029223E+03  0.91396359581E+02 0.  0.
         24    2    1    2    0    0 -0.25023797936E+03  0.94905676533E+02 -0.96949763740E+02  0.29634227047E+03  0.82421786110E+02 0.  0.
        -13    1    4    4    0    0 -0.24501209438E+03  0.70325352574E+02 -0.88204467809E+02  0.26973433179E+03  0.00000000000E+00 0.  1.
         14    1    4    4    0    0 -0.52258849835E+01  0.24580323959E+02 -0.87452959310E+01  0.26607938678E+02  0.00000000000E+00 0. -1.
        -11    1    3    3    0    0  0.54935006536E+02  0.17633589416E+02  0.94173192862E+02  0.11044178862E+03  0.00000000000E+00 0.  1.
         11    1    3    3    0    0  0.52713104429E+02  0.10547317128E+03  0.44474326735E+03  0.46010850361E+03  0.00000000000E+00 0. -1.
          1    1    1    2  501    0  0.14258986839E+03 -0.21801243723E+03  0.18217531908E+03  0.31788227417E+03  0.00000000000E+00 0. -1.
<scales pt_clust_5="13000.00000" pt_clust_6="13000.00000" pt_clust_7="13000.00000" pt_clust_8="13000.00000" pt_clust_9="255.15194"></scales>
<clustering>
<clus scale="   82.422">  5  6 -1 -1</clus>
<clus scale="   91.396">  7  8 -1 -1</clus>
<clus scale="  187.341">  1  7  2 -1</clus>
<clus scale="  255.152">  2  9  1 -1</clus>
<clus scale="  255.152">  2  5  1 -1</clus>
</clustering>
</event>
<event>
 9    2  0.3745229E-005  0.1188808E+03  0.7546771E-02  0.1248933E+00
         -3   -1    0    0    0  501 -0.00000000000E+00  0.00000000000E+00  0.11572993190E+03  0.11572993190E+03  0.00000000000E+00 0.  1.
         21   -1    0    0  501  502  0.00000000000E+00 -0.00000000000E+00 -0.42824565839E+03  0.42824565839E+03  0.00000000000E+00 0.  1.
         23    2    1    2    0    0 -0.25744190088E+02 -0.48839925789E+02  0.11583816307E+02  0.10916793088E+03  0.93463097845E+02 0.  0.
         24    2    1    2    0    0  0.24971945747E+02  0.10432177477E+03 -0.33346797446E+02  0.13880767485E+03  0.81540977014E+02 0.  0.
        -11    1    4    4    0    0  0.44299757582E+02  0.10581049034E+03 -0.23608464215E+02  0.11711399562E+03  0.00000000000E+00 0.  1.
         12    1    4    4    0    0 -0.19327811835E+02 -0.14887155725E+01 -0.97383332307E+01  0.21693679229E+02  0.00000000000E+00 0. -1.
        -11    1    3    3    0    0  0.34564226057E+02 -0.23865795883E+02 -0.35781972182E+01  0.42155253900E+02  0.00000000000E+00 0.  1.
         11    1    3    3    0    0 -0.60308416145E+02 -0.24974129906E+02  0.15162013525E+02  0.67012676984E+02  0.00000000000E+00 0. -1.
         -4    1    1    2    0  502  0.77224434054E+00 -0.55481848976E+02 -0.29075274535E+03  0.29599998455E+03  0.00000000000E+00 0.  1.
<scales pt_clust_5="13000.00000" pt_clust_6="13000.00000" pt_clust_7="13000.00000" pt_clust_8="13000.00000" pt_clust_9="55.48722"></scales>
<clustering>
<clus scale="   55.487">  2  9  1 -1</clus>
<clus scale="   81.541">  5  6 -1 -1</clus>
<clus scale="   93.463">  7  8 -1 -1</clus>
<clus scale="  109.755">  2  5  1 -1</clus>
<clus scale="   55.487">  2  5  1 -1</clus>
</clustering>
</event>
<event>
 9    2  0.3745229E-005  0.1055981E+03  0.7546771E-02  0.1275938E+00
         21   -1    0    0  501  502  0.00000000000E+00  0.00000000000E+00  0.31250595313E+02  0.31250595313E+02  0.00000000000E+00 0. -1.
          2   -1    0    0  502    0 -0.00000000000E+00 -0.00000000000E+00 -0.84863846574E+03  0.84863846574E+03  0.00000000000E+00 0. -1.
         24    2    1    2    0    0  0.22934881289E+02  0.53003833427E+02 -0.41646498995E+03  0.42806336285E+03  0.80372505378E+02 0.  0.
         23    2    1    2    0    0 -0.42418560336E+01  0.50744051872E+01 -0.78523911184E+02  0.12370436943E+03  0.95357346119E+02 0.  0.
        -11    1    3    3    0    0 -0.14022489885E+02  0.30673982285E+02 -0.58679001254E+02  0.67681227825E+02  0.00000000000E+00 0.  1.
         12    1    3    3    0    0  0.36957371174E+02  0.22329851143E+02 -0.35778598869E+03  0.36038213502E+03  0.00000000000E+00 0. -1.
        -13    1    4    4    0    0 -0.72690684164E+01 -0.25638270919E+02 -0.87577545603E+02  0.91542267752E+02  0.00000000000E+00 0.  1.
         13    1    4    4    0    0  0.30272123827E+01  0.30712676106E+02  0.90536344191E+01  0.32162101682E+02  0.00000000000E+00 0. -1.
          1    1    1    2  501    0 -0.18693025255E+02 -0.58078238615E+02 -0.32239896930E+03  0.32812132877E+03  0.00000000000E+00 0. -1.
<scales pt_clust_5="13000.00000" pt_clust_6="13000.00000" pt_clust_7="13000.00000" pt_clust_8="13000.00000" pt_clust_9="61.01241"></scales>
<clustering>
<clus scale="   61.012">  1  9  2 -1</clus>
<clus scale="   80.373">  5  6 -1 -1</clus>
<clus scale="   92.291">  2  5  1 -1</clus>
<clus scale="   95.357">  7  8 -1 -1</clus>
<clus scale="   61.012">  1  5  2 -1</clus>
</clustering>
</event>
<event>
 9    2  0.3745229E-005  0.1962022E+03  0.7546771E-02  0.1154742E+00
          2   -1    0    0  502    0 -0.00000000000E+00  0.00000000000E+00  0.71431954289E+03  0.71431954289E+03  0.00000000000E+00 0. -1.
         21   -1    0    0  501  502  0.00000000000E+00 -0.00000000000E+00 -0.28346388128E+03  0.28346388128E+03  0.00000000000E+00 0. -1.
         23    2    1    2    0    0 -0.30941742292E+02 -0.16343148462E+03  0.56943874464E+03  0.60110942400E+03  0.96978421033E+02 0.  0.
         24    2    1    2    0    0  0.37025980278E+02  0.18976032455E+03  0.42667959568E+02  0.21341962448E+03  0.79671057157E+02 0.  0.
        -13    1    4    4    0    0  0.25765674904E+01  0.16652493993E+03  0.42435195137E+02  0.17186605280E+03  0.00000000000E+00 0.  1.
         14    1    4    4    0    0  0.34449412787E+02  0.23235384626E+02  0.23276443111E+00  0.41553571680E+02  0.00000000000E+00 0. -1.
        -11    1    3    3    0    0 -0.40823363552E+02 -0.74530337166E+02  0.15149624068E+03  0.17370212753E+03  0.00000000000E+00 0.  1.
         11    1    3    3    0    0  0.98816212601E+01 -0.88901147451E+02  0.41794250396E+03  0.42740729647E+03  0.00000000000E+00 0. -1.
          1    1    1    2  501    0 -0.60842379855E+01 -0.26328839937E+02 -0.18125104260E+03  0.18325437569E+03  0.00000000000E+00 0. -1.
<scales pt_clust_5="13000.00000" pt_clust_6="13000.00000" pt_clust_7="13000.00000" pt_clust_8="13000.00000" pt_clust_9="27.02269"></scales>
<clustering>
<clus scale="   27.023">  2  9  1 -1</clus>
<clus scale="   79.671">  5  6 -1 -1</clus>
<clus scale="   96.978">  7  8 -1 -1</clus>
<clus scale="  188.250">  2  5  1 -1</clus>
<clus scale="   27.023">  2  5  1 -1</clus>
</clustering>
</event>
<event>
 9    2  0.3745229E-005  0.9604233E+02  0.7546771E-02  0.1290812E+00
         21   -1    0    0  501  502  0.00000000000E+00  0.00000000000E+00  0.43302622955E+02  0.43302622955E+02  0.00000000000E+00 0.  1.
         -1   -1    0    0    0  501 -0.00000000000E+00 -0.00000000000E+00 -0.10345284169E+04  0.10345284169E+04  0.00000000000E+00 0.  1.
         23    2    1    2    0    0  0.42427928255E+02  0.19232333572E+02 -0.21296630516E+03  0.23667732753E+03  0.92149327090E+02 0.  0.
         24    2    1    2    0    0  0.33347595462E+02  0.42641999081E+02 -0.63158282958E+02  0.11939191116E+03  0.85644950444E+02 0.  0.
        -13    1    4    4    0    0 -0.26512860489E+02 -0.20824994433E+01 -0.16357690463E+02  0.31222469674E+02  0.00000000000E+00 0.  1.
         14    1    4    4    0    0  0.59860455951E+02  0.44724498524E+02 -0.46800592495E+02  0.88169441490E+02  0.00000000000E+00 0. -1.
        -11    1    3    3    0    0  0.14494058286E+02 -0.30110157224E+02 -0.29249976522E+02  0.44410138709E+02  0.00000000000E+00 0.  1.
         11    1    3    3    0    0  0.27933869969E+02  0.49342490796E+02 -0.18371632863E+03  0.19226718882E+03  0.00000000000E+00 0. -1.
         -2    1    1    2    0  502 -0.75775523717E+02 -0.61874332653E+02 -0.71510120583E+03  0.72176180116E+03  0.00000000000E+00 0.  1.
<scales pt_clust_5="13000.00000" pt_clust_6="13000.00000" pt_clust_7="13000.00000" pt_clust_8="13000.00000" pt_clust_9="97.82828"></scales>
<clustering>
<clus scale="   85.645">  5  6 -1 -1</clus>
<clus scale="   92.149">  7  8 -1 -1</clus>
<clus scale="   97.828">  1  9  2 -1</clus>
<clus scale="   97.828">  1  5  2 -1</clus>
<clus scale="   96.042">  1  5  2 -1</clus>
</clustering>
</event>
<event>
 9    2  0.3745229E-005  0.9448983E+02  0.7546771E-02  0.1300385E+00
         21   -1    0    0  501  502  0.00000000000E+00  0.00000000000E+00  0.24481087447E+03  0.24481087447E+03  0.00000000000E+00 0. -1.
         -1   -1    0    0    0  501 -0.00000000000E+00 -0.00000000000E+00 -0.94752640578E+02  0.94752640578E+02  0.00000000000E+00 0.  1.
         24    2    1    2    0    0  0.55820343237E+01 -0.41456600454E+00 -0.28926583302E+02  0.86133122757E+02  0.80937238908E+02 0.  0.
         23    2    1    2    0    0 -0.45404389713E+01 -0.51254842298E+02  0.16995126433E+03  0.20096690258E+03  0.94109453512E+02 0.  0.
        -11    1    3    3    0    0 -0.35810984798E+02 -0.12595842679E+02 -0.14511900283E+02  0.40640830882E+02  0.00000000000E+00 0.  1.
         12    1    3    3    0    0  0.41393019122E+02  0.12181276674E+02 -0.14414683019E+02  0.45492291874E+02  0.00000000000E+00 0. -1.
        -11    1    4    4    0    0 -0.29468033951E+02  0.12286055139E+02  0.24322283472E+02  0.40135839957E+02  0.00000000000E+00 0.  1.
         11    1    4    4    0    0  0.24927594980E+02 -0.63540897436E+02  0.14562898086E+03  0.16083106262E+03  0.00000000000E+00 0. -1.
         -2    1    1    2    0  502 -0.10415953524E+01  0.51669408302E+02  0.90335528608E+01  0.52463489709E+02  0.00000000000E+00 0.  1.
<scales pt_clust_5="13000.00000" pt_clust_6="13000.00000" pt_clust_7="13000.00000" pt_clust_8="13000.00000" pt_clust_9="51.67993"></scales>
<clustering>
<clus scale="   51.680">  1  9  2 -1</clus>
<clus scale="   80.937">  5  6 -1 -1</clus>
<clus scale="   81.379">  2  5  1 -1</clus>
<clus scale="   94.109">  7  8 -1 -1</clus>
<clus scale="   51.680">  1  5  2 -1</clus>
</clustering>
</event>
<event>
 9    2  0.3745229E-005  0.1240104E+03  0.7546771E-02  0.1244429E+00
         21   -1    0    0  501  502  0.00000000000E+00  0.00000000000E+00  0.68744655967E+02  0.68744655967E+02  0.00000000000E+00 0. -1.
          2   -1    0    0  502    0 -0.00000000000E+00 -0.00000000000E+00 -0.43559899057E+03  0.43559899057E+03  0.00000000000E+00 0. -1.
         23    2    1    2    0    0 -0.33748930925E+02  0.42833355220E+02 -0.15479368708E+03  0.18752147428E+03  0.90716763046E+02 0.  0.
         24    2    1    2    0    0 -0.75780479289E+02 -0.44001055672E+02 -0.74643277777E+02  0.14109059077E+03  0.81585304708E+02 0.  0.
        -11    1    4    4    0    0 -0.72209030847E+02 -0.51858854047E+01 -0.71872343638E+02  0.10201309388E+03  0.00000000000E+00 0.  1.
         12    1    4    4    0    0 -0.35714484425E+01 -0.38815170267E+02 -0.27709341390E+01  0.39077496886E+02  0.00000000000E+00 0. -1.
        -11    1    3    3    0    0 -0.25695483234E+01  0.20310549034E+02  0.66763050277E+01  0.21533555895E+02  0.00000000000E+00 0.  1.
         11    1    3    3    0    0 -0.31179382602E+02  0.22522806186E+02 -0.16146999211E+03  0.16598791838E+03  0.00000000000E+00 0. -1.
          1    1    1    2  501    0  0.10952941021E+03  0.11677004518E+01 -0.13741736975E+03  0.17573158150E+03  0.00000000000E+00 0. -1.
<scales pt_clust_5="13000.00000" pt_clust_6="13000.00000" pt_clust_7="13000.00000" pt_clust_8="13000.00000" pt_clust_9="93.39399"></scales>
<clustering>
<clus scale="   81.585">  5  6 -1 -1</clus>
<clus scale="   90.717">  7  8 -1 -1</clus>
<clus scale="  105.845">  2  7  1 -1</clus>
<clus scale="   93.394">  1  9  2 -1</clus>
<clus scale="   93.394">  1  5  2 -1</clus>
</clustering>
</event>
<event>
 9    2  0.3745229E-005  0.9201659E+02  0.7546771E-02  0.1312714E+00
          2   -1    0    0  502    0 -0.00000000000E+00  0.00000000000E+00  0.80231703407E+03  0.80231703407E+03  0.00000000000E+00 0. -1.
         21   -1    0    0  501  502  0.00000000000E+00 -0.00000000000E+00 -0.17940794314E+02  0.17940794314E+02  0.00000000000E+00 0. -1.
         24    2    1    2    0    0  0.19414945368E+02 -0.95935788102E+01  0.29934714458E+03  0.30802730846E+03  0.69304638629E+02 0.  0.
         23    2    1    2    0    0  0.42203563360E+02  0.15869988249E+02  0.32840473160E+03  0.34380420012E+03  0.91206704787E+02 0.  0.
        -13    1    3    3    0    0 -0.23696452231E+02  0.85638917363E+01  0.12495816808E+03  0.12747315741E+03  0.00000000000E+00 0.  1.
         14    1    3    3    0    0  0.43111397599E+02 -0.18157470547E+02  0.17438897650E+03  0.18055415106E+03  0.00000000000E+00 0. -1.
        -11    1    4    4    0    0 -0.18292718944E+01 -0.32391737873E+02  0.15819042500E+03  0.16148306871E+03  0.00000000000E+00 0.  1.
         11    1    4    4    0    0  0.44032835255E+02  0.48261726122E+02  0.17021430660E+03  0.18232113141E+03  0.00000000000E+00 0. -1.
          1    1    1    2  501    0 -0.61618508728E+02 -0.62764094383E+01  0.15662436358E+03  0.16842631980E+03  0.00000000000E+00 0. -1.
<scales pt_clust_5="13000.00000" pt_clust_6="13000.00000" pt_clust_7="13000.00000" pt_clust_8="13000.00000" pt_clust_9="61.93734"></scales>
<clustering>
<clus scale="   61.937">  2  9  1 -1</clus>
<clus scale="   69.305">  5  6 -1 -1</clus>
<clus scale="   70.367">  1  5  2 -1</clus>
<clus scale="   91.207">  7  8 -1 -1</clus>
<clus scale="   61.937">  2  5  1 -1</clus>
</clustering>
</event>
<event>
 9    2  0.3745229E-005  0.1131872E+03  0.7546771E-02  0.1258896E+00
         21   -1    0    0  501  502  0.00000000000E+00  0.00000000000E+00  0.29179913557E+03  0.29179913557E+03  0.00000000000E+00 0. -1.
         -1   -1    0    0    0  501 -0.00000000000E+00 -0.00000000000E+00 -0.10922694737E+03  0.10922694737E+03  0.00000000000E+00 0.  1.
         23    2    1    2    0    0  0.34531434731E+02  0.21481747672E+02  0.29154602095E+02  0.10545913665E+03  0.92831854513E+02 0.  0.
         24    2    1    2    0    0 -0.12863564851E+03 -0.24539303812E+01  0.11958007685E+03  0.19376990353E+03  0.81818267476E+02 0.  0.
        -13    1    4    4    0    0 -0.26994798262E+02 -0.44858117195E+01 -0.99427209273E+01  0.29115276736E+02  0.00000000000E+00 0.  1.
         14    1    4    4    0    0 -0.10164085025E+03  0.20318813383E+01  0.12952279777E+03  0.16465462679E+03  0.00000000000E+00 0. -1.
        -11    1    3    3    0    0 -0.27624056703E+02 -0.10613284166E+02  0.17959700042E+02  0.34616197582E+02  0.00000000000E+00 0. -1.
         11    1    3    3    0    0  0.62155491433E+02  0.32095031838E+02  0.11194902053E+02  0.70842939069E+02  0.00000000000E+00 0.  1.
         -2    1    1    2    0  502  0.94104213782E+02 -0.19027817291E+02  0.33837509257E+02  0.10179704276E+03  0.00000000000E+00 0.  1.
<scales pt_clust_5="13000.00000" pt_clust_6="13000.00000" pt_clust_7="13000.00000" pt_clust_8="13000.00000" pt_clust_9="96.00870"></scales>
<clustering>
<clus scale="   81.818">  5  6 -1 -1</clus>
<clus scale="   92.832">  7  8 -1 -1</clus>
<clus scale="   96.009">  1  9  2 -1</clus>
<clus scale="  104.345">  1  5  2 -1</clus>
<clus scale="   96.009">  1  5  2 -1</clus>
</clustering>
</event>
<event>
 9    2  0.3745229E-005  0.1061807E+03  0.7546771E-02  0.1272751E+00
          2   -1    0    0  502    0 -0.00000000000E+00  0.00000000000E+00  0.28067204811E+03  0.28067204811E+03  0.00000000000E+00 0. -1.
         21   -1    0    0  501  502  0.00000000000E+00 -0.00000000000E+00 -0.10181498925E+03  0.10181498925E+03  0.00000000000E+00 0. -1.
         23    2    1    2    0    0 -0.45739100554E+02 -0.43108232593E+01  0.15296872464E+03  0.18425471740E+03  0.91867957692E+02 0.  0.
         24    2    1    2    0    0  0.84577175671E+02  0.35926639630E+02 -0.27302514189E+02  0.12517602469E+03  0.80495886825E+02 0.  0.
        -11    1    4    4    0    0  0.46052207943E+02  0.53631834451E+02  0.64481281948E+01  0.70984208668E+02  0.00000000000E+00 0.  1.
         12    1    4    4    0    0  0.38524967728E+02 -0.17705194821E+02 -0.33750642383E+02  0.54191816018E+02  0.00000000000E+00 0. -1.
        -13    1    3    3    0    0 -0.30291718529E+02 -0.29413140830E+02  0.17649532203E+02  0.45762725574E+02  0.00000000000E+00 0.  1.
         13    1    3    3    0    0 -0.15447382024E+02  0.25102317571E+02  0.13531919244E+03  0.13849199183E+03  0.00000000000E+00 0. -1.
          1    1    1    2  501    0 -0.38838075117E+02 -0.31615816371E+02  0.53190848411E+02  0.73056295268E+02  0.00000000000E+00 0. -1.
<scales pt_clust_5="13000.00000" pt_clust_6="13000.00000" pt_clust_7="13000.00000" pt_clust_8="13000.00000" pt_clust_9="50.07952"></scales>
<clustering>
<clus scale="   50.080">  2  9  1 -1</clus>
<clus scale="   80.496">  5  6 -1 -1</clus>
<clus scale="   91.868">  7  8 -1 -1</clus>
<clus scale="   96.510">  2  5  1 -1</clus>
<clus scale="   50.080">  2  5  1 -1</clus>
</clustering>
</event>
<event>
 9    2  0.3745229E-005  0.1123924E+03  0.7546771E-02  0.1260187E+00
         21   -1    0    0  501  502  0.00000000000E+00  0.00000000000E+00  0.44745216429E+03  0.44745216429E+03  0.00000000000E+00 0.  1.
          4   -1    0    0  502    0 -0.00000000000E+00 -0.00000000000E+00 -0.82286211062E+02  0.82286211062E+02  0.00000000000E+00 0. -1.
         23    2    1    2    0    0 -0.60857719692E+02  0.18546565568E+02 -0.19367316242E+02  0.11295316325E+03  0.91299983621E+02 0.  0.
         24    2    1    2    0    0  0.85231603492E+02  0.11586226923E+02  0.32526322594E+03  0.34596848064E+03  0.80618586940E+02 0.  0.
        -11    1    4    4    0    0  0.86303052831E+02  0.19276349035E+02  0.32635895709E+03  0.33812714093E+03  0.00000000000E+00 0.  1.
         12    1    4    4    0    0 -0.10714493386E+01 -0.76901221118E+01 -0.10957311471E+01  0.78413397150E+01  0.00000000000E+00 0. -1.
        -13    1    3    3    0    0  0.37974003923E+01  0.41795641668E+02 -0.16629796428E+01  0.42000731107E+02  0.00000000000E+00 0.  1.
         13    1    3    3    0    0 -0.64655120084E+02 -0.23249076100E+02 -0.17704336599E+02  0.70952432143E+02  0.00000000000E+00 0. -1.
          3    1    1    2  501    0 -0.24373883800E+02 -0.30132792491E+02  0.59270043530E+02  0.70816731461E+02  0.00000000000E+00 0. -1.
<scales pt_clust_5="13000.00000" pt_clust_6="13000.00000" pt_clust_7="13000.00000" pt_clust_8="13000.00000" pt_clust_9="38.75657"></scales>
<clustering>
<clus scale="   38.757">  1  9  2 -1</clus>
<clus scale="   80.619">  5  6 -1 -1</clus>
<clus scale="   91.300">  7  8 -1 -1</clus>
<clus scale="  103.902">  1  5  2 -1</clus>
<clus scale="   38.757">  1  5  2 -1</clus>
</clustering>
</event>
<event>
 9    2  0.3745229E-005  0.2876501E+03  0.7546771E-02  0.1099287E+00
         21   -1    0    0  501  502  0.00000000000E+00  0.00000000000E+00  0.98346985905E+02  0.98346985905E+02  0.00000000000E+00 0.  1.
          2   -1    0    0  502    0 -0.00000000000E+00 -0.00000000000E+00 -0.21443284607E+04  0.21443284607E+04  0.00000000000E+00 0. -1.
         23    2    1    2    0    0  0.13260271053E+03 -0.17106889831E+03 -0.86950115544E+03  0.90073168152E+03  0.91854536962E+02 0.  0.
         24    2    1    2    0    0 -0.33221628573E+03 -0.20214017229E+02 -0.83840001150E+03  0.90521383969E+03  0.75638940307E+02 0.  0.
        -13    1    4    4    0    0 -0.32185432146E+03 -0.24896194893E+02 -0.75606688688E+03  0.82209924109E+03  0.00000000000E+00 0.  1.
         14    1    4    4    0    0 -0.10361964266E+02  0.46821776636E+01 -0.82333124614E+02  0.83114598596E+02  0.00000000000E+00 0. -1.
        -11    1    3    3    0    0 -0.39185383738E+01 -0.47937514193E+02 -0.24747025171E+03  0.25210094345E+03  0.00000000000E+00 0. -1.
         11    1    3    3    0    0  0.13652124891E+03 -0.12313138412E+03 -0.62203090374E+03  0.64863073806E+03  0.00000000000E+00 0.  1.
          1    1    1    2  501    0  0.19961357519E+03  0.19128291554E+03 -0.33808030785E+03  0.43672992539E+03  0.00000000000E+00 0. -1.
<scales pt_clust_5="13000.00000" pt_clust_6="13000.00000" pt_clust_7="13000.00000" pt_clust_8="13000.00000" pt_clust_9="277.52714"></scales>
<clustering>
<clus scale="   75.639">  5  6 -1 -1</clus>
<clus scale="   91.855">  7  8 -1 -1</clus>
<clus scale="  235.128">  2  7  1 -1</clus>
<clus scale="  277.527">  1  9  2 -1</clus>
<clus scale="  277.527">  1  5  2 -1</clus>
</clustering>
</event>
<event>
 9    2  0.3745229E-005  0.1118213E+03  0.7546771E-02  0.1261197E+00
         21   -1    0    0  501  502  0.00000000000E+00  0.00000000000E+00  0.36119611295E+02  0.36119611295E+02  0.00000000000E+00 0. -1.
          4   -1    0    0  502    0 -0.00000000000E+00 -0.00000000000E+00 -0.56398487602E+03  0.56398487602E+03  0.00000000000E+00 0. -1.
         23    2    1    2    0    0  0.42134196553E+02 -0.11734122111E+02 -0.20782362498E+03  0.23098752222E+03  0.90838296881E+02 0.  0.
         24    2    1    2    0    0 -0.83034632391E+02  0.51849846452E+02 -0.22205669803E+03  0.25561293083E+03  0.80284721553E+02 0.  0.
        -13    1    4    4    0    0 -0.19663068512E+02 -0.16317470626E+02 -0.17771742786E+02  0.31124443009E+02  0.00000000000E+00 0.  1.
         14    1    4    4    0    0 -0.63371563879E+02  0.68167317078E+02 -0.20428495524E+03  0.22448848782E+03  0.00000000000E+00 0. -1.
        -11    1    3    3    0    0  0.33681381042E+02 -0.38362138876E+02 -0.52712343270E+02  0.73380380627E+02  0.00000000000E+00 0.  1.
         11    1    3    3    0    0  0.84528155105E+01  0.26628016765E+02 -0.15511128171E+03  0.15760714159E+03  0.00000000000E+00 0. -1.
          3    1    1    2  501    0  0.40900435839E+02 -0.40115724341E+02 -0.97984941714E+02  0.11350403426E+03  0.00000000000E+00 0. -1.
<scales pt_clust_5="13000.00000" pt_clust_6="13000.00000" pt_clust_7="13000.00000" pt_clust_8="13000.00000" pt_clust_9="57.28976"></scales>
<clustering>
<clus scale="   57.290">  1  9  2 -1</clus>
<clus scale="   80.285">  5  6 -1 -1</clus>
<clus scale="   90.838">  7  8 -1 -1</clus>
<clus scale="  103.431">  1  5  2 -1</clus>
<clus scale="   57.290">  1  5  2 -1</clus>
</clustering>
</event>
<event>
 9    2  0.3745229E-005  0.1099066E+03  0.7546771E-02  0.1265292E+00
          2   -1    0    0  502    0 -0.00000000000E+00  0.00000000000E+00  0.27174002522E+03  0.27174002522E+03  0.00000000000E+00 0. -1.
         21   -1    0    0  501  502  0.00000000000E+00 -0.00000000000E+00 -0.15288419153E+03  0.15288419153E+03  0.00000000000E+00 0. -1.
         24    2    1    2    0    0  0.52408326077E+02  0.32982804385E+02  0.12347746107E+03  0.15931899673E+03  0.79381114253E+02 0.  0.
         23    2    1    2    0    0 -0.27898864095E+02 -0.61955216571E+02  0.10169989863E+03  0.15241420494E+03  0.90941877085E+02 0.  0.
        -13    1    3    3    0    0 -0.91353517863E+01  0.33583012643E+02  0.23770801174E+02  0.42146463421E+02  0.00000000000E+00 0.  1.
         14    1    3    3    0    0  0.61543677863E+02 -0.60020825770E+00  0.99706659893E+02  0.11717253331E+03  0.00000000000E+00 0. -1.
        -13    1    4    4    0    0  0.16020478552E+02 -0.28749160766E+02 -0.40791604084E+01  0.33163376297E+02  0.00000000000E+00 0. -1.
         13    1    4    4    0    0 -0.43919342647E+02 -0.33206055805E+02  0.10577905904E+03  0.11925082864E+03  0.00000000000E+00 0.  1.
          1    1    1    2  501    0 -0.24509461982E+02  0.28972412186E+02 -0.10632152601E+03  0.11289101509E+03  0.00000000000E+00 0. -1.
<scales pt_clust_5="13000.00000" pt_clust_6="13000.00000" pt_clust_7="13000.00000" pt_clust_8="13000.00000" pt_clust_9="37.94884"></scales>
<clustering>
<clus scale="   37.949">  2  9  1 -1</clus>
<clus scale="   79.381">  5  6 -1 -1</clus>
<clus scale="   90.942">  7  8 -1 -1</clus>
<clus scale="  100.550">  1  5  2 -1</clus>
<clus scale="   37.949">  2  5  1 -1</clus>
</clustering>
</event>
<event>
 9    2  0.3745229E-005  0.1813736E+03  0.7546771E-02  0.1184073E+00
         21   -1    0    0  501  502  0.00000000000E+00  0.00000000000E+00  0.61367183571E+02  0.61367183571E+02  0.00000000000E+00 0. -1.
          2   -1    0    0  502    0 -0.00000000000E+00 -0.00000000000E+00 -0.15888503824E+04  0.15888503824E+04  0.00000000000E+00 0. -1.
         23    2    1    2    0    0  0.81080365692E+02  0.24118951198E+00 -0.50881478471E+03  0.52317419270E+03  0.90800148108E+02 0.  0.
         24    2    1    2    0    0  0.70843765293E+02 -0.13896746672E+03 -0.13950412588E+03  0.22412822373E+03  0.80257483418E+02 0.  0.
        -11    1    4    4    0    0 -0.79174992908E-01 -0.49290222146E+02 -0.81075123455E+01  0.49952617792E+02  0.00000000000E+00 0.  1.
         12    1    4    4    0    0  0.70922940286E+02 -0.89677244577E+02 -0.13139661354E+03  0.17417560594E+03  0.00000000000E+00 0. -1.
        -13    1    3    3    0    0  0.86209066282E+02 -0.28217336448E+02 -0.42305280224E+03  0.43266834258E+03  0.00000000000E+00 0. -1.
         13    1    3    3    0    0 -0.51287005899E+01  0.28458525960E+02 -0.85761982470E+02  0.90505850125E+02  0.00000000000E+00 0.  1.
          1    1    1    2  501    0 -0.15192413099E+03  0.13872627721E+03 -0.87916428822E+03  0.90291514952E+03  0.00000000000E+00 0. -1.
<scales pt_clust_5="13000.00000" pt_clust_6="13000.00000" pt_clust_7="13000.00000" pt_clust_8="13000.00000" pt_clust_9="162.65038"></scales>
<clustering>
<clus scale="   80.257">  5  6 -1 -1</clus>
<clus scale="   90.800">  7  8 -1 -1</clus>
<clus scale="  121.732">  2  7  1 -1</clus>
<clus scale="  162.650">  1  9  2 -1</clus>
<clus scale="  162.650">  1  5  2 -1</clus>
</clustering>
</event>
<event>
 9    2  0.3745229E-005  0.1441040E+03  0.7546771E-02  0.1209107E+00
          2   -1    0    0  502    0 -0.00000000000E+00  0.00000000000E+00  0.10442803095E+04  0.10442803095E+04  0.00000000000E+00 0. -1.
         21   -1    0    0  501  502  0.00000000000E+00 -0.00000000000E+00 -0.43309201265E+02  0.43309201265E+02  0.00000000000E+00 0. -1.
         24    2    1    2    0    0  0.25968524229E+02  0.10428763814E+03  0.60044654987E+03  0.61540436099E+03  0.81462829343E+02 0.  0.
         23    2    1    2    0    0 -0.34426397753E+02 -0.12257213731E+03  0.41791430448E+03  0.44557196123E+03  0.87595097122E+02 0.  0.
        -11    1    3    3    0    0  0.47729001472E+02  0.83295931779E+02  0.34277085445E+03  0.35596085247E+03  0.00000000000E+00 0.  1.
         12    1    3    3    0    0 -0.21760477243E+02  0.20991706364E+02  0.25767569542E+03  0.25944350853E+03  0.00000000000E+00 0. -1.
        -13    1    4    4    0    0  0.29331728490E+02 -0.31541166401E+02  0.10409853554E+03  0.11265744794E+03  0.00000000000E+00 0.  1.
         13    1    4    4    0    0 -0.63758126243E+02 -0.91030970912E+02  0.31381576893E+03  0.33291451329E+03  0.00000000000E+00 0. -1.
          1    1    1    2  501    0  0.84578735244E+01  0.18284499169E+02 -0.17389746111E+02  0.26613188539E+02  0.00000000000E+00 0. -1.
<scales pt_clust_5="13000.00000" pt_clust_6="13000.00000" pt_clust_7="13000.00000" pt_clust_8="13000.00000" pt_clust_9="20.14593"></scales>
<clustering>
<clus scale="   20.146">  2  9  1 -1</clus>
<clus scale="   81.463">  5  6 -1 -1</clus>
<clus scale="   87.595">  7  8 -1 -1</clus>
<clus scale="  140.461">  1  5  2 -1</clus>
<clus scale="   20.146">  2  5  1 -1</clus>
</clustering>
</event>
<event>
 9    2  0.3745229E-005  0.1460655E+03  0.7546771E-02  0.1208020E+00
         21   -1    0    0  501  502  0.00000000000E+00  0.00000000000E+00  0.61371002880E+03  0.61371002880E+03  0.00000000000E+00 0.  1.
         -3   -1    0    0    0  501 -0.00000000000E+00 -0.00000000000E+00 -0.40726969464E+02  0.40726969464E+02  0.00000000000E+00 0.  1.
         23    2    1    2    0    0 -0.12236274955E+03 -0.29392540782E+01  0.21108938931E+03  0.26088450362E+03  0.92307704215E+02 0.  0.
         24    2    1    2    0    0  0.10052764997E+03 -0.10968011099E+02  0.31141678083E+03  0.33682419535E+03  0.79019121194E+02 0.  0.
        -11    1    4    4    0    0  0.73543930747E+02 -0.23794260059E+02  0.11767071010E+03  0.14078804131E+03  0.00000000000E+00 0.  1.
         12    1    4    4    0    0  0.26983719223E+02  0.12826248960E+02  0.19374607074E+03  0.19603615404E+03  0.00000000000E+00 0. -1.
        -13    1    3    3    0    0 -0.90104028631E+02  0.24952660201E+02  0.19321106876E+03  0.21464363097E+03  0.00000000000E+00 0.  1.
         13    1    3    3    0    0 -0.32258720917E+02 -0.27891914279E+02  0.17878320555E+02  0.46240872648E+02  0.00000000000E+00 0. -1.
         -4    1    1    2    0  502  0.21835099578E+02  0.13907265177E+02  0.50476889190E+02  0.56728299292E+02  0.00000000000E+00 0.  1.
<scales pt_clust_5="13000.00000" pt_clust_6="13000.00000" pt_clust_7="13000.00000" pt_clust_8="13000.00000" pt_clust_9="25.88790"></scales>
<clustering>
<clus scale="   25.888">  1  9  2 -1</clus>
<clus scale="   79.019">  5  6 -1 -1</clus>
<clus scale="   92.308">  7  8 -1 -1</clus>
<clus scale="  138.052">  1  5  2 -1</clus>
<clus scale="   25.888">  1  5  2 -1</clus>
</clustering>
</event>
<event>
 9    2  0.3745229E-005  0.9023275E+02  0.7546771E-02  0.1302818E+00
          2   -1    0    0  502    0 -0.00000000000E+00  0.00000000000E+00  0.62243902672E+03  0.62243902672E+03  0.00000000000E+00 0. -1.
         21   -1    0    0  501  502  0.00000000000E+00 -0.00000000000E+00 -0.22054879502E+02  0.22054879502E+02  0.00000000000E+00 0.  1.
         24    2    1    2    0    0 -0.22798468639E+02  0.30178736044E+02  0.38306685910E+03  0.39320814416E+03  0.80261446590E+02 0.  0.
         23    2    1    2    0    0  0.43209893369E+02 -0.17243874245E+02  0.20210414839E+03  0.22273096335E+03  0.81231454220E+02 0.  0.
        -11    1    3    3    0    0 -0.94405522552E+01  0.55765424323E+02  0.19859517008E+03  0.20649200506E+03  0.00000000000E+00 0.  1.
         12    1    3    3    0    0 -0.13357916384E+02 -0.25586688279E+02  0.18447168903E+03  0.18671613910E+03  0.00000000000E+00 0. -1.
        -13    1    4    4    0    0 -0.22453278217E+02 -0.97286489908E+01  0.32334956944E+02  0.40550533343E+02  0.00000000000E+00 0. -1.
         13    1    4    4    0    0  0.65663171586E+02 -0.75152252537E+01  0.16976919144E+03  0.18218043000E+03  0.00000000000E+00 0.  1.
          1    1    1    2  501    0 -0.20411424730E+02 -0.12934861799E+02  0.15213139726E+02  0.28554798714E+02  0.00000000000E+00 0. -1.
<scales pt_clust_5="13000.00000" pt_clust_6="13000.00000" pt_clust_7="13000.00000" pt_clust_8="13000.00000" pt_clust_9="24.16479"></scales>
<clustering>
<clus scale="   24.165">  2  9  1 -1</clus>
<clus scale="   80.261">  5  6 -1 -1</clus>
<clus scale="   81.231">  7  8 -1 -1</clus>
<clus scale="   89.361">  1  5  2 -1</clus>
<clus scale="   24.165">  2  5  1 -1</clus>
</clustering>
</event>
<event>
 9    2  0.3745229E-005  0.9573936E+02  0.7546771E-02  0.1300334E+00
         21   -1    0    0  501  502  0.00000000000E+00  0.00000000000E+00  0.38903628873E+03  0.38903628873E+03  0.00000000000E+00 0.  1.
         -1   -1    0    0    0  501 -0.00000000000E+00 -0.00000000000E+00 -0.36318385595E+02  0.36318385595E+02  0.00000000000E+00 0.  1.
         23    2    1    2    0    0 -0.38165128484E+02 -0.19868074561E+02  0.93867146989E+02  0.13859323041E+03  0.92443089591E+02 0.  0.
         24    2    1    2    0    0  0.35584120244E+01 -0.13233872244E+02  0.16077198659E+03  0.17761562978E+03  0.74242054104E+02 0.  0.
        -13    1    4    4    0    0 -0.42760067050E+01 -0.26743057028E+02  0.15968059123E+03  0.16196100317E+03  0.00000000000E+00 0.  1.
         14    1    4    4    0    0  0.78344187294E+01  0.13509184784E+02  0.10913953630E+01  0.15654626607E+02  0.00000000000E+00 0. -1.
        -13    1    3    3    0    0 -0.16704437590E+02 -0.48420065113E+02  0.17229247840E+02  0.54040613633E+02  0.00000000000E+00 0.  1.
         13    1    3    3    0    0 -0.21460690894E+02  0.28551990552E+02  0.76637899149E+02  0.84552616778E+02  0.00000000000E+00 0. -1.
         -2    1    1    2    0  502  0.34606716460E+02  0.33101946805E+02  0.98078769551E+02  0.10914581413E+03  0.00000000000E+00 0.  1.
<scales pt_clust_5="13000.00000" pt_clust_6="13000.00000" pt_clust_7="13000.00000" pt_clust_8="13000.00000" pt_clust_9="47.88908"></scales>
<clustering>
<clus scale="   47.889">  1  9  2 -1</clus>
<clus scale="   74.242">  5  6 -1 -1</clus>
<clus scale="   78.308">  1  5  2 -1</clus>
<clus scale="   92.443">  7  8 -1 -1</clus>
<clus scale="   47.889">  1  5  2 -1</clus>
</clustering>
</event>
<event>
 9    2  0.3745229E-005  0.3742132E+03  0.7546771E-02  0.1053094E+00
         21   -1    0    0  501  502  0.00000000000E+00  0.00000000000E+00  0.26274175666E+03  0.26274175666E+03  0.00000000000E+00 0.  1.
          2   -1    0    0  502    0 -0.00000000000E+00 -0.00000000000E+00 -0.17821426362E+04  0.17821426362E+04  0.00000000000E+00 0. -1.
         24    2    1    2    0    0  0.18150259735E+03 -0.58487411088E+02  0.80198912426E+02  0.22076905847E+03  0.77091773394E+02 0.  0.
         23    2    1    2    0    0  0.12794293442E+03 -0.52501866749E+02  0.23909433993E+02  0.16765604913E+03  0.91711772953E+02 0.  0.
        -13    1    3    3    0    0  0.12045232330E+03  0.41675919041E-02  0.55947761228E+02  0.13281157402E+03  0.00000000000E+00 0.  1.
         14    1    3    3    0    0  0.61050274044E+02 -0.58491578680E+02  0.24251151199E+02  0.87957484455E+02  0.00000000000E+00 0. -1.
        -13    1    4    4    0    0  0.10865106288E+03 -0.76411601520E+02  0.30380187827E+02  0.13625983313E+03  0.00000000000E+00 0.  1.
         13    1    4    4    0    0  0.19291871531E+02  0.23909734771E+02 -0.64707538343E+01  0.31396216001E+02  0.00000000000E+00 0. -1.
          1    1    1    2  501    0 -0.30944553176E+03  0.11098927784E+03 -0.16235092259E+04  0.16564592852E+04  0.00000000000E+00 0. -1.
<scales pt_clust_5="13000.00000" pt_clust_6="13000.00000" pt_clust_7="13000.00000" pt_clust_8="13000.00000" pt_clust_9="328.74803"></scales>
<clustering>
<clus scale="   77.092">  5  6 -1 -1</clus>
<clus scale="   91.712">  7  8 -1 -1</clus>
<clus scale="   94.741">  5  7 -1 -1</clus>
<clus scale="  328.748">  1  9  2 -1</clus>
<clus scale="  328.748">  1  5  2 -1</clus>
</clustering>
</event>
<event>
 9    2  0.3745229E-005  0.1160470E+03  0.7546771E-02  0.1253469E+00
         21   -1    0    0  501  502  0.00000000000E+00  0.00000000000E+00  0.59366780106E+02  0.59366780106E+02  0.00000000000E+00 0.  1.
         -1   -1    0    0    0  501 -0.00000000000E+00 -0.00000000000E+00 -0.41155648860E+03  0.41155648860E+03  0.00000000000E+00 0.  1.
         24    2    1    2    0    0 -0.69956573706E+02 -0.35348155885E+02 -0.15459716926E+03  0.19096208638E+03  0.80142494112E+02 0.  0.
         23    2    1    2    0    0  0.74462256112E+02 -0.37010327836E+02 -0.10188430299E+03  0.15989404350E+03  0.90946698672E+02 0.  0.
        -11    1    3    3    0    0 -0.56699750904E+02 -0.59846747957E+02 -0.12922988605E+03  0.15328685019E+03  0.00000000000E+00 0.  1.
         12    1    3    3    0    0 -0.13256822802E+02  0.24498592072E+02 -0.25367283213E+02  0.37675236189E+02  0.00000000000E+00 0. -1.
        -11    1    4    4    0    0  0.74380992775E+02 -0.16215077731E+02 -0.11304822131E+03  0.13629145671E+03  0.00000000000E+00 0.  1.
         11    1    4    4    0    0  0.81263337033E-01 -0.20795250104E+02  0.11163918322E+02  0.23602586785E+02  0.00000000000E+00 0. -1.
         -2    1    1    2    0  502 -0.45056824061E+01  0.72358483721E+02 -0.95708236240E+02  0.12006713882E+03  0.00000000000E+00 0.  1.
<scales pt_clust_5="13000.00000" pt_clust_6="13000.00000" pt_clust_7="13000.00000" pt_clust_8="13000.00000" pt_clust_9="72.49867"></scales>
<clustering>
<clus scale="   72.499">  1  9  2 -1</clus>
<clus scale="   80.142">  5  6 -1 -1</clus>
<clus scale="   90.947">  7  8 -1 -1</clus>
<clus scale="  107.789">  2  5  1 -1</clus>
<clus scale="   72.499">  1  5  2 -1</clus>
</clustering>
</event>
<event>
 9    2  0.3745229E-005  0.1660147E+03  0.7546771E-02  0.1183541E+00
         21   -1    0    0  501  502  0.00000000000E+00  0.00000000000E+00  0.37187222490E+02  0.37187222490E+02  0.00000000000E+00 0. -1.
          2   -1    0    0  502    0 -0.00000000000E+00 -0.00000000000E+00 -0.10633695467E+04  0.10633695467E+04  0.00000000000E+00 0. -1.
         23    2    1    2    0    0 -0.12717617392E+03  0.68555007754E+02 -0.60363131385E+03  0.62786220237E+03  0.94692205555E+02 0.  0.
         24    2    1    2    0    0  0.82165423825E+02 -0.99640931048E+02 -0.27699355892E+03  0.31719770538E+03  0.84908660344E+02 0.  0.
        -13    1    4    4    0    0  0.63431560089E+02 -0.19347406870E+02 -0.81799643640E+02  0.10530463745E+03  0.00000000000E+00 0.  1.
         14    1    4    4    0    0  0.18733863736E+02 -0.80293524178E+02 -0.19519391528E+03  0.21189306794E+03  0.00000000000E+00 0. -1.
        -13    1    3    3    0    0 -0.13600320368E+03  0.38670146874E+02 -0.50547565002E+03  0.52487892360E+03  0.00000000000E+00 0. -1.
         13    1    3    3    0    0  0.88270297526E+01  0.29884860880E+02 -0.98155663831E+02  0.10298327877E+03  0.00000000000E+00 0.  1.
          1    1    1    2  501    0  0.45010750099E+02  0.31085923294E+02 -0.14555745144E+03  0.15549686145E+03  0.00000000000E+00 0. -1.
<scales pt_clust_5="13000.00000" pt_clust_6="13000.00000" pt_clust_7="13000.00000" pt_clust_8="13000.00000" pt_clust_9="54.70197"></scales>
<clustering>
<clus scale="   54.702">  1  9  2 -1</clus>
<clus scale="   84.909">  5  6 -1 -1</clus>
<clus scale="   94.692">  7  8 -1 -1</clus>
<clus scale="  160.635">  1  5  2 -1</clus>
<clus scale="   54.702">  1  5  2 -1</clus>
</clustering>
</event>
<event>
 9    2  0.3745229E-005  0.1296224E+03  0.7546771E-02  0.1244667E+00
         21   -1    0    0  501  502  0.00000000000E+00  0.00000000000E+00  0.32823234190E+03  0.32823234190E+03  0.00000000000E+00 0.  1.
          2   -1    0    0  502    0 -0.00000000000E+00 -0.00000000000E+00 -0.42482006188E+03  0.42482006188E+03  0.00000000000E+00 0. -1.
         24    2    1    2    0    0  0.20742548820E+02 -0.37821024978E+02  0.17438982389E+03  0.19728217451E+03  0.81533811636E+02 0.  0.
         23    2    1    2    0    0 -0.10892057399E+03 -0.11255201427E+02 -0.38206741730E+03  0.40568758505E+03  0.81342082003E+02 0.  0.
        -13    1    3    3    0    0  0.15943937650E+02 -0.55521842263E+02  0.16833205355E+03  0.17796787454E+03  0.00000000000E+00 0.  1.
         14    1    3    3    0    0  0.47986111703E+01  0.17700817285E+02  0.60577703405E+01  0.19314299967E+02  0.00000000000E+00 0. -1.
        -13    1    4    4    0    0 -0.74108840795E+02  0.31389496861E+02 -0.24896461853E+03  0.26165015206E+03  0.00000000000E+00 0. -1.
         13    1    4    4    0    0 -0.34811733196E+02 -0.42644698287E+02 -0.13310279877E+03  0.14403743298E+03  0.00000000000E+00 0.  1.
          1    1    1    2  501    0  0.88178025171E+02  0.49076226405E+02  0.11108987342E+03  0.15008264422E+03  0.00000000000E+00 0. -1.
<scales pt_clust_5="13000.00000" pt_clust_6="13000.00000" pt_clust_7="13000.00000" pt_clust_8="13000.00000" pt_clust_9="100.92287"></scales>
<clustering>
<clus scale="   81.342">  7  8 -1 -1</clus>
<clus scale="   81.534">  5  6 -1 -1</clus>
<clus scale="   92.241">  2  5  1 -1</clus>
<clus scale="  100.923">  1  9  2 -1</clus>
<clus scale="  100.923">  1  5  2 -1</clus>
</clustering>
</event>
<event>
 9    2  0.3745229E-005  0.1222205E+03  0.7546771E-02  0.1244249E+00
         -3   -1    0    0    0  501 -0.00000000000E+00  0.00000000000E+00  0.48790795537E+02  0.48790795537E+02  0.00000000000E+00 0.  1.
         21   -1    0    0  501  502  0.00000000000E+00 -0.00000000000E+00 -0.42239823507E+03  0.42239823507E+03  0.00000000000E+00 0.  1.
         23    2    1    2    0    0  0.58764781708E+02 -0.28293984445E+02 -0.12707394023E+03  0.17151671958E+03  0.94954461101E+02 0.  0.
         24    2    1    2    0    0 -0.92865520569E+02  0.27601347357E+02 -0.22931705438E+03  0.26146568709E+03  0.79950952538E+02 0.  0.
        -11    1    4    4    0    0 -0.10202201594E+03  0.15434421923E+02 -0.22148843129E+03  0.24434368892E+03  0.00000000000E+00 0.  1.
         12    1    4    4    0    0  0.91564953751E+01  0.12166925434E+02 -0.78286230848E+01  0.17121998174E+02  0.00000000000E+00 0. -1.
        -11    1    3    3    0    0  0.83260330147E+02 -0.84819847063E+01 -0.92125854896E+02  0.12446445188E+03  0.00000000000E+00 0.  1.
         11    1    3    3    0    0 -0.24495548438E+02 -0.19811999738E+02 -0.34948085339E+02  0.47052267701E+02  0.00000000000E+00 0. -1.
         -4    1    1    2    0  502  0.34100738861E+02  0.69263708754E+00 -0.17216444921E+02  0.38206623938E+02  0.00000000000E+00 0.  1.
<scales pt_clust_5="13000.00000" pt_clust_6="13000.00000" pt_clust_7="13000.00000" pt_clust_8="13000.00000" pt_clust_9="34.10779"></scales>
<clustering>
<clus scale="   34.108">  2  9  1 -1</clus>
<clus scale="   79.951">  5  6 -1 -1</clus>
<clus scale="   94.954">  7  8 -1 -1</clus>
<clus scale="  110.967">  2  5  1 -1</clus>
<clus scale="   34.108">  2  5  1 -1</clus>
</clustering>
</event>
<event>
 9    2  0.3745229E-005  0.9254278E+02  0.7546771E-02  0.1302854E+00
         -1   -1    0    0    0  501 -0.00000000000E+00  0.00000000000E+00  0.12109187329E+03  0.12109187329E+03  0.00000000000E+00 0.  1.
         21   -1    0    0  501  502  0.00000000000E+00 -0.00000000000E+00 -0.12946281676E+03  0.12946281676E+03  0.00000000000E+00 0. -1.
         24    2    1    2    0    0 -0.27632011093E+02  0.72440423380E+01  0.72645531674E+02  0.11099843877E+03  0.78913091119E+02 0.  0.
         23    2    1    2    0    0  0.80766977563E+01  0.27635142784E+01 -0.75007560896E+02  0.11678195614E+03  0.89101184227E+02 0.  0.
        -11    1    3    3    0    0 -0.18037848418E+02  0.41838466864E+02  0.53639290087E+02  0.70377515771E+02  0.00000000000E+00 0.  1.
         12    1    3    3    0    0 -0.95941626751E+01 -0.34594424526E+02  0.19006241587E+02  0.40620922995E+02  0.00000000000E+00 0. -1.
        -13    1    4    4    0    0 -0.11981677933E+02  0.42561996487E+02 -0.44776524644E+02  0.62928700211E+02  0.00000000000E+00 0.  1.
         13    1    4    4    0    0  0.20058375689E+02 -0.39798482209E+02 -0.30231036252E+02  0.53853255930E+02  0.00000000000E+00 0. -1.
         -2    1    1    2    0  502  0.19555313337E+02 -0.10007556616E+02 -0.60089142469E+01  0.22774295150E+02  0.00000000000E+00 0.  1.
<scales pt_clust_5="13000.00000" pt_clust_6="13000.00000" pt_clust_7="13000.00000" pt_clust_8="13000.00000" pt_clust_9="21.96728"></scales>
<clustering>
<clus scale="   21.967">  2  9  1 -1</clus>
<clus scale="   78.913">  5  6 -1 -1</clus>
<clus scale="   82.779">  1  5  2 -1</clus>
<clus scale="   89.101">  7  8 -1 -1</clus>
<clus scale="   21.967">  2  5  1 -1</clus>
</clustering>
</event>
<event>
 9    2  0.3745229E-005  0.1020947E+03  0.7546771E-02  0.1287808E+00
         21   -1    0    0  501  502  0.00000000000E+00  0.00000000000E+00  0.32333620325E+02  0.32333620325E+02  0.00000000000E+00 0.  1.
          2   -1    0    0  502    0 -0.00000000000E+00 -0.00000000000E+00 -0.42538491316E+03  0.42538491316E+03  0.00000000000E+00 0. -1.
         24    2    1    2    0    0  0.22172212201E+02  0.47348689206E+02 -0.24039658999E+03  0.25474410260E+03  0.66109999000E+02 0.  0.
         23    2    1    2    0    0 -0.31479268187E+02 -0.26310790877E+02 -0.15001459473E+03  0.17981877006E+03  0.90261893350E+02 0.  0.
        -11    1    3    3    0    0  0.41640416843E+02  0.20302505931E+02 -0.96562612246E+02  0.10710020610E+03  0.00000000000E+00 0.  1.
         12    1    3    3    0    0 -0.19468204642E+02  0.27046183275E+02 -0.14383397775E+03  0.14764389651E+03  0.00000000000E+00 0. -1.
        -13    1    4    4    0    0 -0.42699052390E+02  0.22435286508E+02 -0.61627063286E+02  0.78258840299E+02  0.00000000000E+00 0.  1.
         13    1    4    4    0    0  0.11219784203E+02 -0.48746077385E+02 -0.88387531446E+02  0.10155992976E+03  0.00000000000E+00 0. -1.
          1    1    1    2  501    0  0.93070559866E+01 -0.21037898329E+02 -0.26401081106E+01  0.23155660821E+02  0.00000000000E+00 0. -1.
<scales pt_clust_5="13000.00000" pt_clust_6="13000.00000" pt_clust_7="13000.00000" pt_clust_8="13000.00000" pt_clust_9="23.00466"></scales>
<clustering>
<clus scale="   23.005">  1  9  2 -1</clus>
<clus scale="   66.110">  5  6 -1 -1</clus>
<clus scale="   81.527">  2  5  1 -1</clus>
<clus scale="   90.262">  7  8 -1 -1</clus>
<clus scale="   23.005">  1  5  2 -1</clus>
</clustering>
</event>
<event>
 9    2  0.3745229E-005  0.3604109E+03  0.7546771E-02  0.1058575E+00
          2   -1    0    0  502    0 -0.00000000000E+00  0.00000000000E+00  0.21615855603E+04  0.21615855603E+04  0.00000000000E+00 0. -1.
         21   -1    0    0  501  502  0.00000000000E+00 -0.00000000000E+00 -0.13805861963E+03  0.13805861963E+03  0.00000000000E+00 0. -1.
         24    2    1    2    0    0  0.14739769116E+02 -0.35748299301E+03  0.17640149634E+04  0.18016005394E+04  0.77487814499E+02 0.  0.
         23    2    1    2    0    0  0.13604487130E+02  0.30629225886E+03  0.10834495054E+03  0.33594688518E+03  0.84389877621E+02 0.  0.
        -13    1    3    3    0    0  0.46348845510E+02 -0.19415139270E+03  0.93985103472E+03  0.96081368966E+03  0.00000000000E+00 0.  1.
         14    1    3    3    0    0 -0.31609076394E+02 -0.16333160031E+03  0.82416392869E+03  0.84078684976E+03  0.00000000000E+00 0. -1.
        -11    1    4    4    0    0  0.26851719702E+02  0.31246092290E+02  0.36851700436E+01  0.41363191518E+02  0.00000000000E+00 0.  1.
         11    1    4    4    0    0 -0.13247232572E+02  0.27504616657E+03  0.10465978050E+03  0.29458369366E+03  0.00000000000E+00 0. -1.
          1    1    1    2  501    0 -0.28344256245E+02  0.51190734149E+02  0.15116702668E+03  0.16209675531E+03  0.00000000000E+00 0. -1.
<scales pt_clust_5="13000.00000" pt_clust_6="13000.00000" pt_clust_7="13000.00000" pt_clust_8="13000.00000" pt_clust_9="58.51403"></scales>
<clustering>
<clus scale="   58.514">  2  9  1 -1</clus>
<clus scale="   77.488">  5  6 -1 -1</clus>
<clus scale="   84.390">  7  8 -1 -1</clus>
<clus scale="  358.858">  1  5  2 -1</clus>
<clus scale="   58.514">  2  5  1 -1</clus>
</clustering>
</event>
<event>
 9    2  0.3745229E-005  0.9664975E+02  0.7546771E-02  0.1296718E+00
          4   -1    0    0  502    0 -0.00000000000E+00  0.00000000000E+00  0.73039130063E+02  0.73039130063E+02  0.00000000000E+00 0. -1.
         21   -1    0    0  501  502  0.00000000000E+00 -0.00000000000E+00 -0.18085835996E+03  0.18085835996E+03  0.00000000000E+00 0. -1.
         23    2    1    2    0    0  0.36035369658E+02 -0.16258169929E+02 -0.44057684878E+02  0.10910994513E+03  0.91657103238E+02 0.  0.
         24    2    1    2    0    0 -0.12765754455E+02  0.16688793677E+02 -0.83379956609E+02  0.11434838422E+03  0.75378083614E+02 0.  0.
        -13    1    4    4    0    0  0.31509993500E+02  0.11203741567E+02 -0.31760460412E+02  0.46120823508E+02  0.00000000000E+00 0.  1.
         14    1    4    4    0    0 -0.44275747955E+02  0.54850521095E+01 -0.51619496198E+02  0.68227560716E+02  0.00000000000E+00 0. -1.
        -11    1    3    3    0    0  0.97148702600E+01  0.22691870509E+02  0.18507849744E+02  0.30851907454E+02  0.00000000000E+00 0.  1.
         11    1    3    3    0    0  0.26320499398E+02 -0.38950040438E+02 -0.62565534622E+02  0.78258037678E+02  0.00000000000E+00 0. -1.
          3    1    1    2  501    0 -0.23269615203E+02 -0.43062374811E+00  0.19618411593E+02  0.30439160664E+02  0.00000000000E+00 0. -1.
<scales pt_clust_5="13000.00000" pt_clust_6="13000.00000" pt_clust_7="13000.00000" pt_clust_8="13000.00000" pt_clust_9="23.27361"></scales>
<clustering>
<clus scale="   23.274">  2  9  1 -1</clus>
<clus scale="   75.378">  5  6 -1 -1</clus>
<clus scale="   81.376">  2  5  1 -1</clus>
<clus scale="   91.657">  7  8 -1 -1</clus>
<clus scale="   23.274">  2  5  1 -1</clus>
</clustering>
</event>
<event>
 9    2  0.3745229E-005  0.1100796E+03  0.7546771E-02  0.1268775E+00
          2   -1    0    0  502    0 -0.00000000000E+00  0.00000000000E+00  0.93072685647E+03  0.93072685647E+03  0.00000000000E+00 0. -1.
         21   -1    0    0  501  502  0.00000000000E+00 -0.00000000000E+00 -0.36863299726E+02  0.36863299726E+02  0.00000000000E+00 0. -1.
         24    2    1    2    0    0  0.43029419219E+02 -0.11693613095E+02  0.71636781421E+03  0.72227719582E+03  0.80704590125E+02 0.  0.
         23    2    1    2    0    0 -0.53627669633E+02  0.49388639054E+02  0.16110863776E+03  0.20286563894E+03  0.99414836337E+02 0.  0.
        -11    1    3    3    0    0  0.24607175559E+02  0.16402851596E+02  0.84659507425E+02  0.89676077228E+02  0.00000000000E+00 0.  1.
         12    1    3    3    0    0  0.18422243660E+02 -0.28096464691E+02  0.63170830678E+03  0.63260111859E+03  0.00000000000E+00 0. -1.
        -11    1    4    4    0    0  0.75794343305E+01  0.57498372334E+02  0.54040952871E+02  0.79271276217E+02  0.00000000000E+00 0. -1.
         11    1    4    4    0    0 -0.61207103963E+02 -0.81097332799E+01  0.10706768489E+03  0.12359436273E+03  0.00000000000E+00 0.  1.
          1    1    1    2  501    0  0.10598250413E+02 -0.37695025959E+02  0.16387104776E+02  0.42447321433E+02  0.00000000000E+00 0. -1.
<scales pt_clust_5="13000.00000" pt_clust_6="13000.00000" pt_clust_7="13000.00000" pt_clust_8="13000.00000" pt_clust_9="39.15658"></scales>
<clustering>
<clus scale="   39.157">  2  9  1 -1</clus>
<clus scale="   80.705">  5  6 -1 -1</clus>
<clus scale="   93.528">  1  5  2 -1</clus>
<clus scale="   99.415">  7  8 -1 -1</clus>
<clus scale="   39.157">  2  5  1 -1</clus>
</clustering>
</event>
<event>
 9    2  0.3745229E-005  0.1211452E+03  0.7546771E-02  0.1245040E+00
         21   -1    0    0  501  502  0.00000000000E+00  0.00000000000E+00  0.60300107841E+03  0.60300107841E+03  0.00000000000E+00 0. -1.
         -1   -1    0    0    0  501 -0.00000000000E+00 -0.00000000000E+00 -0.55173137007E+02  0.55173137007E+02  0.00000000000E+00 0.  1.
         24    2    1    2    0    0  0.13954406817E+02  0.81062671631E+02  0.45326415092E+02  0.12424748783E+03  0.81345387859E+02 0.  0.
         23    2    1    2    0    0 -0.25829903765E+02 -0.44488800998E+02  0.47458217577E+03  0.48640656791E+03  0.93363110525E+02 0.  0.
        -11    1    3    3    0    0  0.43762278212E+02  0.44493078935E+02  0.57595713377E+01  0.62673309545E+02  0.00000000000E+00 0.  1.
         12    1    3    3    0    0 -0.29807871394E+02  0.36569592696E+02  0.39566843755E+02  0.61574178287E+02  0.00000000000E+00 0. -1.
        -13    1    4    4    0    0  0.27428814226E+02  0.47882613167E+01  0.69369051503E+02  0.74748462209E+02  0.00000000000E+00 0.  1.
         13    1    4    4    0    0 -0.53258717991E+02 -0.49277062315E+02  0.40521312427E+03  0.41165810570E+03  0.00000000000E+00 0. -1.
         -2    1    1    2    0  502  0.11875496947E+02 -0.36573870633E+02  0.27919350544E+02  0.47520159676E+02  0.00000000000E+00 0.  1.
<scales pt_clust_5="13000.00000" pt_clust_6="13000.00000" pt_clust_7="13000.00000" pt_clust_8="13000.00000" pt_clust_9="38.45357"></scales>
<clustering>
<clus scale="   38.454">  1  9  2 -1</clus>
<clus scale="   81.345">  5  6 -1 -1</clus>
<clus scale="   93.363">  7  8 -1 -1</clus>
<clus scale="  112.145">  2  5  1 -1</clus>
<clus scale="   38.454">  1  5  2 -1</clus>
</clustering>
</event>
<event>
 9    2  0.3745229E-005  0.9843863E+02  0.7546771E-02  0.1286411E+00
          4   -1    0    0  502    0 -0.00000000000E+00  0.00000000000E+00  0.25391609747E+03  0.25391609747E+03  0.00000000000E+00 0. -1.
         21   -1    0    0  501  502  0.00000000000E+00 -0.00000000000E+00 -0.90050724544E+02  0.90050724544E+02  0.00000000000E+00 0. -1.
         23    2    1    2    0    0 -0.25418466548E+02 -0.99203720948E+01  0.59960531390E+02  0.11277376309E+03  0.91532202495E+02 0.  0.
         24    2    1    2    0    0  0.57740500394E+02 -0.38890130066E+02 -0.14070277667E+01  0.11070335476E+03  0.86063031698E+02 0.  0.
        -13    1    4    4    0    0  0.29061028622E+02 -0.59209465024E+02  0.20762620509E+02  0.69147599694E+02  0.00000000000E+00 0.  1.
         14    1    4    4    0    0  0.28679471772E+02  0.20319334958E+02 -0.22169648275E+02  0.41555755064E+02  0.00000000000E+00 0. -1.
        -11    1    3    3    0    0 -0.17062013972E+01  0.39891437042E+02  0.20022457094E+02  0.44666952667E+02  0.00000000000E+00 0.  1.
         11    1    3    3    0    0 -0.23712265151E+02 -0.49811809137E+02  0.39938074297E+02  0.68106810427E+02  0.00000000000E+00 0. -1.
          3    1    1    2  501    0 -0.32322033846E+02  0.48810502161E+02  0.10531186931E+03  0.12048970417E+03  0.00000000000E+00 0. -1.
<scales pt_clust_5="13000.00000" pt_clust_6="13000.00000" pt_clust_7="13000.00000" pt_clust_8="13000.00000" pt_clust_9="58.54214"></scales>
<clustering>
<clus scale="   58.542">  2  9  1 -1</clus>
<clus scale="   86.063">  5  6 -1 -1</clus>
<clus scale="   91.532">  7  8 -1 -1</clus>
<clus scale="   93.375">  2  5  1 -1</clus>
<clus scale="   58.542">  2  5  1 -1</clus>
</clustering>
</event>
<event>
 9    2  0.3745229E-005  0.1591073E+03  0.7546771E-02  0.1190013E+00
          2   -1    0    0  502    0 -0.00000000000E+00  0.00000000000E+00  0.80931988746E+03  0.80931988746E+03  0.00000000000E+00 0. -1.
         21   -1    0    0  501  502  0.00000000000E+00 -0.00000000000E+00 -0.10459902648E+03  0.10459902648E+03  0.00000000000E+00 0. -1.
         24    2    1    2    0    0 -0.12626930051E+03 -0.45049390323E+02  0.48809158169E+03  0.51279091716E+03  0.82144682010E+02 0.  0.
         23    2    1    2    0    0  0.97491587566E+02  0.11426132191E+03  0.26199784595E+03  0.31351090328E+03  0.84178119840E+02 0.  0.
        -13    1    3    3    0    0 -0.13192901970E+03 -0.22538352303E+02  0.42422197498E+03  0.44483426984E+03  0.00000000000E+00 0.  1.
         14    1    3    3    0    0  0.56597191895E+01 -0.22511038020E+02  0.63869606705E+02  0.67956647318E+02  0.00000000000E+00 0. -1.
        -11    1    4    4    0    0  0.75559203991E+02  0.93564113973E+02  0.25589013658E+03  0.28274228323E+03  0.00000000000E+00 0. -1.
         11    1    4    4    0    0  0.21932383575E+02  0.20697207933E+02  0.61077093759E+01  0.30768620042E+02  0.00000000000E+00 0.  1.
          1    1    1    2  501    0  0.28777712940E+02 -0.69211931583E+02 -0.45368566661E+02  0.87617093517E+02  0.00000000000E+00 0. -1.
<scales pt_clust_5="13000.00000" pt_clust_6="13000.00000" pt_clust_7="13000.00000" pt_clust_8="13000.00000" pt_clust_9="74.95631"></scales>
<clustering>
<clus scale="   74.956">  2  9  1 -1</clus>
<clus scale="   82.145">  5  6 -1 -1</clus>
<clus scale="   84.178">  7  8 -1 -1</clus>
<clus scale="  158.041">  1  5  2 -1</clus>
<clus scale="   74.956">  2  5  1 -1</clus>
</clustering>
</event>
<event>
 9    2  0.3745229E-005  0.1271824E+03  0.7546771E-02  0.1235697E+00
         21   -1    0    0  501  502  0.00000000000E+00  0.00000000000E+00  0.74937377783E+02  0.74937377783E+02  0.00000000000E+00 0.  1.
         -1   -1    0    0    0  501 -0.00000000000E+00 -0.00000000000E+00 -0.63568242537E+03  0.63568242537E+03  0.00000000000E+00 0.  1.
         24    2    1    2    0    0 -0.22833220504E+02 -0.81896871004E+02 -0.32434451982E+03  0.34485620112E+03  0.80610039535E+02 0.  0.
         23    2    1    2    0    0 -0.82114314588E+02  0.27953324433E+02 -0.32387600938E+02  0.13008338298E+03  0.91370568711E+02 0.  0.
        -11    1    3    3    0    0 -0.33679634648E+02 -0.23513876918E+02 -0.22808365264E+03  0.23175282695E+03  0.00000000000E+00 0.  1.
         12    1    3    3    0    0  0.10846414144E+02 -0.58382994086E+02 -0.96260867187E+02  0.11310337417E+03  0.00000000000E+00 0. -1.
        -11    1    4    4    0    0 -0.30107812616E+02  0.48881419052E+02 -0.44613189369E+02  0.72706328299E+02  0.00000000000E+00 0. -1.
         11    1    4    4    0    0 -0.52006501972E+02 -0.20928094618E+02  0.12225588431E+02  0.57377054684E+02  0.00000000000E+00 0.  1.
         -2    1    1    2    0  502  0.10494753509E+03  0.53943546571E+02 -0.20401292683E+03  0.23568021905E+03  0.00000000000E+00 0.  1.
<scales pt_clust_5="13000.00000" pt_clust_6="13000.00000" pt_clust_7="13000.00000" pt_clust_8="13000.00000" pt_clust_9="88.46909"></scales>
<clustering>
<clus scale="   80.610">  5  6 -1 -1</clus>
<clus scale="   91.371">  7  8 -1 -1</clus>
<clus scale="  117.160">  2  5  1 -1</clus>
<clus scale="   88.469">  1  9  2 -1</clus>
<clus scale="   88.469">  1  5  2 -1</clus>
</clustering>
</event>
<event>
 9    2  0.3745229E-005  0.1552556E+03  0.7546771E-02  0.1219524E+00
          2   -1    0    0  502    0 -0.00000000000E+00  0.00000000000E+00  0.31703414280E+03  0.31703414280E+03  0.00000000000E+00 0. -1.
         21   -1    0    0  501  502  0.00000000000E+00 -0.00000000000E+00 -0.13269095624E+03  0.13269095624E+03  0.00000000000E+00 0. -1.
         23    2    1    2    0    0 -0.11392009184E+02 -0.25830889240E+02  0.10699538433E+03  0.13985409255E+03  0.85522758508E+02 0.  0.
         24    2    1    2    0    0 -0.11598559317E+03 -0.44241203854E+02  0.72600984972E+01  0.14847881949E+03  0.81137592180E+02 0.  0.
        -11    1    4    4    0    0 -0.49175245955E+02  0.21258898314E+02  0.11603186005E+02  0.54815869032E+02  0.00000000000E+00 0.  1.
         12    1    4    4    0    0 -0.66810347213E+02 -0.65500102168E+02 -0.43430875076E+01  0.93662950454E+02  0.00000000000E+00 0. -1.
        -13    1    3    3    0    0  0.36878871324E+02 -0.17796958309E+02  0.44379608798E+02  0.60384870226E+02  0.00000000000E+00 0. -1.
         13    1    3    3    0    0 -0.48270880508E+02 -0.80339309313E+01  0.62615775533E+02  0.79469222324E+02  0.00000000000E+00 0.  1.
          1    1    1    2  501    0  0.12737760235E+03  0.70072093094E+02  0.70087703730E+02  0.16139218700E+03  0.00000000000E+00 0. -1.
<scales pt_clust_5="13000.00000" pt_clust_6="13000.00000" pt_clust_7="13000.00000" pt_clust_8="13000.00000" pt_clust_9="132.36692"></scales>
<clustering>
<clus scale="   81.138">  5  6 -1 -1</clus>
<clus scale="   85.523">  7  8 -1 -1</clus>
<clus scale="   90.062">  1  7  2 -1</clus>
<clus scale="  132.367">  2  9  1 -1</clus>
<clus scale="  132.367">  2  5  1 -1</clus>
</clustering>
</event>
<event>
 9    2  0.3745229E-005  0.1799786E+03  0.7546771E-02  0.1184687E+00
         21   -1    0    0  501  502  0.00000000000E+00  0.00000000000E+00  0.58880269403E+02  0.58880269403E+02  0.00000000000E+00 0.  1.
          2   -1    0    0  502    0 -0.00000000000E+00 -0.00000000000E+00 -0.10761561735E+04  0.10761561735E+04  0.00000000000E+00 0. -1.
         23    2    1    2    0    0 -0.54772936766E+02  0.63321399516E+02 -0.37465430970E+03  0.39429395092E+03  0.89956621286E+02 0.  0.
         24    2    1    2    0    0  0.15645524728E+03  0.63174294061E+02 -0.45698549990E+03  0.49416347353E+03  0.83021416609E+02 0.  0.
        -13    1    4    4    0    0  0.14888005843E+03  0.58875474706E+02 -0.45820426079E+03  0.48536866188E+03  0.00000000000E+00 0.  1.
         14    1    4    4    0    0  0.75751888432E+01  0.42988193553E+01  0.12187608915E+01  0.87948116506E+01  0.00000000000E+00 0. -1.
        -13    1    3    3    0    0 -0.25238424915E+02  0.26912544382E+00 -0.18235862135E+02  0.31138355584E+02  0.00000000000E+00 0. -1.
         13    1    3    3    0    0 -0.29534511851E+02  0.63052274072E+02 -0.35641844757E+03  0.36315559533E+03  0.00000000000E+00 0.  1.
          1    1    1    2  501    0 -0.10168231051E+03 -0.12649569358E+03 -0.18563609448E+03  0.24657901845E+03  0.00000000000E+00 0. -1.
<scales pt_clust_5="13000.00000" pt_clust_6="13000.00000" pt_clust_7="13000.00000" pt_clust_8="13000.00000" pt_clust_9="159.68639"></scales>
<clustering>
<clus scale="   83.021">  5  6 -1 -1</clus>
<clus scale="   89.957">  7  8 -1 -1</clus>
<clus scale="  122.890">  2  7  1 -1</clus>
<clus scale="  159.686">  1  9  2 -1</clus>
<clus scale="  159.686">  1  5  2 -1</clus>
</clustering>
</event>
<event>
 9    2  0.3745229E-005  0.9892870E+02  0.7546771E-02  0.1290099E+00
          4   -1    0    0  502    0 -0.00000000000E+00  0.00000000000E+00  0.50411773438E+03  0.50411773438E+03  0.00000000000E+00 0. -1.
         21   -1    0    0  501  502  0.00000000000E+00 -0.00000000000E+00 -0.23533257328E+02  0.23533257328E+02  0.00000000000E+00 0.  1.
         23    2    1    2    0    0  0.19089213355E+01  0.22198837924E+02  0.20386809153E+03  0.22565177141E+03  0.94128055387E+02 0.  0.
         24    2    1    2    0    0  0.26243422459E+02 -0.32567601290E+02  0.19594473388E+03  0.21583585555E+03  0.80258407231E+02 0.  0.
        -11    1    4    4    0    0 -0.28404383586E+02 -0.50763489454E+01  0.73488005631E+02  0.78949764389E+02  0.00000000000E+00 0.  1.
         12    1    4    4    0    0  0.54647806044E+02 -0.27491252344E+02  0.12245672825E+03  0.13688609117E+03  0.00000000000E+00 0. -1.
        -11    1    3    3    0    0  0.27310343769E+02  0.50765233366E+02  0.10753236641E+03  0.12200890796E+03  0.00000000000E+00 0. -1.
         11    1    3    3    0    0 -0.25401422433E+02 -0.28566395442E+02  0.96335725116E+02  0.10364286345E+03  0.00000000000E+00 0.  1.
          3    1    1    2  501    0 -0.28152343794E+02  0.10368763366E+02  0.80771651637E+02  0.86163364739E+02  0.00000000000E+00 0. -1.
<scales pt_clust_5="13000.00000" pt_clust_6="13000.00000" pt_clust_7="13000.00000" pt_clust_8="13000.00000" pt_clust_9="30.00111"></scales>
<clustering>
<clus scale="   30.001">  2  9  1 -1</clus>
<clus scale="   80.258">  5  6 -1 -1</clus>
<clus scale="   85.838">  2  5  1 -1</clus>
<clus scale="   94.128">  7  8 -1 -1</clus>
<clus scale="   30.001">  2  5  1 -1</clus>
</clustering>
</event>
<event>
 9    2  0.3745229E-005  0.1449048E+03  0.7546771E-02  0.1216462E+00
         21   -1    0    0  501  502  0.00000000000E+00  0.00000000000E+00  0.12178625782E+03  0.12178625782E+03  0.00000000000E+00 0. -1.
          2   -1    0    0  502    0 -0.00000000000E+00 -0.00000000000E+00 -0.37390633630E+03  0.37390633630E+03  0.00000000000E+00 0. -1.
         24    2    1    2    0    0 -0.76799890175E+02  0.38872684871E+02 -0.18073403822E+03  0.21592822433E+03  0.80937610107E+02 0.  0.
         23    2    1    2    0    0 -0.14990770766E+02  0.73643352707E+02 -0.61710994970E+02  0.13423433630E+03  0.92534012862E+02 0.  0.
        -11    1    3    3    0    0 -0.63502918461E+02 -0.31455430171E+01 -0.60077966159E+02  0.87475008498E+02  0.00000000000E+00 0.  1.
         12    1    3    3    0    0 -0.13296971714E+02  0.42018227888E+02 -0.12065607206E+03  0.12845321583E+03  0.00000000000E+00 0. -1.
        -11    1    4    4    0    0 -0.47436398381E+02  0.11076852366E+02 -0.24115127011E+02  0.54354833276E+02  0.00000000000E+00 0.  1.
         11    1    4    4    0    0  0.32445627614E+02  0.62566500341E+02 -0.37595867959E+02  0.79879503026E+02  0.00000000000E+00 0. -1.
          1    1    1    2  501    0  0.91790660941E+02 -0.11251603758E+03 -0.96750452930E+01  0.14553003350E+03  0.00000000000E+00 0. -1.
<scales pt_clust_5="13000.00000" pt_clust_6="13000.00000" pt_clust_7="13000.00000" pt_clust_8="13000.00000" pt_clust_9="111.51169"></scales>
<clustering>
<clus scale="   80.938">  5  6 -1 -1</clus>
<clus scale="   92.534">  7  8 -1 -1</clus>
<clus scale="  118.153">  2  5  1 -1</clus>
<clus scale="  111.512">  1  9  2 -1</clus>
<clus scale="  111.512">  1  5  2 -1</clus>
</clustering>
</event>
<event>
 9    2  0.3745229E-005  0.3001071E+03  0.7546771E-02  0.1105716E+00
         21   -1    0    0  501  502  0.00000000000E+00  0.00000000000E+00  0.13772720643E+03  0.13772720643E+03  0.00000000000E+00 0.  1.
         -3   -1    0    0    0  501 -0.00000000000E+00 -0.00000000000E+00 -0.13238040577E+04  0.13238040577E+04  0.00000000000E+00 0.  1.
         23    2    1    2    0    0  0.89484293810E+02  0.12086997819E+03 -0.48104106028E+03  0.51201171335E+03  0.90213648976E+02 0.  0.
         24    2    1    2    0    0  0.22314315156E+03 -0.16184232943E+02 -0.51928844573E+03  0.57110562251E+03  0.80289144379E+02 0.  0.
        -13    1    4    4    0    0  0.67607677326E+02  0.31882492260E+02 -0.17320686120E+03  0.18864757648E+03  0.00000000000E+00 0.  1.
         14    1    4    4    0    0  0.15553547423E+03 -0.48066725203E+02 -0.34608158453E+03  0.38245804602E+03  0.00000000000E+00 0. -1.
        -13    1    3    3    0    0  0.63135290964E+02  0.63841733483E+02 -0.14806979913E+03  0.17316609747E+03  0.00000000000E+00 0.  1.
         13    1    3    3    0    0  0.26349002846E+02  0.57028244709E+02 -0.33297126115E+03  0.33884561588E+03  0.00000000000E+00 0. -1.
         -4    1    1    2    0  502 -0.31262744537E+03 -0.10468574525E+03 -0.18574734529E+03  0.37841392831E+03  0.00000000000E+00 0.  1.
<scales pt_clust_5="13000.00000" pt_clust_6="13000.00000" pt_clust_7="13000.00000" pt_clust_8="13000.00000" pt_clust_9="289.16762"></scales>
<clustering>
<clus scale="   80.289">  5  6 -1 -1</clus>
<clus scale="   90.214">  7  8 -1 -1</clus>
<clus scale="  175.372">  2  7  1 -1</clus>
<clus scale="  289.168">  1  9  2 -1</clus>
<clus scale="  289.168">  1  5  2 -1</clus>
</clustering>
</event>
<event>
 9    2  0.3745229E-005  0.9627660E+02  0.7546771E-02  0.1292420E+00
          4   -1    0    0  502    0 -0.00000000000E+00  0.00000000000E+00  0.44215772444E+03  0.44215772444E+03  0.00000000000E+00 0. -1.
         21   -1    0    0  501  502  0.00000000000E+00 -0.00000000000E+00 -0.40381940245E+02  0.40381940245E+02  0.00000000000E+00 0.  1.
         23    2    1    2    0    0 -0.11595003730E+02 -0.46913346823E+02  0.15024127770E+03  0.17980589790E+03  0.86153428096E+02 0.  0.
         24    2    1    2    0    0 -0.54124017239E+02  0.28717714783E+02  0.13290055959E+03  0.16589779162E+03  0.78137072758E+02 0.  0.
        -11    1    4    4    0    0 -0.71870060594E+02  0.12167753132E+02  0.83370069013E+02  0.11074262157E+03  0.00000000000E+00 0.  1.
         12    1    4    4    0    0  0.17746043355E+02  0.16549961652E+02  0.49530490582E+02  0.55155170045E+02  0.00000000000E+00 0. -1.
        -11    1    3    3    0    0  0.63726046248E+01  0.23210269222E+02  0.22333462940E+02  0.32834589291E+02  0.00000000000E+00 0.  1.
         11    1    3    3    0    0 -0.17967608355E+02 -0.70123616045E+02  0.12790781476E+03  0.14697130861E+03  0.00000000000E+00 0. -1.
          3    1    1    2  501    0  0.65719020970E+02  0.18195632040E+02  0.11863394689E+03  0.13683597516E+03  0.00000000000E+00 0. -1.
<scales pt_clust_5="13000.00000" pt_clust_6="13000.00000" pt_clust_7="13000.00000" pt_clust_8="13000.00000" pt_clust_9="68.19146"></scales>
<clustering>
<clus scale="   68.191">  2  9  1 -1</clus>
<clus scale="   78.137">  5  6 -1 -1</clus>
<clus scale="   86.153">  7  8 -1 -1</clus>
<clus scale="   89.175">  2  5  1 -1</clus>
<clus scale="   68.191">  2  5  1 -1</clus>
</clustering>
</event>
<event>
 9    2  0.3745229E-005  0.1012983E+03  0.7546771E-02  0.1281242E+00
         -1   -1    0    0    0  501 -0.00000000000E+00  0.00000000000E+00  0.55344231251E+03  0.55344231251E+03  0.00000000000E+00 0.  1.
         21   -1    0    0  501  502  0.00000000000E+00 -0.00000000000E+00 -0.93885982770E+02  0.93885982770E+02  0.00000000000E+00 0. -1.
         23    2    1    2    0    0 -0.39765234026E+02 -0.36945132490E+02  0.37296600224E+03  0.38722877026E+03  0.88860930886E+02 0.  0.
         24    2    1    2    0    0  0.87612442120E+01 -0.29413041079E+02 -0.53639394568E+02  0.10189386919E+03  0.81014131756E+02 0.  0.
        -11    1    4    4    0    0 -0.80558722882E+01 -0.51198863309E+02 -0.53336369777E+02  0.74370619356E+02  0.00000000000E+00 0.  1.
         12    1    4    4    0    0  0.16817116500E+02  0.21785822230E+02 -0.30302479152E+00  0.27523249838E+02  0.00000000000E+00 0. -1.
        -13    1    3    3    0    0 -0.10901072501E+02 -0.52911097377E+02  0.32213257297E+03  0.32663100308E+03  0.00000000000E+00 0.  1.
         13    1    3    3    0    0 -0.28864161526E+02  0.15965964887E+02  0.50833429273E+02  0.60597767178E+02  0.00000000000E+00 0. -1.
         -2    1    1    2    0  502  0.31003989814E+02  0.66358173569E+02  0.14022972206E+03  0.15820565582E+03  0.00000000000E+00 0.  1.
<scales pt_clust_5="13000.00000" pt_clust_6="13000.00000" pt_clust_7="13000.00000" pt_clust_8="13000.00000" pt_clust_9="73.24384"></scales>
<clustering>
<clus scale="   73.244">  2  9  1 -1</clus>
<clus scale="   81.014">  5  6 -1 -1</clus>
<clus scale="   88.861">  7  8 -1 -1</clus>
<clus scale="   94.490">  2  5  1 -1</clus>
<clus scale="   73.244">  2  5  1 -1</clus>
</clustering>
</event>
<event>
 9    2  0.3745229E-005  0.1276971E+03  0.7546771E-02  0.1233856E+00
         -3   -1    0    0    0  501 -0.00000000000E+00  0.00000000000E+00  0.93717644131E+02  0.93717644131E+02  0.00000000000E+00 0.  1.
         21   -1    0    0  501  502  0.00000000000E+00 -0.00000000000E+00 -0.44339254407E+03  0.44339254407E+03  0.00000000000E+00 0.  1.
         23    2    1    2    0    0  0.25167068676E+02 -0.93433724743E+02  0.23885803647E+02  0.13512674461E+03  0.91243976390E+02 0.  0.
         24    2    1    2    0    0 -0.31533269787E+02  0.44356910461E+02 -0.27612837139E+03  0.29270342907E+03  0.80414782809E+02 0.  0.
        -11    1    4    4    0    0 -0.41260827257E+02 -0.94053129407E+01 -0.11262997272E+03  0.12031802247E+03  0.00000000000E+00 0.  1.
         12    1    4    4    0    0  0.97275574700E+01  0.53762223402E+02 -0.16349839868E+03  0.17238540660E+03  0.00000000000E+00 0. -1.
        -11    1    3    3    0    0  0.56265297688E+02 -0.64928513145E+02  0.32880710184E+02  0.91992590165E+02  0.00000000000E+00 0.  1.
         11    1    3    3    0    0 -0.31098229012E+02 -0.28505211598E+02 -0.89949065370E+01  0.43134154443E+02  0.00000000000E+00 0. -1.
         -4    1    1    2    0  502  0.63662011110E+01  0.49076814282E+02 -0.97432332188E+02  0.10928001451E+03  0.00000000000E+00 0.  1.
<scales pt_clust_5="13000.00000" pt_clust_6="13000.00000" pt_clust_7="13000.00000" pt_clust_8="13000.00000" pt_clust_9="49.48800"></scales>
<clustering>
<clus scale="   49.488">  2  9  1 -1</clus>
<clus scale="   80.415">  5  6 -1 -1</clus>
<clus scale="   91.244">  7  8 -1 -1</clus>
<clus scale="  120.198">  2  5  1 -1</clus>
<clus scale="   49.488">  2  5  1 -1</clus>
</clustering>
</event>
<event>
 9    2  0.3745229E-005  0.1127302E+03  0.7546771E-02  0.1259042E+00
         21   -1    0    0  501  502  0.00000000000E+00  0.00000000000E+00  0.19883870283E+03  0.19883870283E+03  0.00000000000E+00 0. -1.
          2   -1    0    0  502    0 -0.00000000000E+00 -0.00000000000E+00 -0.98591931894E+02  0.98591931894E+02  0.00000000000E+00 0. -1.
         24    2    1    2    0    0 -0.24165581003E+02 -0.71680790959E+02 -0.19648673287E+02  0.11304582621E+03  0.81677275693E+02 0.  0.
         23    2    1    2    0    0  0.28072249651E+02  0.40269543782E+02  0.68601875075E+02  0.12411077807E+03  0.91036150035E+02 0.  0.
        -11    1    3    3    0    0  0.21471115648E+02 -0.23759636395E+02  0.18176962517E+02  0.36822969668E+02  0.00000000000E+00 0.  1.
         12    1    3    3    0    0 -0.45636696651E+02 -0.47921154563E+02 -0.37825635804E+02  0.76222856545E+02  0.00000000000E+00 0. -1.
        -13    1    4    4    0    0 -0.12289604956E+02  0.54293462894E+02  0.19413095804E+02  0.58954921692E+02  0.00000000000E+00 0.  1.
         13    1    4    4    0    0  0.40361854607E+02 -0.14023919113E+02  0.49188779271E+02  0.65155856381E+02  0.00000000000E+00 0. -1.
          1    1    1    2  501    0 -0.39066686474E+01  0.31411247177E+02  0.51293569145E+02  0.60274030434E+02  0.00000000000E+00 0. -1.
<scales pt_clust_5="13000.00000" pt_clust_6="13000.00000" pt_clust_7="13000.00000" pt_clust_8="13000.00000" pt_clust_9="31.65325"></scales>
<clustering>
<clus scale="   31.653">  1  9  2 -1</clus>
<clus scale="   81.677">  5  6 -1 -1</clus>
<clus scale="   91.036">  7  8 -1 -1</clus>
<clus scale="  105.317">  2  5  1 -1</clus>
<clus scale="   31.653">  1  5  2 -1</clus>
</clustering>
</event>
<event>
 9    2  0.3745229E-005  0.1294874E+03  0.7546771E-02  0.1229174E+00
          2   -1    0    0  502    0 -0.00000000000E+00  0.00000000000E+00  0.45228540903E+03  0.45228540903E+03  0.00000000000E+00 0. -1.
         21   -1    0    0  501  502  0.00000000000E+00 -0.00000000000E+00 -0.13764365818E+03  0.13764365818E+03  0.00000000000E+00 0.  1.
         23    2    1    2    0    0 -0.73387602468E+02 -0.73829253563E+02  0.38094851874E+03  0.40224427629E+03  0.76434187399E+02 0.  0.
         24    2    1    2    0    0  0.50199718482E+02  0.71090261532E+02 -0.12959776154E+01  0.11860814586E+03  0.80575279623E+02 0.  0.
        -13    1    4    4    0    0  0.35785764871E+02  0.83502466387E+02 -0.18783914847E+02  0.92769166844E+02  0.00000000000E+00 0.  1.
         14    1    4    4    0    0  0.14413953612E+02 -0.12412204854E+02  0.17487937231E+02  0.25838979018E+02  0.00000000000E+00 0. -1.
        -13    1    3    3    0    0 -0.36290607961E+01 -0.40128300774E+02  0.61410182739E+02  0.73448357023E+02  0.00000000000E+00 0.  1.
         13    1    3    3    0    0 -0.69758541672E+02 -0.33700952788E+02  0.31953833600E+03  0.32879591927E+03  0.00000000000E+00 0. -1.
          1    1    1    2  501    0  0.23187883986E+02  0.27389920305E+01 -0.65010790266E+02  0.69076645055E+02  0.00000000000E+00 0. -1.
<scales pt_clust_5="13000.00000" pt_clust_6="13000.00000" pt_clust_7="13000.00000" pt_clust_8="13000.00000" pt_clust_9="23.34909"></scales>
<clustering>
<clus scale="   23.349">  2  9  1 -1</clus>
<clus scale="   76.434">  7  8 -1 -1</clus>
<clus scale="   80.575">  5  6 -1 -1</clus>
<clus scale="  126.952">  1  7  2 -1</clus>
<clus scale="   23.349">  2  5  1 -1</clus>
</clustering>
</event>
<event>
 9    2  0.3745229E-005  0.9484711E+02  0.7546771E-02  0.1297912E+00
         21   -1    0    0  501  502  0.00000000000E+00  0.00000000000E+00  0.16233073378E+03  0.16233073378E+03  0.00000000000E+00 0. -1.
         -1   -1    0    0    0  501 -0.00000000000E+00 -0.00000000000E+00 -0.93108330536E+02  0.93108330536E+02  0.00000000000E+00 0.  1.
         24    2    1    2    0    0  0.20940138992E+01  0.20658205943E+02 -0.28384972103E+02  0.87139512146E+02  0.79727295004E+02 0.  0.
         23    2    1    2    0    0 -0.24858395725E+02 -0.42974419758E+02  0.62844641855E+02  0.12113305857E+03  0.90879196058E+02 0.  0.
        -11    1    3    3    0    0  0.22405316662E+02 -0.21613451725E+02  0.21037526953E+01  0.31202007717E+02  0.00000000000E+00 0.  1.
         12    1    3    3    0    0 -0.20311302763E+02  0.42271657667E+02 -0.30488724799E+02  0.55937504429E+02  0.00000000000E+00 0. -1.
        -11    1    4    4    0    0  0.89435080146E+01 -0.56569245990E+02  0.11889922288E+02  0.58493043856E+02  0.00000000000E+00 0.  1.
         11    1    4    4    0    0 -0.33801903739E+02  0.13594826232E+02  0.50954719568E+02  0.62640014710E+02  0.00000000000E+00 0. -1.
         -2    1    1    2    0  502  0.22764381826E+02  0.22316213816E+02  0.34762733491E+02  0.47166493602E+02  0.00000000000E+00 0.  1.
<scales pt_clust_5="13000.00000" pt_clust_6="13000.00000" pt_clust_7="13000.00000" pt_clust_8="13000.00000" pt_clust_9="31.87837"></scales>
<clustering>
<clus scale="   31.878">  1  9  2 -1</clus>
<clus scale="   79.727">  5  6 -1 -1</clus>
<clus scale="   84.222">  2  5  1 -1</clus>
<clus scale="   90.879">  7  8 -1 -1</clus>
<clus scale="   31.878">  1  5  2 -1</clus>
</clustering>
</event>
<event>
 9    2  0.3745229E-005  0.1030416E+03  0.7546771E-02  0.1278854E+00
         21   -1    0    0  501  502  0.00000000000E+00  0.00000000000E+00  0.14495396012E+03  0.14495396012E+03  0.00000000000E+00 0.  1.
          2   -1    0    0  502    0 -0.00000000000E+00 -0.00000000000E+00 -0.24423774611E+03  0.24423774611E+03  0.00000000000E+00 0. -1.
         23    2    1    2    0    0 -0.33660008067E+02  0.25406913551E+02 -0.17924892990E+03  0.20550300382E+03  0.91229371964E+02 0.  0.
         24    2    1    2    0    0  0.57091333974E+02 -0.63568385998E+02  0.41689325444E+02  0.12477891296E+03  0.80817183510E+02 0.  0.
        -13    1    4    4    0    0  0.57295592376E+02 -0.56099164213E+02  0.63141633279E+02  0.10206256407E+03  0.00000000000E+00 0.  1.
         14    1    4    4    0    0 -0.20425840154E+00 -0.74692217851E+01 -0.21452307835E+02  0.22716348893E+02  0.00000000000E+00 0. -1.
        -13    1    3    3    0    0 -0.29170291055E+01  0.33243361549E+02 -0.16885015169E+03  0.17211625104E+03  0.00000000000E+00 0. -1.
         13    1    3    3    0    0 -0.30742978962E+02 -0.78364479986E+01 -0.10398778204E+02  0.33386752774E+02  0.00000000000E+00 0.  1.
          1    1    1    2  501    0 -0.23431325907E+02  0.38161472447E+02  0.38275818468E+02  0.58909789446E+02  0.00000000000E+00 0. -1.
<scales pt_clust_5="13000.00000" pt_clust_6="13000.00000" pt_clust_7="13000.00000" pt_clust_8="13000.00000" pt_clust_9="44.78086"></scales>
<clustering>
<clus scale="   44.781">  1  9  2 -1</clus>
<clus scale="   80.817">  5  6 -1 -1</clus>
<clus scale="   91.229">  7  8 -1 -1</clus>
<clus scale="   93.948">  1  5  2 -1</clus>
<clus scale="   44.781">  1  5  2 -1</clus>
</clustering>
</event>
<event>
 9    2  0.3745229E-005  0.9330059E+02  0.7546771E-02  0.1300768E+00
         -3   -1    0    0    0  501 -0.00000000000E+00  0.00000000000E+00  0.48963688403E+03  0.48963688403E+03  0.00000000000E+00 0.  1.
         21   -1    0    0  501  502  0.00000000000E+00 -0.00000000000E+00 -0.40231695864E+02  0.40231695864E+02  0.00000000000E+00 0.  1.
         23    2    1    2    0    0  0.13553882520E+02  0.37443492230E+02  0.27104968195E+03  0.28885175589E+03  0.91551537144E+02 0.  0.
         24    2    1    2    0    0  0.28113999008E+02  0.93144301626E+01  0.14717465587E+03  0.17105425483E+03  0.81987945540E+02 0.  0.
        -11    1    4    4    0    0  0.31273776015E+02 -0.15128013152E+02  0.17203169722E+02  0.38766672499E+02  0.00000000000E+00 0.  1.
         12    1    4    4    0    0 -0.31597770079E+01  0.24442443314E+02  0.12997148615E+03  0.13228758233E+03  0.00000000000E+00 0. -1.
        -13    1    3    3    0    0  0.30140124464E+02 -0.21207588294E+02  0.13161271807E+03  0.13667514940E+03  0.00000000000E+00 0.  1.
         13    1    3    3    0    0 -0.16586241944E+02  0.58651080524E+02  0.13943696388E+03  0.15217660649E+03  0.00000000000E+00 0. -1.
         -4    1    1    2    0  502 -0.41667881528E+02 -0.46757922393E+02  0.31180850340E+02  0.69962569174E+02  0.00000000000E+00 0.  1.
<scales pt_clust_5="13000.00000" pt_clust_6="13000.00000" pt_clust_7="13000.00000" pt_clust_8="13000.00000" pt_clust_9="62.62999"></scales>
<clustering>
<clus scale="   62.630">  2  9  1 -1</clus>
<clus scale="   81.988">  5  6 -1 -1</clus>
<clus scale="   83.937">  2  5  1 -1</clus>
<clus scale="   91.552">  7  8 -1 -1</clus>
<clus scale="   62.630">  2  5  1 -1</clus>
</clustering>
</event>
<event>
 9    2  0.3745229E-005  0.1100969E+03  0.7546771E-02  0.1266100E+00
         21   -1    0    0  501  502  0.00000000000E+00  0.00000000000E+00  0.21166013155E+03  0.21166013155E+03  0.00000000000E+00 0.  1.
          2   -1    0    0  502    0 -0.00000000000E+00 -0.00000000000E+00 -0.14139833682E+03  0.14139833682E+03  0.00000000000E+00 0. -1.
         24    2    1    2    0    0  0.58953418851E+02 -0.54240023863E+01 -0.61455410912E+02  0.11451626485E+03  0.76369378605E+02 0.  0.
         23    2    1    2    0    0 -0.82037262385E+02 -0.37147084247E+02  0.13973562770E+03  0.18945599016E+03  0.90870832886E+02 0.  0.
        -13    1    3    3    0    0 -0.10225363852E+02  0.20365468731E+02 -0.15242396999E+02  0.27416072819E+02  0.00000000000E+00 0.  1.
         14    1    3    3    0    0  0.69178782703E+02 -0.25789471118E+02 -0.46213013913E+02  0.87100192030E+02  0.00000000000E+00 0. -1.
        -11    1    4    4    0    0 -0.61713973273E+02  0.16676885565E+02  0.43465984292E+02  0.77304752763E+02  0.00000000000E+00 0. -1.
         11    1    4    4    0    0 -0.20323289112E+02 -0.53823969812E+02  0.96269643413E+02  0.11215123740E+03  0.00000000000E+00 0.  1.
          1    1    1    2  501    0  0.23083843534E+02  0.42571086633E+02 -0.80184220682E+01  0.49086213359E+02  0.00000000000E+00 0. -1.
<scales pt_clust_5="13000.00000" pt_clust_6="13000.00000" pt_clust_7="13000.00000" pt_clust_8="13000.00000" pt_clust_9="48.42689"></scales>
<clustering>
<clus scale="   48.427">  1  9  2 -1</clus>
<clus scale="   76.369">  5  6 -1 -1</clus>
<clus scale="   90.871">  7  8 -1 -1</clus>
<clus scale="   98.469">  2  5  1 -1</clus>
<clus scale="   48.427">  1  5  2 -1</clus>
</clustering>
</event>
<event>
 9    2  0.3745229E-005  0.1033692E+03  0.7546771E-02  0.1282852E+00
         -1   -1    0    0    0  501 -0.00000000000E+00  0.00000000000E+00  0.23866553041E+03  0.23866553041E+03  0.00000000000E+00 0.  1.
         21   -1    0    0  501  502  0.00000000000E+00 -0.00000000000E+00 -0.12143591353E+03  0.12143591353E+03  0.00000000000E+00 0.  1.
         23    2    1    2    0    0  0.17758093542E+02 -0.20523762104E+02  0.91687764002E+02  0.13654101386E+03  0.97469111518E+02 0.  0.
         24    2    1    2    0    0  0.65063864554E+02  0.44481907410E+02  0.64507881776E+02  0.12894636730E+03  0.79081933919E+02 0.  0.
        -13    1    4    4    0    0  0.23458780075E+02 -0.21710061313E+02  0.94750394689E+01  0.33337928816E+02  0.00000000000E+00 0.  1.
         14    1    4    4    0    0  0.41605084479E+02  0.66191968722E+02  0.55032842307E+02  0.95608438488E+02  0.00000000000E+00 0. -1.
        -11    1    3    3    0    0  0.11641398342E+02 -0.59832222903E+02  0.49166773374E+02  0.78312123307E+02  0.00000000000E+00 0.  1.
         11    1    3    3    0    0  0.61166951994E+01  0.39308460800E+02  0.42520990628E+02  0.58228890549E+02  0.00000000000E+00 0. -1.
         -2    1    1    2    0  502 -0.82821958095E+02 -0.23958145306E+02 -0.38966028897E+02  0.94614062788E+02  0.00000000000E+00 0.  1.
<scales pt_clust_5="13000.00000" pt_clust_6="13000.00000" pt_clust_7="13000.00000" pt_clust_8="13000.00000" pt_clust_9="86.21757"></scales>
<clustering>
<clus scale="   79.082">  5  6 -1 -1</clus>
<clus scale="   86.218">  2  9  1 -1</clus>
<clus scale="   86.249">  2  5  1 -1</clus>
<clus scale="   97.469">  7  8 -1 -1</clus>
<clus scale="   86.218">  2  5  1 -1</clus>
</clustering>
</event>
<event>
 9    2  0.3745229E-005  0.1624189E+03  0.7546771E-02  0.1201559E+00
         21   -1    0    0  501  502  0.00000000000E+00  0.00000000000E+00  0.12551951054E+03  0.12551951054E+03  0.00000000000E+00 0. -1.
         -3   -1    0    0    0  501 -0.00000000000E+00 -0.00000000000E+00 -0.38971360835E+03  0.38971360835E+03  0.00000000000E+00 0.  1.
         23    2    1    2    0    0 -0.30104817054E+02  0.64224630250E+02 -0.91129530635E+02  0.14704865919E+03  0.91036331630E+02 0.  0.
         24    2    1    2    0    0  0.15118558611E+03 -0.48990388555E+02 -0.30271345328E+02  0.18034799103E+03  0.79698832505E+02 0.  0.
        -13    1    4    4    0    0  0.81052907878E+01 -0.30364103404E+02  0.49729232931E+01  0.31818304171E+02  0.00000000000E+00 0.  1.
         14    1    4    4    0    0  0.14308029532E+03 -0.18626285152E+02 -0.35244268621E+02  0.14852968686E+03  0.00000000000E+00 0. -1.
        -13    1    3    3    0    0 -0.25273742163E+02  0.24568633295E+02  0.11372640197E+02  0.37036694371E+02  0.00000000000E+00 0. -1.
         13    1    3    3    0    0 -0.48310748914E+01  0.39655996955E+02 -0.10250217083E+03  0.11001196482E+03  0.00000000000E+00 0.  1.
         -4    1    1    2    0  502 -0.12108076905E+03 -0.15234241695E+02 -0.14279322185E+03  0.18783646867E+03  0.00000000000E+00 0.  1.
<scales pt_clust_5="13000.00000" pt_clust_6="13000.00000" pt_clust_7="13000.00000" pt_clust_8="13000.00000" pt_clust_9="141.52039"></scales>
<clustering>
<clus scale="   79.699">  5  6 -1 -1</clus>
<clus scale="   91.036">  7  8 -1 -1</clus>
<clus scale="  115.407">  2  7  1 -1</clus>
<clus scale="  141.520">  1  9  2 -1</clus>
<clus scale="  141.520">  1  5  2 -1</clus>
</clustering>
</event>
<event>
 9    2  0.3745229E-005  0.9424619E+02  0.7546771E-02  0.1300662E+00
         -1   -1    0    0    0  501 -0.00000000000E+00  0.00000000000E+00  0.22951781897E+03  0.22951781897E+03  0.00000000000E+00 0.  1.
         21   -1    0    0  501  502  0.00000000000E+00 -0.00000000000E+00 -0.99556066803E+02  0.99556066803E+02  0.00000000000E+00 0. -1.
         24    2    1    2    0    0  0.14713804366E+01 -0.10999415742E+02  0.15760471276E+03  0.17719104519E+03  0.80213894701E+02 0.  0.
         23    2    1    2    0    0  0.33891274471E+02  0.35936651986E+02 -0.12747270080E+02  0.10611970357E+03  0.93052872875E+02 0.  0.
        -13    1    3    3    0    0 -0.17716518183E+02 -0.40101640129E+02  0.10803755080E+03  0.11659386322E+03  0.00000000000E+00 0.  1.
         14    1    3    3    0    0  0.19187898620E+02  0.29102224386E+02  0.49567161966E+02  0.60597181973E+02  0.00000000000E+00 0. -1.
        -11    1    4    4    0    0  0.71373836250E+00 -0.30441342296E+02  0.17867341407E+01  0.30502084554E+02  0.00000000000E+00 0.  1.
         11    1    4    4    0    0  0.33177536108E+02  0.66377994282E+02 -0.14534004220E+02  0.75617619017E+02  0.00000000000E+00 0. -1.
         -2    1    1    2    0  502 -0.35362654907E+02 -0.24937236244E+02 -0.14895690515E+02  0.45763137015E+02  0.00000000000E+00 0.  1.
<scales pt_clust_5="13000.00000" pt_clust_6="13000.00000" pt_clust_7="13000.00000" pt_clust_8="13000.00000" pt_clust_9="43.27104"></scales>
<clustering>
<clus scale="   43.271">  2  9  1 -1</clus>
<clus scale="   80.214">  5  6 -1 -1</clus>
<clus scale="   81.595">  1  5  2 -1</clus>
<clus scale="   93.053">  7  8 -1 -1</clus>
<clus scale="   43.271">  2  5  1 -1</clus>
</clustering>
</event>
<event>
 9    2  0.3745229E-005  0.1252883E+03  0.7546771E-02  0.1236889E+00
         21   -1    0    0  501  502  0.00000000000E+00  0.00000000000E+00  0.67422200359E+02  0.67422200359E+02  0.00000000000E+00 0.  1.
         -3   -1    0    0    0  501 -0.00000000000E+00 -0.00000000000E+00 -0.73660780567E+03  0.73660780567E+03  0.00000000000E+00 0.  1.
         24    2    1    2    0    0  0.10501446627E+02  0.10577155111E+03 -0.55340385250E+03  0.56975820674E+03  0.84087387709E+02 0.  0.
         23    2    1    2    0    0 -0.34029911782E+02 -0.29750274855E+02 -0.11586263835E+03  0.15469272127E+03  0.91992245863E+02 0.  0.
        -11    1    3    3    0    0 -0.59959637590E+01  0.99235962305E+02 -0.53512950657E+03  0.54428606136E+03  0.00000000000E+00 0.  1.
         12    1    3    3    0    0  0.16497410386E+02  0.65355888074E+01 -0.18274345936E+02  0.25472145373E+02  0.00000000000E+00 0. -1.
        -13    1    4    4    0    0  0.29958713106E+02  0.33882316634E+01 -0.39589406633E+02  0.49762694082E+02  0.00000000000E+00 0. -1.
         13    1    4    4    0    0 -0.63988624888E+02 -0.33138506519E+02 -0.76273231716E+02  0.10493002719E+03  0.00000000000E+00 0.  1.
         -4    1    1    2    0  502  0.23528465156E+02 -0.76021276256E+02  0.80885542695E-01  0.79579078021E+02  0.00000000000E+00 0.  1.
<scales pt_clust_5="13000.00000" pt_clust_6="13000.00000" pt_clust_7="13000.00000" pt_clust_8="13000.00000" pt_clust_9="79.57904"></scales>
<clustering>
<clus scale="   79.579">  1  9  2 -1</clus>
<clus scale="   84.087">  5  6 -1 -1</clus>
<clus scale="   91.992">  7  8 -1 -1</clus>
<clus scale="  119.605">  2  5  1 -1</clus>
<clus scale="   79.579">  1  5  2 -1</clus>
</clustering>
</event>
<event>
 9    2  0.3745229E-005  0.1003510E+03  0.7546771E-02  0.1285368E+00
         21   -1    0    0  501  502  0.00000000000E+00  0.00000000000E+00  0.11022533265E+03  0.11022533265E+03  0.00000000000E+00 0.  1.
         -1   -1    0    0    0  501 -0.00000000000E+00 -0.00000000000E+00 -0.15889163788E+03  0.15889163788E+03  0.00000000000E+00 0.  1.
         24    2    1    2    0    0 -0.39664388433E+02  0.54665935162E+01 -0.49536006799E+02  0.10227175441E+03  0.80015926078E+02 0.  0.
         23    2    1    2    0    0  0.33894691778E+02 -0.32297322085E+02 -0.45868517533E+02  0.11264522978E+03  0.91613643894E+02 0.  0.
        -11    1    3    3    0    0 -0.17359215166E+02 -0.31496227177E+02 -0.46788685790E+02  0.59013013781E+02  0.00000000000E+00 0.  1.
         12    1    3    3    0    0 -0.22305173267E+02  0.36962820693E+02 -0.27473210086E+01  0.43258740629E+02  0.00000000000E+00 0. -1.
        -13    1    4    4    0    0  0.28306376104E+02 -0.69711569708E+01 -0.70863673162E+02  0.76625766761E+02  0.00000000000E+00 0.  1.
         13    1    4    4    0    0  0.55883156742E+01 -0.25326165114E+02  0.24995155630E+02  0.36019463022E+02  0.00000000000E+00 0. -1.
         -2    1    1    2    0  502  0.57696966555E+01  0.26830728569E+02  0.46738219092E+02  0.54199986337E+02  0.00000000000E+00 0.  1.
<scales pt_clust_5="13000.00000" pt_clust_6="13000.00000" pt_clust_7="13000.00000" pt_clust_8="13000.00000" pt_clust_9="27.44408"></scales>
<clustering>
<clus scale="   27.444">  1  9  2 -1</clus>
<clus scale="   80.016">  5  6 -1 -1</clus>
<clus scale="   89.888">  2  5  1 -1</clus>
<clus scale="   91.614">  7  8 -1 -1</clus>
<clus scale="   27.444">  1  5  2 -1</clus>
</clustering>
</event>
<event>
 9    2  0.3745229E-005  0.9703053E+02  0.7546771E-02  0.1292570E+00
          4   -1    0    0  502    0 -0.00000000000E+00  0.00000000000E+00  0.24645245102E+03  0.24645245102E+03  0.00000000000E+00 0. -1.
         21   -1    0    0  501  502  0.00000000000E+00 -0.00000000000E+00 -0.59088741955E+02  0.59088741955E+02  0.00000000000E+00 0.  1.
         24    2    1    2    0    0 -0.63962671672E+01 -0.43958799915E+02  0.80703878084E+02  0.12327252508E+03  0.81912826707E+02 0.  0.
         23    2    1    2    0    0  0.19288879054E+02  0.11207649934E+01  0.41701148304E+02  0.10339568689E+03  0.92619465167E+02 0.  0.
        -13    1    3    3    0    0 -0.44239019487E+02 -0.25734773298E+02  0.44108284685E+02  0.67564119026E+02  0.00000000000E+00 0.  1.
         14    1    3    3    0    0  0.37842752320E+02 -0.18224026617E+02  0.36595593399E+02  0.55708406058E+02  0.00000000000E+00 0. -1.
        -13    1    4    4    0    0 -0.11908450802E+02 -0.33775080336E+02 -0.62857106485E+01  0.36360382432E+02  0.00000000000E+00 0.  1.
         13    1    4    4    0    0  0.31197329855E+02  0.34895845330E+02  0.47986858953E+02  0.67035304456E+02  0.00000000000E+00 0. -1.
          3    1    1    2  501    0 -0.12892611887E+02  0.42838034922E+02  0.64958682677E+02  0.78872981003E+02  0.00000000000E+00 0. -1.
<scales pt_clust_5="13000.00000" pt_clust_6="13000.00000" pt_clust_7="13000.00000" pt_clust_8="13000.00000" pt_clust_9="44.73610"></scales>
<clustering>
<clus scale="   44.736">  2  9  1 -1</clus>
<clus scale="   81.913">  5  6 -1 -1</clus>
<clus scale="   86.869">  1  5  2 -1</clus>
<clus scale="   92.619">  7  8 -1 -1</clus>
<clus scale="   44.736">  2  5  1 -1</clus>
</clustering>
</event>
<event>
 9    2  0.3745229E-005  0.2609183E+03  0.7546771E-02  0.1106593E+00
         21   -1    0    0  501  502  0.00000000000E+00  0.00000000000E+00  0.14815268746E+03  0.14815268746E+03  0.00000000000E+00 0. -1.
          2   -1    0    0  502    0 -0.00000000000E+00 -0.00000000000E+00 -0.34810659414E+03  0.34810659414E+03  0.00000000000E+00 0. -1.
         24    2    1    2    0    0 -0.99848736531E+02  0.10477394142E+02 -0.45112268147E+02  0.13624858233E+03  0.80305749940E+02 0.  0.
         23    2    1    2    0    0 -0.89700313737E+02  0.53316995510E+01 -0.98764925479E+02  0.16170949491E+03  0.91218840905E+02 0.  0.
        -11    1    3    3    0    0 -0.20732304816E+02  0.94957727795E-02 -0.52162749377E+02  0.56131817855E+02  0.00000000000E+00 0.  1.
         12    1    3    3    0    0 -0.79116431715E+02  0.10467898369E+02  0.70504812301E+01  0.80116764470E+02  0.00000000000E+00 0. -1.
        -11    1    4    4    0    0 -0.54503848722E+02  0.45369224426E+02 -0.75387823464E+02  0.10350053129E+03  0.00000000000E+00 0.  1.
         11    1    4    4    0    0 -0.35196465015E+02 -0.40037524875E+02 -0.23377102014E+02  0.58208963625E+02  0.00000000000E+00 0. -1.
          1    1    1    2  501    0  0.18954905027E+03 -0.15809093693E+02 -0.56076713060E+02  0.19830120436E+03  0.00000000000E+00 0. -1.
<scales pt_clust_5="13000.00000" pt_clust_6="13000.00000" pt_clust_7="13000.00000" pt_clust_8="13000.00000" pt_clust_9="190.20718"></scales>
<clustering>
<clus scale="   80.306">  5  6 -1 -1</clus>
<clus scale="   91.219">  7  8 -1 -1</clus>
<clus scale="  102.153">  5  7 -1 -1</clus>
<clus scale="  190.207">  1  9  2 -1</clus>
<clus scale="  190.207">  1  5  2 -1</clus>
</clustering>
</event>
<event>
 9    2  0.3745229E-005  0.9708052E+02  0.7546771E-02  0.1290887E+00
          2   -1    0    0  502    0 -0.00000000000E+00  0.00000000000E+00  0.36218656417E+03  0.36218656417E+03  0.00000000000E+00 0. -1.
         21   -1    0    0  501  502  0.00000000000E+00 -0.00000000000E+00 -0.72762967223E+02  0.72762967223E+02  0.00000000000E+00 0. -1.
         23    2    1    2    0    0  0.36163412154E+02  0.46461940598E+02  0.20533166787E+03  0.23259780458E+03  0.92055095249E+02 0.  0.
         24    2    1    2    0    0  0.41446319057E+02 -0.18754543098E+01  0.64437428297E+02  0.11071371866E+03  0.79900129167E+02 0.  0.
        -11    1    4    4    0    0 -0.17336648086E+01 -0.35312034850E+02  0.27349714685E+02  0.44698459618E+02  0.00000000000E+00 0.  1.
         12    1    4    4    0    0  0.43179983866E+02  0.33436580540E+02  0.37087713613E+02  0.66015259038E+02  0.00000000000E+00 0. -1.
        -11    1    3    3    0    0 -0.30526847025E+02  0.11040641979E+02  0.46272060803E+02  0.56523338326E+02  0.00000000000E+00 0. -1.
         11    1    3    3    0    0  0.66690259179E+02  0.35421298620E+02  0.15905960707E+03  0.17607446625E+03  0.00000000000E+00 0.  1.
          1    1    1    2  501    0 -0.77609731211E+02 -0.44586486289E+02  0.19654500778E+02  0.91638008157E+02  0.00000000000E+00 0. -1.
<scales pt_clust_5="13000.00000" pt_clust_6="13000.00000" pt_clust_7="13000.00000" pt_clust_8="13000.00000" pt_clust_9="89.50545"></scales>
<clustering>
<clus scale="   79.900">  5  6 -1 -1</clus>
<clus scale="   89.505">  2  9  1 -1</clus>
<clus scale="   89.505">  2  5  1 -1</clus>
<clus scale="   92.055">  7  8 -1 -1</clus>
<clus scale="   89.505">  2  5  1 -1</clus>
</clustering>
</event>
<event>
 9    2  0.3745229E-005  0.2538223E+03  0.7546771E-02  0.1110913E+00
         -3   -1    0    0    0  501 -0.00000000000E+00  0.00000000000E+00  0.97199693050E+02  0.97199693050E+02  0.00000000000E+00 0.  1.
         21   -1    0    0  501  502  0.00000000000E+00 -0.00000000000E+00 -0.44312204963E+03  0.44312204963E+03  0.00000000000E+00 0.  1.
         24    2    1    2    0    0  0.44681849499E+02 -0.12101256078E+03 -0.11822870204E+03  0.19285651277E+03  0.81086996440E+02 0.  0.
         23    2    1    2    0    0 -0.13603727853E+02 -0.36011492563E+02 -0.11352138632E+03  0.15084959013E+03  0.91578407291E+02 0.  0.
        -13    1    3    3    0    0  0.60088261572E+02 -0.48200242368E+02 -0.49594048245E+02  0.91615676412E+02  0.00000000000E+00 0.  1.
         14    1    3    3    0    0 -0.15406412073E+02 -0.72812318415E+02 -0.68634653794E+02  0.10124083636E+03  0.00000000000E+00 0. -1.
        -13    1    4    4    0    0 -0.21947687894E+02 -0.65269639859E+02 -0.81017752042E+02  0.10632827957E+03  0.00000000000E+00 0.  1.
         13    1    4    4    0    0  0.83439600407E+01  0.29258147295E+02 -0.32503634280E+02  0.44521310557E+02  0.00000000000E+00 0. -1.
         -4    1    1    2    0  502 -0.31078121646E+02  0.15702405335E+03 -0.11417226822E+03  0.19661563978E+03  0.00000000000E+00 0.  1.
<scales pt_clust_5="13000.00000" pt_clust_6="13000.00000" pt_clust_7="13000.00000" pt_clust_8="13000.00000" pt_clust_9="160.07007"></scales>
<clustering>
<clus scale="   81.087">  5  6 -1 -1</clus>
<clus scale="   91.578">  7  8 -1 -1</clus>
<clus scale="   98.280">  5  7 -1 -1</clus>
<clus scale="  160.070">  2  9  1 -1</clus>
<clus scale="  160.070">  2  5  1 -1</clus>
</clustering>
</event>
<event>
 9    2  0.3745229E-005  0.9636395E+02  0.7546771E-02  0.1295599E+00
          2   -1    0    0  502    0 -0.00000000000E+00  0.00000000000E+00  0.87011085591E+02  0.87011085591E+02  0.00000000000E+00 0. -1.
         21   -1    0    0  501  502  0.00000000000E+00 -0.00000000000E+00 -0.16434268817E+03  0.16434268817E+03  0.00000000000E+00 0.  1.
         24    2    1    2    0    0  0.13454154561E+02 -0.24267120215E+02 -0.30803020373E+02  0.91791695438E+02  0.81896165287E+02 0.  0.
         23    2    1    2    0    0 -0.63301391562E+01 -0.15624297514E+01 -0.74623661125E+02  0.12073875150E+03  0.94692362232E+02 0.  0.
        -13    1    3    3    0    0 -0.65614231629E+01 -0.50259231068E+02 -0.67942023220E+01  0.51139063021E+02  0.00000000000E+00 0.  1.
         14    1    3    3    0    0  0.20015577724E+02  0.25992110853E+02 -0.24008818051E+02  0.40652632417E+02  0.00000000000E+00 0. -1.
        -13    1    4    4    0    0 -0.41221838917E+02  0.10809630954E+02 -0.63663238607E+01  0.43088492717E+02  0.00000000000E+00 0. -1.
         13    1    4    4    0    0  0.34891699761E+02 -0.12372060705E+02 -0.68257337264E+02  0.77650258781E+02  0.00000000000E+00 0.  1.
          1    1    1    2  501    0 -0.71240154050E+01  0.25829549966E+02  0.28095078915E+02  0.38823326830E+02  0.00000000000E+00 0. -1.
<scales pt_clust_5="13000.00000" pt_clust_6="13000.00000" pt_clust_7="13000.00000" pt_clust_8="13000.00000" pt_clust_9="26.79399"></scales>
<clustering>
<clus scale="   26.794">  2  9  1 -1</clus>
<clus scale="   81.896">  5  6 -1 -1</clus>
<clus scale="   83.823">  1  5  2 -1</clus>
<clus scale="   94.692">  7  8 -1 -1</clus>
<clus scale="   26.794">  2  5  1 -1</clus>
</clustering>
</event>
<event>
 9    2  0.3745229E-005  0.1414143E+03  0.7546771E-02  0.1211897E+00
          2   -1    0    0  502    0 -0.00000000000E+00  0.00000000000E+00  0.77588970469E+03  0.77588970469E+03  0.00000000000E+00 0. -1.
         21   -1    0    0  501  502  0.00000000000E+00 -0.00000000000E+00 -0.42534580446E+02  0.42534580446E+02  0.00000000000E+00 0. -1.
         24    2    1    2    0    0 -0.10586554255E+03 -0.74667777929E+02  0.37321446757E+03  0.40518182338E+03  0.90002672376E+02 0.  0.
         23    2    1    2    0    0  0.34278712863E+02  0.85138891529E+02  0.22122059301E+03  0.25661199699E+03  0.92127657202E+02 0.  0.
        -13    1    3    3    0    0 -0.30233086282E+02  0.20218037129E+02  0.82614158554E+02  0.90265761644E+02  0.00000000000E+00 0.  1.
         14    1    3    3    0    0 -0.75632456264E+02 -0.94885815058E+02  0.29060030901E+03  0.31491606173E+03  0.00000000000E+00 0. -1.
        -11    1    4    4    0    0  0.37872604433E+02  0.21174822011E+02  0.16742523480E+03  0.17295640058E+03  0.00000000000E+00 0.  1.
         11    1    4    4    0    0 -0.35938915705E+01  0.63964069517E+02  0.53795358211E+02  0.83655596411E+02  0.00000000000E+00 0. -1.
          1    1    1    2  501    0  0.71586829684E+02 -0.10471113599E+02  0.13892006366E+03  0.15663046477E+03  0.00000000000E+00 0. -1.
<scales pt_clust_5="13000.00000" pt_clust_6="13000.00000" pt_clust_7="13000.00000" pt_clust_8="13000.00000" pt_clust_9="72.34859"></scales>
<clustering>
<clus scale="   72.349">  2  9  1 -1</clus>
<clus scale="   90.003">  5  6 -1 -1</clus>
<clus scale="   92.128">  7  8 -1 -1</clus>
<clus scale="  140.039">  1  5  2 -1</clus>
<clus scale="   72.349">  2  5  1 -1</clus>
</clustering>
</event>
<event>
 9    2  0.3745229E-005  0.9089722E+02  0.7546771E-02  0.1303555E+00
         21   -1    0    0  501  502  0.00000000000E+00  0.00000000000E+00  0.59412119334E+02  0.59412119334E+02  0.00000000000E+00 0.  1.
          2   -1    0    0  502    0 -0.00000000000E+00 -0.00000000000E+00 -0.35440666343E+03  0.35440666343E+03  0.00000000000E+00 0. -1.
         24    2    1    2    0    0  0.12933480083E+02 -0.37101276582E+01 -0.21601976333E+03  0.23181034289E+03  0.83008776451E+02 0.  0.
         23    2    1    2    0    0 -0.66501118745E+02  0.55996330405E+01 -0.55607307544E+02  0.12353536105E+03  0.87835403413E+02 0.  0.
        -13    1    3    3    0    0 -0.16526496187E+02  0.22681042773E+02 -0.27880554787E+02  0.39558565605E+02  0.00000000000E+00 0.  1.
         14    1    3    3    0    0  0.29459976270E+02 -0.26391170431E+02 -0.18813920854E+03  0.19225177729E+03  0.00000000000E+00 0. -1.
        -13    1    4    4    0    0 -0.30330076408E+02 -0.36193734631E+02 -0.48696783383E+02  0.67832710939E+02  0.00000000000E+00 0. -1.
         13    1    4    4    0    0 -0.36171042337E+02  0.41793367672E+02 -0.69105241609E+01  0.55702650110E+02  0.00000000000E+00 0.  1.
          1    1    1    2  501    0  0.53567638662E+02 -0.18895053823E+01 -0.23367473225E+02  0.58473078825E+02  0.00000000000E+00 0. -1.
<scales pt_clust_5="13000.00000" pt_clust_6="13000.00000" pt_clust_7="13000.00000" pt_clust_8="13000.00000" pt_clust_9="53.60095"></scales>
<clustering>
<clus scale="   53.601">  1  9  2 -1</clus>
<clus scale="   83.009">  5  6 -1 -1</clus>
<clus scale="   86.242">  2  5  1 -1</clus>
<clus scale="   87.835">  7  8 -1 -1</clus>
<clus scale="   53.601">  1  5  2 -1</clus>
</clustering>
</event>
<event>
 9    2  0.3745229E-005  0.8863285E+02  0.7546771E-02  0.1310296E+00
         21   -1    0    0  501  502  0.00000000000E+00  0.00000000000E+00  0.68616938424E+03  0.68616938424E+03  0.00000000000E+00 0.  1.
         -1   -1    0    0    0  501 -0.00000000000E+00 -0.00000000000E+00 -0.56598882823E+02  0.56598882823E+02  0.00000000000E+00 0.  1.
         23    2    1    2    0    0 -0.11896393731E+02  0.18060510866E+02 -0.12337928275E+01  0.89356276966E+02  0.86690920816E+02 0.  0.
         24    2    1    2    0    0 -0.52366660866E+02 -0.18859508272E+02  0.27389854506E+03  0.29076602999E+03  0.80165597270E+02 0.  0.
        -13    1    4    4    0    0 -0.68335918229E+02 -0.76915405555E+00  0.15429089968E+03  0.16874854382E+03  0.00000000000E+00 0.  1.
         14    1    4    4    0    0  0.15969257363E+02 -0.18090354217E+02  0.11960764538E+03  0.12201748617E+03  0.00000000000E+00 0. -1.
        -13    1    3    3    0    0  0.21170772127E+02  0.85617753496E+01 -0.34582229144E+02  0.41441961370E+02  0.00000000000E+00 0. -1.
         13    1    3    3    0    0 -0.33067165858E+02  0.94987355164E+01  0.33348436317E+02  0.47914315596E+02  0.00000000000E+00 0.  1.
         -2    1    1    2    0  502  0.64263054596E+02  0.79899740658E+00  0.35690574918E+03  0.36264596011E+03  0.00000000000E+00 0.  1.
<scales pt_clust_5="13000.00000" pt_clust_6="13000.00000" pt_clust_7="13000.00000" pt_clust_8="13000.00000" pt_clust_9="64.26802"></scales>
<clustering>
<clus scale="   64.268">  1  9  2 -1</clus>
<clus scale="   80.166">  5  6 -1 -1</clus>
<clus scale="   82.262">  1  5  2 -1</clus>
<clus scale="   86.691">  7  8 -1 -1</clus>
<clus scale="   64.268">  1  5  2 -1</clus>
</clustering>
</event>
<event>
 9    2  0.3745229E-005  0.9381982E+02  0.7546771E-02  0.1299316E+00
         21   -1    0    0  501  502  0.00000000000E+00  0.00000000000E+00  0.76546345284E+02  0.76546345284E+02  0.00000000000E+00 0.  1.
          2   -1    0    0  502    0 -0.00000000000E+00 -0.00000000000E+00 -0.17160315087E+03  0.17160315087E+03  0.00000000000E+00 0. -1.
         23    2    1    2    0    0 -0.18701692841E+02 -0.18113852178E+01 -0.79581152585E+02  0.12194706221E+03  0.90470391302E+02 0.  0.
         24    2    1    2    0    0  0.26848891251E+02  0.25665215929E+02 -0.33453358859E+02  0.95241490976E+02  0.81069403071E+02 0.  0.
        -13    1    4    4    0    0  0.40231308885E+02  0.78370312714E+01  0.13591604382E+02  0.43182276265E+02  0.00000000000E+00 0.  1.
         14    1    4    4    0    0 -0.13382417634E+02  0.17828184657E+02 -0.47044963241E+02  0.52059214711E+02  0.00000000000E+00 0. -1.
        -11    1    3    3    0    0  0.26110616461E+02  0.21835116158E+02 -0.92622749661E+01  0.35275009952E+02  0.00000000000E+00 0. -1.
         11    1    3    3    0    0 -0.44812309301E+02 -0.23646501376E+02 -0.70318877619E+02  0.86672052253E+02  0.00000000000E+00 0.  1.
          1    1    1    2  501    0 -0.81471984103E+01 -0.23853830711E+02  0.17977705862E+02  0.30960942970E+02  0.00000000000E+00 0. -1.
<scales pt_clust_5="13000.00000" pt_clust_6="13000.00000" pt_clust_7="13000.00000" pt_clust_8="13000.00000" pt_clust_9="25.20679"></scales>
<clustering>
<clus scale="   25.207">  1  9  2 -1</clus>
<clus scale="   81.069">  5  6 -1 -1</clus>
<clus scale="   84.791">  1  5  2 -1</clus>
<clus scale="   90.470">  7  8 -1 -1</clus>
<clus scale="   25.207">  1  5  2 -1</clus>
</clustering>
</event>
<event>
 9    2  0.3745229E-005  0.1100433E+03  0.7546771E-02  0.1265291E+00
         21   -1    0    0  501  502  0.00000000000E+00  0.00000000000E+00  0.79182618612E+02  0.79182618612E+02  0.00000000000E+00 0. -1.
          4   -1    0    0  502    0 -0.00000000000E+00 -0.00000000000E+00 -0.46351976379E+03  0.46351976379E+03  0.00000000000E+00 0. -1.
         24    2    1    2    0    0  0.58095252366E+02  0.31624816125E+02 -0.34409824269E+03  0.35931815276E+03  0.79565991088E+02 0.  0.
         23    2    1    2    0    0 -0.47108313341E+02 -0.31016595308E+01 -0.81919582831E+02  0.13169707064E+03  0.91675988600E+02 0.  0.
        -11    1    3    3    0    0 -0.94614935918E+01  0.28309978356E+02 -0.56802099601E+02  0.64167384663E+02  0.00000000000E+00 0.  1.
         12    1    3    3    0    0  0.67556745958E+02  0.33148377697E+01 -0.28729614309E+03  0.29515076810E+03  0.00000000000E+00 0. -1.
        -11    1    4    4    0    0  0.25217956260E+02 -0.44248430426E+01 -0.49642988445E+01  0.26080046336E+02  0.00000000000E+00 0. -1.
         11    1    4    4    0    0 -0.72326269601E+02  0.13231835118E+01 -0.76955283987E+02  0.10561702430E+03  0.00000000000E+00 0.  1.
          3    1    1    2  501    0 -0.10986939025E+02 -0.28523156595E+02  0.41680680347E+02  0.51687159000E+02  0.00000000000E+00 0. -1.
<scales pt_clust_5="13000.00000" pt_clust_6="13000.00000" pt_clust_7="13000.00000" pt_clust_8="13000.00000" pt_clust_9="30.56605"></scales>
<clustering>
<clus scale="   30.566">  1  9  2 -1</clus>
<clus scale="   79.566">  5  6 -1 -1</clus>
<clus scale="   91.676">  7  8 -1 -1</clus>
<clus scale="  100.179">  2  5  1 -1</clus>
<clus scale="   30.566">  1  5  2 -1</clus>
</clustering>
</event>
<event>
 9    2  0.3745229E-005  0.1060999E+03  0.7546771E-02  0.1274990E+00
         21   -1    0    0  501  502  0.00000000000E+00  0.00000000000E+00  0.34543196922E+03  0.34543196922E+03  0.00000000000E+00 0. -1.
         -3   -1    0    0    0  501 -0.00000000000E+00 -0.00000000000E+00 -0.31020490386E+03  0.31020490386E+03  0.00000000000E+00 0.  1.
         23    2    1    2    0    0  0.41364628175E+02 -0.18484856805E+02 -0.27657873186E+03  0.29616335476E+03  0.95729908528E+02 0.  0.
         24    2    1    2    0    0 -0.61239206049E+02  0.11282404645E+02  0.32074475264E+03  0.33652184982E+03  0.80574351052E+02 0.  0.
        -13    1    4    4    0    0 -0.37439786104E+02 -0.23537983173E+02  0.74073660218E+02  0.86270976426E+02  0.00000000000E+00 0.  1.
         14    1    4    4    0    0 -0.23799419946E+02  0.34820387818E+02  0.24667109242E+03  0.25025087340E+03  0.00000000000E+00 0. -1.
        -11    1    3    3    0    0  0.60382137037E+02  0.11309399222E+02 -0.22771266041E+03  0.23585368493E+03  0.00000000000E+00 0.  1.
         11    1    3    3    0    0 -0.19017508862E+02 -0.29794256026E+02 -0.48866071455E+02  0.60309669829E+02  0.00000000000E+00 0. -1.
         -4    1    1    2    0  502  0.19874577874E+02  0.72024521598E+01 -0.89389554214E+01  0.22951668497E+02  0.00000000000E+00 0.  1.
<scales pt_clust_5="13000.00000" pt_clust_6="13000.00000" pt_clust_7="13000.00000" pt_clust_8="13000.00000" pt_clust_9="21.13941"></scales>
<clustering>
<clus scale="   21.139">  1  9  2 -1</clus>
<clus scale="   80.574">  5  6 -1 -1</clus>
<clus scale="   92.656">  1  5  2 -1</clus>
<clus scale="   95.730">  7  8 -1 -1</clus>
<clus scale="   21.139">  1  5  2 -1</clus>
</clustering>
</event>
<event>
 9    2  0.3745229E-005  0.1161772E+03  0.7546771E-02  0.1257728E+00
         -1   -1    0    0    0  501 -0.00000000000E+00  0.00000000000E+00  0.68298891512E+03  0.68298891512E+03  0.00000000000E+00 0.  1.
         21   -1    0    0  501  502  0.00000000000E+00 -0.00000000000E+00 -0.65128909356E+02  0.65128909356E+02  0.00000000000E+00 0. -1.
         23    2    1    2    0    0 -0.48880321841E+02  0.48771584078E+02  0.43267052461E+03  0.44785726927E+03  0.92759891626E+02 0.  0.
         24    2    1    2    0    0  0.33359144595E+02 -0.74037784989E+02 -0.56216081313E+01  0.10715913200E+03  0.69692545928E+02 0.  0.
        -11    1    4    4    0    0  0.41671826205E+01 -0.70577420925E+02  0.13653949586E+02  0.72006722567E+02  0.00000000000E+00 0.  1.
         12    1    4    4    0    0  0.29191961975E+02 -0.34603640640E+01 -0.19275557718E+02  0.35152409430E+02  0.00000000000E+00 0. -1.
        -13    1    3    3    0    0 -0.43571146300E+01  0.56880059011E+02  0.33970537185E+03  0.34446199387E+03  0.00000000000E+00 0.  1.
         13    1    3    3    0    0 -0.44523207211E+02 -0.81084749336E+01  0.92965152761E+02  0.10339527539E+03  0.00000000000E+00 0. -1.
         -2    1    1    2    0  502  0.15521177246E+02  0.25266200912E+02  0.19081108929E+03  0.19310142321E+03  0.00000000000E+00 0.  1.
<scales pt_clust_5="13000.00000" pt_clust_6="13000.00000" pt_clust_7="13000.00000" pt_clust_8="13000.00000" pt_clust_9="29.65280"></scales>
<clustering>
<clus scale="   29.653">  2  9  1 -1</clus>
<clus scale="   69.693">  5  6 -1 -1</clus>
<clus scale="   92.760">  7  8 -1 -1</clus>
<clus scale="   98.741">  2  5  1 -1</clus>
<clus scale="   29.653">  2  5  1 -1</clus>
</clustering>
</event>
<event>
 9    2  0.3745229E-005  0.3762911E+03  0.7546771E-02  0.1052313E+00
          2   -1    0    0  502    0 -0.00000000000E+00  0.00000000000E+00  0.39006228131E+03  0.39006228131E+03  0.00000000000E+00 0. -1.
         21   -1    0    0  501  502  0.00000000000E+00 -0.00000000000E+00 -0.42163529837E+03  0.42163529837E+03  0.00000000000E+00 0. -1.
         24    2    1    2    0    0  0.10114465852E+03  0.15078751670E+03  0.42460186937E+02  0.20307365378E+03  0.80429622922E+02 0.  0.
         23    2    1    2    0    0  0.44874470309E+02  0.12231102919E+03  0.15647657326E+03  0.22256802429E+03  0.89877146773E+02 0.  0.
        -13    1    3    3    0    0  0.42307082151E+02  0.15835257487E+02 -0.10919102210E+02  0.46474416327E+02  0.00000000000E+00 0.  1.
         14    1    3    3    0    0  0.58837576372E+02  0.13495225922E+03  0.53379289148E+02  0.15659923745E+03  0.00000000000E+00 0. -1.
        -11    1    4    4    0    0  0.40921164453E+02  0.50190889648E+02  0.19359283409E+02  0.67590302248E+02  0.00000000000E+00 0. -1.
         11    1    4    4    0    0  0.39533058565E+01  0.72120139542E+02  0.13711728985E+03  0.15497772205E+03  0.00000000000E+00 0.  1.
          1    1    1    2  501    0 -0.14601912883E+03 -0.27309854589E+03 -0.23050977725E+03  0.38605590160E+03  0.00000000000E+00 0. -1.
<scales pt_clust_5="13000.00000" pt_clust_6="13000.00000" pt_clust_7="13000.00000" pt_clust_8="13000.00000" pt_clust_9="309.68436"></scales>
<clustering>
<clus scale="   80.430">  5  6 -1 -1</clus>
<clus scale="   89.877">  7  8 -1 -1</clus>
<clus scale="  141.601">  5  7 -1 -1</clus>
<clus scale="  309.684">  2  9  1 -1</clus>
<clus scale="  309.684">  2  5  1 -1</clus>
</clustering>
</event>
<event>
 9    2  0.3745229E-005  0.1161988E+03  0.7546771E-02  0.1256122E+00
          2   -1    0    0  502    0 -0.00000000000E+00  0.00000000000E+00  0.38859006556E+03  0.38859006556E+03  0.00000000000E+00 0. -1.
         21   -1    0    0  501  502  0.00000000000E+00 -0.00000000000E+00 -0.57535582764E+02  0.57535582764E+02  0.00000000000E+00 0.  1.
         23    2    1    2    0    0  0.61033860666E+02  0.32549497121E+02  0.25444002061E+03  0.28077946879E+03  0.96502767280E+02 0.  0.
         24    2    1    2    0    0 -0.39358313168E+02 -0.32720636111E+02  0.89260582069E+01  0.94271720828E+02  0.78662354336E+02 0.  0.
        -13    1    4    4    0    0 -0.22258995552E+02 -0.44564407896E+02 -0.24024665350E+02  0.55304917316E+02  0.00000000000E+00 0.  1.
         14    1    4    4    0    0 -0.17099317617E+02  0.11843771785E+02  0.32950723557E+02  0.38966803512E+02  0.00000000000E+00 0. -1.
        -13    1    3    3    0    0  0.43387935950E+02 -0.30404811030E+02  0.10294636447E+03  0.11577961598E+03  0.00000000000E+00 0. -1.
         13    1    3    3    0    0  0.17645924715E+02  0.62954308151E+02  0.15149365614E+03  0.16499985280E+03  0.00000000000E+00 0.  1.
          1    1    1    2  501    0 -0.21675547497E+02  0.17113899049E+00  0.67688403973E+02  0.71074458705E+02  0.00000000000E+00 0. -1.
<scales pt_clust_5="13000.00000" pt_clust_6="13000.00000" pt_clust_7="13000.00000" pt_clust_8="13000.00000" pt_clust_9="21.67623"></scales>
<clustering>
<clus scale="   21.676">  2  9  1 -1</clus>
<clus scale="   78.662">  5  6 -1 -1</clus>
<clus scale="   96.503">  7  8 -1 -1</clus>
<clus scale="  101.868">  2  5  1 -1</clus>
<clus scale="   21.676">  2  5  1 -1</clus>
</clustering>
</event>
<event>
 9    2  0.3745229E-005  0.1274276E+03  0.7546771E-02  0.1232577E+00
          2   -1    0    0  502    0 -0.00000000000E+00  0.00000000000E+00  0.22411587460E+03  0.22411587460E+03  0.00000000000E+00 0. -1.
         21   -1    0    0  501  502  0.00000000000E+00 -0.00000000000E+00 -0.93458468028E+02  0.93458468028E+02  0.00000000000E+00 0.  1.
         24    2    1    2    0    0  0.73671249911E+02 -0.48857821687E+02  0.10944010638E+03  0.16584682997E+03  0.87826501254E+02 0.  0.
         23    2    1    2    0    0 -0.82654459770E+02  0.30534442008E+02  0.90537738597E+01  0.12797049948E+03  0.92359980771E+02 0.  0.
        -13    1    3    3    0    0  0.33696541435E+02 -0.63287608798E+02  0.98731298296E+02  0.12201904604E+03  0.00000000000E+00 0.  1.
         14    1    3    3    0    0  0.39974708476E+02  0.14429787111E+02  0.10708808082E+02  0.43827783932E+02  0.00000000000E+00 0. -1.
        -11    1    4    4    0    0 -0.83465590017E+02 -0.12484443060E+02  0.23656275706E+01  0.84427259989E+02  0.00000000000E+00 0.  1.
         11    1    4    4    0    0  0.81113024659E+00  0.43018885069E+02  0.66881462892E+01  0.43543239494E+02  0.00000000000E+00 0. -1.
          1    1    1    2  501    0  0.89832098595E+01  0.18323379679E+02  0.12163526333E+02  0.23757013177E+02  0.00000000000E+00 0. -1.
<scales pt_clust_5="13000.00000" pt_clust_6="13000.00000" pt_clust_7="13000.00000" pt_clust_8="13000.00000" pt_clust_9="20.40698"></scales>
<clustering>
<clus scale="   20.407">  2  9  1 -1</clus>
<clus scale="   87.827">  5  6 -1 -1</clus>
<clus scale="   92.360">  7  8 -1 -1</clus>
<clus scale="  124.181">  1  5  2 -1</clus>
<clus scale="   20.407">  2  5  1 -1</clus>
</clustering>
</event>
<event>
 9    2  0.3745229E-005  0.2805517E+03  0.7546771E-02  0.1095898E+00
          2   -1    0    0  502    0 -0.00000000000E+00  0.00000000000E+00  0.79687616639E+03  0.79687616639E+03  0.00000000000E+00 0. -1.
         21   -1    0    0  501  502  0.00000000000E+00 -0.00000000000E+00 -0.17184294695E+03  0.17184294695E+03  0.00000000000E+00 0. -1.
         23    2    1    2    0    0 -0.48677683797E+02  0.22618695713E+03  0.30407617412E+03  0.39230448057E+03  0.88940594401E+02 0.  0.
         24    2    1    2    0    0  0.14876129134E+03 -0.30119712497E+03  0.28260524842E+03  0.44559370897E+03  0.76409404843E+02 0.  0.
        -13    1    4    4    0    0  0.72620197490E+01 -0.87904919361E+02  0.81294848504E+02  0.11995359174E+03  0.00000000000E+00 0.  1.
         14    1    4    4    0    0  0.14149927159E+03 -0.21329220561E+03  0.20131039992E+03  0.32564011723E+03  0.00000000000E+00 0. -1.
        -13    1    3    3    0    0 -0.16279152021E+02  0.30099107452E+02  0.70809564253E+01  0.34944341514E+02  0.00000000000E+00 0.  1.
         13    1    3    3    0    0 -0.32398531776E+02  0.19608784968E+03  0.29699521770E+03  0.35736013906E+03  0.00000000000E+00 0. -1.
          1    1    1    2  501    0 -0.10008360754E+03  0.75010167844E+02  0.38351796900E+02  0.13082092380E+03  0.00000000000E+00 0. -1.
<scales pt_clust_5="13000.00000" pt_clust_6="13000.00000" pt_clust_7="13000.00000" pt_clust_8="13000.00000" pt_clust_9="125.07299"></scales>
<clustering>
<clus scale="   76.409">  5  6 -1 -1</clus>
<clus scale="   88.941">  7  8 -1 -1</clus>
<clus scale="  125.073">  2  9  1 -1</clus>
<clus scale="  276.834">  2  5  1 -1</clus>
<clus scale="  125.073">  2  5  1 -1</clus>
</clustering>
</event>
<event>
 9    2  0.3745229E-005  0.1816247E+03  0.7546771E-02  0.1167528E+00
         21   -1    0    0  501  502  0.00000000000E+00  0.00000000000E+00  0.13538190127E+03  0.13538190127E+03  0.00000000000E+00 0.  1.
         -1   -1    0    0    0  501 -0.00000000000E+00 -0.00000000000E+00 -0.42109234373E+03  0.42109234373E+03  0.00000000000E+00 0.  1.
         24    2    1    2    0    0 -0.13148399119E+03 -0.12998199260E+03 -0.12242591881E+03  0.23614054380E+03  0.81184311845E+02 0.  0.
         23    2    1    2    0    0  0.62087636309E+02  0.10790361962E+03 -0.15584750343E+02  0.15565664858E+03  0.92130570898E+02 0.  0.
        -11    1    3    3    0    0 -0.12579384080E+03 -0.11939099659E+03 -0.13421759444E+03  0.21930039468E+03  0.00000000000E+00 0.  1.
         12    1    3    3    0    0 -0.56901503909E+01 -0.10590996006E+02  0.11791675635E+02  0.16840149113E+02  0.00000000000E+00 0. -1.
        -13    1    4    4    0    0  0.59161900414E+02  0.19100098538E+02 -0.23479879478E+02  0.66454864119E+02  0.00000000000E+00 0.  1.
         13    1    4    4    0    0  0.29257358950E+01  0.88803521077E+02  0.78951291354E+01  0.89201784457E+02  0.00000000000E+00 0. -1.
         -2    1    1    2    0  502  0.69396354881E+02  0.22078372983E+02 -0.14769977331E+03  0.16467705262E+03  0.00000000000E+00 0.  1.
<scales pt_clust_5="13000.00000" pt_clust_6="13000.00000" pt_clust_7="13000.00000" pt_clust_8="13000.00000" pt_clust_9="72.82386"></scales>
<clustering>
<clus scale="   72.824">  1  9  2 -1</clus>
<clus scale="   81.184">  5  6 -1 -1</clus>
<clus scale="   92.131">  7  8 -1 -1</clus>
<clus scale="  176.325">  2  5  1 -1</clus>
<clus scale="   72.824">  1  5  2 -1</clus>
</clustering>
</event>
<event>
 9    2  0.3745229E-005  0.1014063E+03  0.7546771E-02  0.1281358E+00
         -3   -1    0    0    0  501 -0.00000000000E+00  0.00000000000E+00  0.22251209211E+03  0.22251209211E+03  0.00000000000E+00 0.  1.
         21   -1    0    0  501  502  0.00000000000E+00 -0.00000000000E+00 -0.62440129905E+02  0.62440129905E+02  0.00000000000E+00 0.  1.
         23    2    1    2    0    0 -0.20407851621E+02 -0.29607989487E+02  0.77651641028E+02  0.12447553082E+03  0.90395060539E+02 0.  0.
         24    2    1    2    0    0  0.46761024228E+02  0.40200079146E+02  0.41484772204E+02  0.11065298961E+03  0.81978399803E+02 0.  0.
        -11    1    4    4    0    0  0.43087138320E+02  0.33721412296E+02 -0.12527225698E+02  0.56129907531E+02  0.00000000000E+00 0.  1.
         12    1    4    4    0    0  0.36738859084E+01  0.64786668503E+01  0.54011997902E+02  0.54523082077E+02  0.00000000000E+00 0. -1.
        -13    1    3    3    0    0 -0.55782997675E+02 -0.25270424229E+02  0.43527089125E+02  0.75132846732E+02  0.00000000000E+00 0. -1.
         13    1    3    3    0    0  0.35375146054E+02 -0.43375652587E+01  0.34124551903E+02  0.49342684091E+02  0.00000000000E+00 0.  1.
         -4    1    1    2    0  502 -0.26353172607E+02 -0.10592089659E+02  0.40935548974E+02  0.49823701585E+02  0.00000000000E+00 0.  1.
<scales pt_clust_5="13000.00000" pt_clust_6="13000.00000" pt_clust_7="13000.00000" pt_clust_8="13000.00000" pt_clust_9="28.40216"></scales>
<clustering>
<clus scale="   28.402">  2  9  1 -1</clus>
<clus scale="   81.978">  5  6 -1 -1</clus>
<clus scale="   90.395">  7  8 -1 -1</clus>
<clus scale="   93.981">  2  5  1 -1</clus>
<clus scale="   28.402">  2  5  1 -1</clus>
</clustering>
</event>
<event>
 9    2  0.3745229E-005  0.1036409E+03  0.7546771E-02  0.1275795E+00
         21   -1    0    0  501  502  0.00000000000E+00  0.00000000000E+00  0.67491058891E+02  0.67491058891E+02  0.00000000000E+00 0. -1.
         -1   -1    0    0    0  501 -0.00000000000E+00 -0.00000000000E+00 -0.48032303131E+03  0.48032303131E+03  0.00000000000E+00 0.  1.
         23    2    1    2    0    0 -0.51483966739E+02  0.55310493315E+01 -0.40938698760E+03  0.42229589592E+03  0.89749243780E+02 0.  0.
         24    2    1    2    0    0  0.48786871937E+02 -0.28401338323E+02 -0.11622969419E+02  0.10108043925E+03  0.83038345897E+02 0.  0.
        -13    1    4    4    0    0 -0.17767376723E+00  0.26219171100E+02  0.26383663349E+01  0.26352181657E+02  0.00000000000E+00 0.  1.
         14    1    4    4    0    0  0.48964545704E+02 -0.54620509424E+02 -0.14261335754E+02  0.74728257595E+02  0.00000000000E+00 0. -1.
        -13    1    3    3    0    0  0.24689490909E+02 -0.85894054166E+01 -0.10471719963E+03  0.10793072198E+03  0.00000000000E+00 0. -1.
         13    1    3    3    0    0 -0.76173457648E+02  0.14120454748E+02 -0.30466978796E+03  0.31436517395E+03  0.00000000000E+00 0.  1.
         -2    1    1    2    0  502  0.26970948027E+01  0.22870288992E+02  0.81779845947E+01  0.24437755031E+02  0.00000000000E+00 0.  1.
<scales pt_clust_5="13000.00000" pt_clust_6="13000.00000" pt_clust_7="13000.00000" pt_clust_8="13000.00000" pt_clust_9="23.02877"></scales>
<clustering>
<clus scale="   23.029">  1  9  2 -1</clus>
<clus scale="   83.038">  5  6 -1 -1</clus>
<clus scale="   89.749">  7  8 -1 -1</clus>
<clus scale="   97.887">  1  5  2 -1</clus>
<clus scale="   23.029">  1  5  2 -1</clus>
</clustering>
</event>
<event>
 9    2  0.3745229E-005  0.1473149E+03  0.7546771E-02  0.1206722E+00
          2   -1    0    0  502    0 -0.00000000000E+00  0.00000000000E+00  0.19132794446E+03  0.19132794446E+03  0.00000000000E+00 0. -1.
         21   -1    0    0  501  502  0.00000000000E+00 -0.00000000000E+00 -0.14521326799E+03  0.14521326799E+03  0.00000000000E+00 0.  1.
         24    2    1    2    0    0 -0.75491838978E+02 -0.60812782574E+02  0.66729638781E+02  0.15687970692E+03  0.10373613389E+03 0.  0.
         23    2    1    2    0    0  0.87953301481E+02  0.77022033491E+02  0.36349485209E+01  0.14794264617E+03  0.90584970177E+02 0.  0.
        -11    1    3    3    0    0  0.18131432410E+02 -0.42923024632E+02  0.19646281589E+02  0.50567887686E+02  0.00000000000E+00 0.  1.
         12    1    3    3    0    0 -0.93623271388E+02 -0.17889757942E+02  0.47083357192E+02  0.10631181924E+03  0.00000000000E+00 0. -1.
        -13    1    4    4    0    0  0.66086795669E+01  0.39572249466E+02 -0.32243758017E+02  0.51471327013E+02  0.00000000000E+00 0.  1.
         13    1    4    4    0    0  0.81344621914E+02  0.37449784025E+02  0.35878706538E+02  0.96471319162E+02  0.00000000000E+00 0. -1.
          1    1    1    2  501    0 -0.12461462503E+02 -0.16209250917E+02 -0.24249910835E+02  0.31718859351E+02  0.00000000000E+00 0. -1.
<scales pt_clust_5="13000.00000" pt_clust_6="13000.00000" pt_clust_7="13000.00000" pt_clust_8="13000.00000" pt_clust_9="20.44573"></scales>
<clustering>
<clus scale="   20.446">  2  9  1 -1</clus>
<clus scale="   90.585">  7  8 -1 -1</clus>
<clus scale="  103.736">  5  6 -1 -1</clus>
<clus scale="  138.370">  2  7  1 -1</clus>
<clus scale="   20.446">  2  5  1 -1</clus>
</clustering>
</event>
<event>
 9    2  0.3745229E-005  0.2175018E+03  0.7546771E-02  0.1135768E+00
          2   -1    0    0  502    0 -0.00000000000E+00  0.00000000000E+00  0.18575288541E+04  0.18575288541E+04  0.00000000000E+00 0. -1.
         21   -1    0    0  501  502  0.00000000000E+00 -0.00000000000E+00 -0.44497325778E+02  0.44497325778E+02  0.00000000000E+00 0. -1.
         24    2    1    2    0    0 -0.46957400945E+02  0.14261977316E+03  0.54056538210E+03  0.56845347100E+03  0.91558828988E+02 0.  0.
         23    2    1    2    0    0  0.11563274935E+03 -0.23124762060E+03  0.10386492624E+04  0.10742629829E+04  0.91663904623E+02 0.  0.
        -13    1    3    3    0    0 -0.67902944570E+02  0.60005190309E+02  0.27434558645E+03  0.28892375041E+03  0.00000000000E+00 0.  1.
         14    1    3    3    0    0  0.20945543625E+02  0.82614582851E+02  0.26621979565E+03  0.27952972059E+03  0.00000000000E+00 0. -1.
        -11    1    4    4    0    0  0.12434966687E+03 -0.17333964487E+03  0.75090075827E+03  0.78061605216E+03  0.00000000000E+00 0. -1.
         11    1    4    4    0    0 -0.87169175206E+01 -0.57907975739E+02  0.28774850411E+03  0.29364693072E+03  0.00000000000E+00 0.  1.
          1    1    1    2  501    0 -0.68675348408E+02  0.88627847444E+02  0.23381688382E+03  0.25930972596E+03  0.00000000000E+00 0. -1.
<scales pt_clust_5="13000.00000" pt_clust_6="13000.00000" pt_clust_7="13000.00000" pt_clust_8="13000.00000" pt_clust_9="112.12136"></scales>
<clustering>
<clus scale="   91.559">  5  6 -1 -1</clus>
<clus scale="   91.664">  7  8 -1 -1</clus>
<clus scale="  112.121">  2  9  1 -1</clus>
<clus scale="  217.458">  1  5  2 -1</clus>
<clus scale="  112.121">  2  5  1 -1</clus>
</clustering>
</event>
<event>
 9    2  0.3745229E-005  0.9151475E+02  0.7546771E-02  0.1306244E+00
         21   -1    0    0  501  502  0.00000000000E+00  0.00000000000E+00  0.60722241793E+02  0.60722241793E+02  0.00000000000E+00 0.  1.
          2   -1    0    0  502    0 -0.00000000000E+00 -0.00000000000E+00 -0.38732981455E+03  0.38732981455E+03  0.00000000000E+00 0. -1.
         23    2    1    2    0    0  0.43342182842E+01  0.14720650457E+02 -0.16084681202E+03  0.18532243038E+03  0.90759149763E+02 0.  0.
         24    2    1    2    0    0 -0.34803971429E+02  0.53753924992E+02 -0.28033369555E+02  0.10593036697E+03  0.79590024242E+02 0.  0.
        -13    1    4    4    0    0 -0.34586295760E+02  0.69096272392E+02 -0.39443943030E+01  0.77369664334E+02  0.00000000000E+00 0.  1.
         14    1    4    4    0    0 -0.21767566931E+00 -0.15342347400E+02 -0.24088975252E+02  0.28560702637E+02  0.00000000000E+00 0. -1.
        -11    1    3    3    0    0 -0.72894027588E+01 -0.37630548569E+02 -0.71137845424E+02  0.80807095170E+02  0.00000000000E+00 0.  1.
         11    1    3    3    0    0  0.11623621043E+02  0.52351199026E+02 -0.89708966599E+02  0.10451533521E+03  0.00000000000E+00 0. -1.
          1    1    1    2  501    0  0.30469753145E+02 -0.68474575449E+02 -0.13772739118E+03  0.15679925899E+03  0.00000000000E+00 0. -1.
<scales pt_clust_5="13000.00000" pt_clust_6="13000.00000" pt_clust_7="13000.00000" pt_clust_8="13000.00000" pt_clust_9="74.94784"></scales>
<clustering>
<clus scale="   74.948">  1  9  2 -1</clus>
<clus scale="   79.590">  5  6 -1 -1</clus>
<clus scale="   80.451">  1  5  2 -1</clus>
<clus scale="   90.759">  7  8 -1 -1</clus>
<clus scale="   74.948">  1  5  2 -1</clus>
</clustering>
</event>
<event>
 9    2  0.3745229E-005  0.1085812E+03  0.7546771E-02  0.1269409E+00
         21   -1    0    0  501  502  0.00000000000E+00  0.00000000000E+00  0.51148072534E+02  0.51148072534E+02  0.00000000000E+00 0.  1.
          2   -1    0    0  502    0 -0.00000000000E+00 -0.00000000000E+00 -0.67763817231E+03  0.67763817231E+03  0.00000000000E+00 0. -1.
         23    2    1    2    0    0 -0.48328964459E+02 -0.16986159303E+02 -0.23532903075E+03  0.25886702965E+03  0.94911368721E+02 0.  0.
         24    2    1    2    0    0  0.80366222149E+01  0.92955240766E+02 -0.79625005645E+02  0.14673274740E+03  0.80530078553E+02 0.  0.
        -11    1    4    4    0    0 -0.47916279084E+01  0.10105512555E+03 -0.48685400998E+02  0.11227362276E+03  0.00000000000E+00 0.  1.
         12    1    4    4    0    0  0.12828250123E+02 -0.80998847839E+01 -0.30939604647E+02  0.34459124633E+02  0.00000000000E+00 0. -1.
        -11    1    3    3    0    0  0.24168829072E+02 -0.23590347225E+02 -0.57045170941E+02  0.66293199565E+02  0.00000000000E+00 0.  1.
         11    1    3    3    0    0 -0.72497793532E+02  0.66041879219E+01 -0.17828385981E+03  0.19257383009E+03  0.00000000000E+00 0. -1.
          1    1    1    2  501    0  0.40292342245E+02 -0.75969081463E+02 -0.31153606338E+03  0.32318646779E+03  0.00000000000E+00 0. -1.
<scales pt_clust_5="13000.00000" pt_clust_6="13000.00000" pt_clust_7="13000.00000" pt_clust_8="13000.00000" pt_clust_9="85.99292"></scales>
<clustering>
<clus scale="   80.530">  5  6 -1 -1</clus>
<clus scale="   85.993">  1  9  2 -1</clus>
<clus scale="   94.911">  7  8 -1 -1</clus>
<clus scale="   96.264">  1  5  2 -1</clus>
<clus scale="   85.993">  1  5  2 -1</clus>
</clustering>
</event>
<event>
 9    2  0.3745229E-005  0.2406100E+03  0.7546771E-02  0.1120631E+00
         21   -1    0    0  501  502  0.00000000000E+00  0.00000000000E+00  0.17153770444E+03  0.17153770444E+03  0.00000000000E+00 0.  1.
          2   -1    0    0  502    0 -0.00000000000E+00 -0.00000000000E+00 -0.81092276430E+03  0.81092276430E+03  0.00000000000E+00 0. -1.
         23    2    1    2    0    0 -0.20668146954E+03  0.77653425909E+02 -0.60864837118E+03  0.65454792634E+03  0.96087791778E+02 0.  0.
         24    2    1    2    0    0  0.23176782734E+03 -0.11784630305E+00 -0.34854096575E+02  0.24631570116E+03  0.75764615155E+02 0.  0.
        -13    1    4    4    0    0  0.21859503921E+03 -0.53220565025E+01 -0.11449785258E+02  0.21895938673E+03  0.00000000000E+00 0.  1.
         14    1    4    4    0    0  0.13172788130E+02  0.52042101994E+01 -0.23404311317E+02  0.27356314430E+02  0.00000000000E+00 0. -1.
        -13    1    3    3    0    0 -0.13372892164E+03 -0.66699090525E+00 -0.34289856348E+03  0.36805338498E+03  0.00000000000E+00 0. -1.
         13    1    3    3    0    0 -0.72952547895E+02  0.78320416815E+02 -0.26574980770E+03  0.28649454136E+03  0.00000000000E+00 0.  1.
          1    1    1    2  501    0 -0.25086357807E+02 -0.77535579606E+02  0.41174079056E+01  0.81596841243E+02  0.00000000000E+00 0. -1.
<scales pt_clust_5="13000.00000" pt_clust_6="13000.00000" pt_clust_7="13000.00000" pt_clust_8="13000.00000" pt_clust_9="81.49289"></scales>
<clustering>
<clus scale="   75.765">  5  6 -1 -1</clus>
<clus scale="   81.493">  1  9  2 -1</clus>
<clus scale="   96.088">  7  8 -1 -1</clus>
<clus scale="  233.239">  1  5  2 -1</clus>
<clus scale="   81.493">  1  5  2 -1</clus>
</clustering>
</event>
<event>
 9    2  0.3745229E-005  0.9324755E+02  0.7546771E-02  0.1301295E+00
          4   -1    0    0  502    0 -0.00000000000E+00  0.00000000000E+00  0.76018462067E+02  0.76018462067E+02  0.00000000000E+00 0. -1.
         21   -1    0    0  501  502  0.00000000000E+00 -0.00000000000E+00 -0.44399506002E+03  0.44399506002E+03  0.00000000000E+00 0. -1.
         23    2    1    2    0    0 -0.11778340743E+02 -0.14154895791E+02  0.35508232806E+02  0.99492360632E+02  0.91097776271E+02 0.  0.
         24    2    1    2    0    0  0.65778995282E+01  0.34329640162E+02 -0.23888538724E+03  0.25460840816E+03  0.80854315365E+02 0.  0.
        -11    1    4    4    0    0  0.22123562768E+01  0.59240646092E+02 -0.13085509627E+03  0.14365724796E+03  0.00000000000E+00 0.  1.
         12    1    4    4    0    0  0.43655432515E+01 -0.24911005930E+02 -0.10803029096E+03  0.11095116020E+03  0.00000000000E+00 0. -1.
        -13    1    3    3    0    0  0.39285091034E+02  0.20770739418E+01  0.16029740306E+02  0.42480409461E+02  0.00000000000E+00 0. -1.
         13    1    3    3    0    0 -0.51063431777E+02 -0.16231969733E+02  0.19478492501E+02  0.57011951171E+02  0.00000000000E+00 0.  1.
          3    1    1    2  501    0  0.52004412145E+01 -0.20174744371E+02 -0.16459944352E+03  0.16591275329E+03  0.00000000000E+00 0. -1.
<scales pt_clust_5="13000.00000" pt_clust_6="13000.00000" pt_clust_7="13000.00000" pt_clust_8="13000.00000" pt_clust_9="20.83422"></scales>
<clustering>
<clus scale="   20.834">  2  9  1 -1</clus>
<clus scale="   80.854">  5  6 -1 -1</clus>
<clus scale="   83.269">  2  5  1 -1</clus>
<clus scale="   91.098">  7  8 -1 -1</clus>
<clus scale="   20.834">  2  5  1 -1</clus>
</clustering>
</event>
<event>
 9    2  0.3745229E-005  0.1741495E+03  0.7546771E-02  0.1195693E+00
         21   -1    0    0  501  502  0.00000000000E+00  0.00000000000E+00  0.96096249981E+02  0.96096249981E+02  0.00000000000E+00 0.  1.
         -1   -1    0    0    0  501 -0.00000000000E+00 -0.00000000000E+00 -0.55049895759E+03  0.55049895759E+03  0.00000000000E+00 0.  1.
         24    2    1    2    0    0  0.14560847840E+01  0.69775733230E+02 -0.35368616550E+02  0.11210003272E+03  0.80278921069E+02 0.  0.
         23    2    1    2    0    0 -0.11602436065E+03  0.48174675154E+02 -0.27191045463E+03  0.31385167718E+03  0.93729015457E+02 0.  0.
        -13    1    3    3    0    0 -0.51030615963E+01  0.86481811874E+02 -0.21082054717E+02  0.89160518470E+02  0.00000000000E+00 0.  1.
         14    1    3    3    0    0  0.65591463803E+01 -0.16706078645E+02 -0.14286561833E+02  0.22939514248E+02  0.00000000000E+00 0. -1.
        -11    1    4    4    0    0 -0.95909905906E+02  0.10508356220E+02 -0.24516311980E+03  0.26346554027E+03  0.00000000000E+00 0.  1.
         11    1    4    4    0    0 -0.20114454739E+02  0.37666318934E+02 -0.26747334836E+02  0.50386136906E+02  0.00000000000E+00 0. -1.
         -2    1    1    2    0  502  0.11456827586E+03 -0.11795040838E+03 -0.14712363642E+03  0.22064349767E+03  0.00000000000E+00 0.  1.
<scales pt_clust_5="13000.00000" pt_clust_6="13000.00000" pt_clust_7="13000.00000" pt_clust_8="13000.00000" pt_clust_9="146.77503"></scales>
<clustering>
<clus scale="   80.279">  5  6 -1 -1</clus>
<clus scale="   93.729">  7  8 -1 -1</clus>
<clus scale="  106.374">  2  5  1 -1</clus>
<clus scale="  146.775">  1  9  2 -1</clus>
<clus scale="  146.775">  1  5  2 -1</clus>
</clustering>
</event>
<event>
 9    2  0.3745229E-005  0.9192570E+02  0.7546771E-02  0.1309583E+00
          2   -1    0    0  502    0 -0.00000000000E+00  0.00000000000E+00  0.73251906709E+02  0.73251906709E+02  0.00000000000E+00 0. -1.
         21   -1    0    0  501  502  0.00000000000E+00 -0.00000000000E+00 -0.22353615165E+03  0.22353615165E+03  0.00000000000E+00 0.  1.
         23    2    1    2    0    0 -0.16905375902E+02 -0.13922608106E+02 -0.55866033593E+02  0.10937868001E+03  0.91449719413E+02 0.  0.
         24    2    1    2    0    0 -0.44341642164E+01 -0.31235281492E+02 -0.10886021339E+03  0.13541724059E+03  0.74107883318E+02 0.  0.
        -11    1    4    4    0    0  0.19162101369E+02 -0.40921733451E+02 -0.97565832179E+02  0.10752146765E+03  0.00000000000E+00 0.  1.
         12    1    4    4    0    0 -0.23596265586E+02  0.96864519592E+01 -0.11294381206E+02  0.27895772941E+02  0.00000000000E+00 0. -1.
        -11    1    3    3    0    0  0.11580572677E+01 -0.45861121909E+02 -0.42812499888E+01  0.46075076786E+02  0.00000000000E+00 0. -1.
         11    1    3    3    0    0 -0.18063433169E+02  0.31938513803E+02 -0.51584783604E+02  0.63303603225E+02  0.00000000000E+00 0.  1.
          1    1    1    2  501    0  0.21339540118E+02  0.45157889598E+02  0.14442002037E+02  0.51992137754E+02  0.00000000000E+00 0. -1.
<scales pt_clust_5="13000.00000" pt_clust_6="13000.00000" pt_clust_7="13000.00000" pt_clust_8="13000.00000" pt_clust_9="49.94611"></scales>
<clustering>
<clus scale="   49.946">  2  9  1 -1</clus>
<clus scale="   74.108">  5  6 -1 -1</clus>
<clus scale="   74.694">  2  5  1 -1</clus>
<clus scale="   91.450">  7  8 -1 -1</clus>
<clus scale="   49.946">  2  5  1 -1</clus>
</clustering>
</event>
<event>
 9    2  0.3745229E-005  0.9528839E+02  0.7546771E-02  0.1296510E+00
         -3   -1    0    0    0  501 -0.00000000000E+00  0.00000000000E+00  0.82705575493E+02  0.82705575493E+02  0.00000000000E+00 0.  1.
         21   -1    0    0  501  502  0.00000000000E+00 -0.00000000000E+00 -0.73377175919E+03  0.73377175919E+03  0.00000000000E+00 0. -1.
         23    2    1    2    0    0  0.35199842344E+00  0.30015550102E+02  0.42610967955E+02  0.10434687345E+03  0.90396450467E+02 0.  0.
         24    2    1    2    0    0 -0.57004273861E+02 -0.27035397812E+02 -0.38017773267E+03  0.39353942664E+03  0.79735637787E+02 0.  0.
        -13    1    4    4    0    0  0.60033725345E+01  0.20097508164E+02 -0.52235805729E+02  0.56289694584E+02  0.00000000000E+00 0.  1.
         14    1    4    4    0    0 -0.63007646396E+02 -0.47132905976E+02 -0.32794192694E+03  0.33724973206E+03  0.00000000000E+00 0. -1.
        -13    1    3    3    0    0  0.32343424453E+02  0.21819620930E+02  0.56383105589E+02  0.68565644157E+02  0.00000000000E+00 0.  1.
         13    1    3    3    0    0 -0.31991426029E+02  0.81959291721E+01 -0.13772137634E+02  0.35781229288E+02  0.00000000000E+00 0. -1.
         -4    1    1    2    0  502  0.56652275438E+02 -0.29801522900E+01 -0.31349941899E+03  0.31859103460E+03  0.00000000000E+00 0.  1.
<scales pt_clust_5="13000.00000" pt_clust_6="13000.00000" pt_clust_7="13000.00000" pt_clust_8="13000.00000" pt_clust_9="56.73061"></scales>
<clustering>
<clus scale="   56.731">  2  9  1 -1</clus>
<clus scale="   79.736">  5  6 -1 -1</clus>
<clus scale="   85.242">  2  5  1 -1</clus>
<clus scale="   90.396">  7  8 -1 -1</clus>
<clus scale="   56.731">  2  5  1 -1</clus>
</clustering>
</event>
<event>
 9    2  0.3745229E-005  0.1062706E+03  0.7546771E-02  0.1270962E+00
          2   -1    0    0  502    0 -0.00000000000E+00  0.00000000000E+00  0.47839138114E+03  0.47839138114E+03  0.00000000000E+00 0. -1.
         21   -1    0    0  501  502  0.00000000000E+00 -0.00000000000E+00 -0.10522181298E+03  0.10522181298E+03  0.00000000000E+00 0. -1.
         23    2    1    2    0    0  0.22343787174E+01  0.52371667466E+02  0.43327225194E+03  0.44634733171E+03  0.93559137575E+02 0.  0.
         24    2    1    2    0    0  0.54448984990E+01 -0.32281522305E+02 -0.23701942452E+02  0.94985852937E+02  0.85958051282E+02 0.  0.
        -11    1    4    4    0    0  0.83351533286E+01 -0.53145071753E+02 -0.41074484655E+02  0.67682986949E+02  0.00000000000E+00 0.  1.
         12    1    4    4    0    0 -0.28902548297E+01  0.20863549448E+02  0.17372542203E+02  0.27302865988E+02  0.00000000000E+00 0. -1.
        -13    1    3    3    0    0  0.35092775238E+02  0.57892781433E+02  0.35303054586E+03  0.35946299298E+03  0.00000000000E+00 0. -1.
         13    1    3    3    0    0 -0.32858396521E+02 -0.55211139668E+01  0.80241706084E+02  0.86884338730E+02  0.00000000000E+00 0.  1.
          1    1    1    2  501    0 -0.76792772164E+01 -0.20090145161E+02 -0.36400741337E+02  0.42280009473E+02  0.00000000000E+00 0. -1.
<scales pt_clust_5="13000.00000" pt_clust_6="13000.00000" pt_clust_7="13000.00000" pt_clust_8="13000.00000" pt_clust_9="21.50779"></scales>
<clustering>
<clus scale="   21.508">  2  9  1 -1</clus>
<clus scale="   85.958">  5  6 -1 -1</clus>
<clus scale="   93.559">  7  8 -1 -1</clus>
<clus scale="   99.644">  2  5  1 -1</clus>
<clus scale="   21.508">  2  5  1 -1</clus>
</clustering>
</event>
<event>
 9    2  0.3745229E-005  0.1759840E+03  0.7546771E-02  0.1173326E+00
          2   -1    0    0  502    0 -0.00000000000E+00  0.00000000000E+00  0.42266075538E+03  0.42266075538E+03  0.00000000000E+00 0. -1.
         21   -1    0    0  501  502  0.00000000000E+00 -0.00000000000E+00 -0.10236808257E+03  0.10236808257E+03  0.00000000000E+00 0.  1.
         23    2    1    2    0    0 -0.62405788427E+02  0.10610108661E+03  0.10858418825E+03  0.18762108222E+03  0.90880259395E+02 0.  0.
         24    2    1    2    0    0  0.70701862527E+02 -0.16754935935E+03  0.18096365944E+03  0.26819822358E+03  0.78172245132E+02 0.  0.
        -13    1    4    4    0    0  0.53196990805E+02 -0.13715176098E+03  0.94383222589E+02  0.17478191576E+03  0.00000000000E+00 0.  1.
         14    1    4    4    0    0  0.17504871722E+02 -0.30397598370E+02  0.86580436854E+02  0.93416307819E+02  0.00000000000E+00 0. -1.
        -11    1    3    3    0    0 -0.65119509099E+02  0.31920155882E+02  0.27165005958E+02  0.77442781236E+02  0.00000000000E+00 0. -1.
         11    1    3    3    0    0  0.27137206723E+01  0.74180930726E+02  0.81419182288E+02  0.11017830098E+03  0.00000000000E+00 0.  1.
          1    1    1    2  501    0 -0.82960741006E+01  0.61448272744E+02  0.30744825115E+02  0.69209532148E+02  0.00000000000E+00 0. -1.
<scales pt_clust_5="13000.00000" pt_clust_6="13000.00000" pt_clust_7="13000.00000" pt_clust_8="13000.00000" pt_clust_9="62.00577"></scales>
<clustering>
<clus scale="   62.006">  2  9  1 -1</clus>
<clus scale="   78.172">  5  6 -1 -1</clus>
<clus scale="   90.880">  7  8 -1 -1</clus>
<clus scale="  169.771">  2  5  1 -1</clus>
<clus scale="   62.006">  2  5  1 -1</clus>
</clustering>
</event>
<event>
 9    2  0.3745229E-005  0.1025677E+03  0.7546771E-02  0.1284292E+00
         -1   -1    0    0    0  501 -0.00000000000E+00  0.00000000000E+00  0.19919246629E+03  0.19919246629E+03  0.00000000000E+00 0.  1.
         21   -1    0    0  501  502  0.00000000000E+00 -0.00000000000E+00 -0.13878388212E+03  0.13878388212E+03  0.00000000000E+00 0. -1.
         23    2    1    2    0    0 -0.22564654364E+02 -0.36656618913E+02  0.12533854289E+03  0.16135777011E+03  0.92052747400E+02 0.  0.
         24    2    1    2    0    0 -0.13550376352E+01  0.55886715488E+02  0.12972942798E+02  0.92887996408E+02  0.73039178095E+02 0.  0.
        -13    1    4    4    0    0  0.19413235693E+02 -0.71948050535E+01  0.16363067315E+02  0.26389181719E+02  0.00000000000E+00 0.  1.
         14    1    4    4    0    0 -0.20768273328E+02  0.63081520541E+02 -0.33901245173E+01  0.66498814689E+02  0.00000000000E+00 0. -1.
        -13    1    3    3    0    0  0.25063009089E+02  0.62972297217E+01  0.70268324849E+01  0.26780326763E+02  0.00000000000E+00 0. -1.
         13    1    3    3    0    0 -0.47627663453E+02 -0.42953848635E+02  0.11831171041E+03  0.13457744335E+03  0.00000000000E+00 0.  1.
         -2    1    1    2    0  502  0.23919691999E+02 -0.19230096574E+02 -0.77902901514E+02  0.83730581892E+02  0.00000000000E+00 0.  1.
<scales pt_clust_5="13000.00000" pt_clust_6="13000.00000" pt_clust_7="13000.00000" pt_clust_8="13000.00000" pt_clust_9="30.69118"></scales>
<clustering>
<clus scale="   30.691">  2  9  1 -1</clus>
<clus scale="   73.039">  5  6 -1 -1</clus>
<clus scale="   85.914">  2  5  1 -1</clus>
<clus scale="   92.053">  7  8 -1 -1</clus>
<clus scale="   30.691">  2  5  1 -1</clus>
</clustering>
</event>
<event>
 9    2  0.3745229E-005  0.1505015E+03  0.7546771E-02  0.1200410E+00
          2   -1    0    0  502    0 -0.00000000000E+00  0.00000000000E+00  0.56378694455E+03  0.56378694455E+03  0.00000000000E+00 0. -1.
         21   -1    0    0  501  502  0.00000000000E+00 -0.00000000000E+00 -0.66428777162E+02  0.66428777162E+02  0.00000000000E+00 0.  1.
         24    2    1    2    0    0 -0.81028256156E+02 -0.61395609174E+02  0.16322845815E+03  0.20865867064E+03  0.80993284679E+02 0.  0.
         23    2    1    2    0    0  0.14479484274E+03  0.74798595578E+02  0.19393978238E+03  0.26696392961E+03  0.84242056846E+02 0.  0.
        -13    1    3    3    0    0 -0.90943239273E+02 -0.52100240335E+02  0.10312214776E+03  0.14703497941E+03  0.00000000000E+00 0.  1.
         14    1    3    3    0    0  0.99149831170E+01 -0.92953688395E+01  0.60106310392E+02  0.61623691231E+02  0.00000000000E+00 0. -1.
        -11    1    4    4    0    0  0.60541318119E+02 -0.12597116008E+02  0.59263747602E+02  0.85651213133E+02  0.00000000000E+00 0. -1.
         11    1    4    4    0    0  0.84253524617E+02  0.87395711587E+02  0.13467603477E+03  0.18131271648E+03  0.00000000000E+00 0.  1.
          1    1    1    2  501    0 -0.63766586580E+02 -0.13402986404E+02  0.14018992686E+03  0.15459312145E+03  0.00000000000E+00 0. -1.
<scales pt_clust_5="13000.00000" pt_clust_6="13000.00000" pt_clust_7="13000.00000" pt_clust_8="13000.00000" pt_clust_9="65.15997"></scales>
<clustering>
<clus scale="   65.160">  2  9  1 -1</clus>
<clus scale="   80.993">  5  6 -1 -1</clus>
<clus scale="   84.242">  7  8 -1 -1</clus>
<clus scale="  148.707">  1  5  2 -1</clus>
<clus scale="   65.160">  2  5  1 -1</clus>
</clustering>
</event>
<event>
 9    2  0.3745229E-005  0.1283181E+03  0.7546771E-02  0.1233154E+00
          2   -1    0    0  502    0 -0.00000000000E+00  0.00000000000E+00  0.49755237965E+02  0.49755237965E+02  0.00000000000E+00 0. -1.
         21   -1    0    0  501  502  0.00000000000E+00 -0.00000000000E+00 -0.50684238021E+03  0.50684238021E+03  0.00000000000E+00 0.  1.
         24    2    1    2    0    0 -0.28880756226E+02 -0.90809549757E+02 -0.83087825409E+02  0.15032120211E+03  0.81316693650E+02 0.  0.
         23    2    1    2    0    0 -0.23967209138E+01  0.76430778772E+02 -0.24794727567E+03  0.27560833766E+03  0.92923065277E+02 0.  0.
        -13    1    3    3    0    0 -0.25355020283E+01 -0.26863690477E+02 -0.76179078525E+02  0.80816697789E+02  0.00000000000E+00 0.  1.
         14    1    3    3    0    0 -0.26345254198E+02 -0.63945859279E+02 -0.69087468836E+01  0.69504504323E+02  0.00000000000E+00 0. -1.
        -11    1    4    4    0    0  0.36713047127E+02  0.16284861575E+02 -0.44811828316E+02  0.60175946216E+02  0.00000000000E+00 0. -1.
         11    1    4    4    0    0 -0.39109768041E+02  0.60145917198E+02 -0.20313544735E+03  0.21543239144E+03  0.00000000000E+00 0.  1.
          1    1    1    2  501    0  0.31277477140E+02  0.14378770984E+02 -0.12605204116E+03  0.13066807840E+03  0.00000000000E+00 0. -1.
<scales pt_clust_5="13000.00000" pt_clust_6="13000.00000" pt_clust_7="13000.00000" pt_clust_8="13000.00000" pt_clust_9="34.42426"></scales>
<clustering>
<clus scale="   34.424">  2  9  1 -1</clus>
<clus scale="   81.317">  5  6 -1 -1</clus>
<clus scale="   92.923">  7  8 -1 -1</clus>
<clus scale="  120.180">  1  5  2 -1</clus>
<clus scale="   34.424">  2  5  1 -1</clus>
</clustering>
</event>
<event>
 9    2  0.3745229E-005  0.1418587E+03  0.7546771E-02  0.1234337E+00
         21   -1    0    0  501  502  0.00000000000E+00  0.00000000000E+00  0.61907590288E+02  0.61907590288E+02  0.00000000000E+00 0.  1.
          2   -1    0    0  502    0 -0.00000000000E+00 -0.00000000000E+00 -0.88870933178E+03  0.88870933178E+03  0.00000000000E+00 0. -1.
         24    2    1    2    0    0  0.19433340047E+01 -0.28038516152E+02 -0.62031391919E+00  0.86815270928E+02  0.82137516044E+02 0.  0.
         23    2    1    2    0    0 -0.10984510006E+02 -0.91265865873E+02 -0.49306612085E+03  0.50985096813E+03  0.91562505608E+02 0.  0.
        -11    1    3    3    0    0 -0.47143498444E+01 -0.55194472857E+02  0.11102426160E+02  0.56497068907E+02  0.00000000000E+00 0.  1.
         12    1    3    3    0    0  0.66576838491E+01  0.27155956705E+02 -0.11722740079E+02  0.30318202021E+02  0.00000000000E+00 0. -1.
        -13    1    4    4    0    0 -0.15545290569E+02  0.14496733995E+02 -0.50323557980E+02  0.54628489300E+02  0.00000000000E+00 0.  1.
         13    1    4    4    0    0  0.45607805628E+01 -0.10576259987E+03 -0.44274256287E+03  0.45522247883E+03  0.00000000000E+00 0. -1.
          1    1    1    2  501    0  0.90411760018E+01  0.11930438203E+03 -0.33311530671E+03  0.35395068301E+03  0.00000000000E+00 0. -1.
<scales pt_clust_5="13000.00000" pt_clust_6="13000.00000" pt_clust_7="13000.00000" pt_clust_8="13000.00000" pt_clust_9="108.35220"></scales>
<clustering>
<clus scale="   82.138">  5  6 -1 -1</clus>
<clus scale="   86.813">  2  5  1 -1</clus>
<clus scale="   91.563">  7  8 -1 -1</clus>
<clus scale="  108.352">  1  9  2 -1</clus>
<clus scale="  108.352">  1  5  2 -1</clus>
</clustering>
</event>
<event>
 9    2  0.3745229E-005  0.2344397E+03  0.7546771E-02  0.1153463E+00
         21   -1    0    0  501  502  0.00000000000E+00  0.00000000000E+00  0.19725855134E+03  0.19725855134E+03  0.00000000000E+00 0.  1.
         -1   -1    0    0    0  501 -0.00000000000E+00 -0.00000000000E+00 -0.52352276684E+03  0.52352276684E+03  0.00000000000E+00 0.  1.
         24    2    1    2    0    0 -0.17933018465E+02  0.84585162908E+02  0.50888299626E+02  0.12458177680E+03  0.73856327668E+02 0.  0.
         23    2    1    2    0    0  0.22043930777E+03 -0.22737212719E+02 -0.14660742919E+03  0.28317397885E+03  0.97894303995E+02 0.  0.
        -11    1    3    3    0    0  0.74939745040E+01  0.50305769783E+02 -0.83785474002E+01  0.51546388660E+02  0.00000000000E+00 0.  1.
         12    1    3    3    0    0 -0.25426992969E+02  0.34279393125E+02  0.59266847026E+02  0.73035388141E+02  0.00000000000E+00 0. -1.
        -11    1    4    4    0    0  0.31987604947E+02 -0.38678831730E+02 -0.49827455406E+02  0.70725060668E+02  0.00000000000E+00 0. -1.
         11    1    4    4    0    0  0.18845170282E+03  0.15941619011E+02 -0.96779973780E+02  0.21244891818E+03  0.00000000000E+00 0.  1.
         -2    1    1    2    0  502 -0.20250628930E+03 -0.61847950189E+02 -0.23054508594E+03  0.31302556253E+03  0.00000000000E+00 0.  1.
<scales pt_clust_5="13000.00000" pt_clust_6="13000.00000" pt_clust_7="13000.00000" pt_clust_8="13000.00000" pt_clust_9="213.02281"></scales>
<clustering>
<clus scale="   73.856">  5  6 -1 -1</clus>
<clus scale="   97.894">  7  8 -1 -1</clus>
<clus scale="  113.715">  2  5  1 -1</clus>
<clus scale="  213.023">  1  9  2 -1</clus>
<clus scale="  213.023">  1  5  2 -1</clus>
</clustering>
</event>
<event>
 9    2  0.3745229E-005  0.1254941E+03  0.7546771E-02  0.1236551E+00
          2   -1    0    0  502    0 -0.00000000000E+00  0.00000000000E+00  0.65699466832E+02  0.65699466832E+02  0.00000000000E+00 0. -1.
         21   -1    0    0  501  502  0.00000000000E+00 -0.00000000000E+00 -0.70953682445E+03  0.70953682445E+03  0.00000000000E+00 0.  1.
         23    2    1    2    0    0  0.13962391770E+02  0.75560948944E+02 -0.17457034878E+03  0.21174797478E+03  0.91967346168E+02 0.  0.
         24    2    1    2    0    0 -0.82480423457E+02  0.36665511913E+02 -0.39295340013E+03  0.41145783911E+03  0.82084095112E+02 0.  0.
        -13    1    4    4    0    0 -0.46212267300E+02  0.54555779202E+02 -0.32149921872E+03  0.32935338821E+03  0.00000000000E+00 0.  1.
         14    1    4    4    0    0 -0.36268156157E+02 -0.17890267289E+02 -0.71454181419E+02  0.82104450896E+02  0.00000000000E+00 0. -1.
        -13    1    3    3    0    0  0.43848741158E+02  0.77931736550E+02 -0.13830832984E+03  0.16469748561E+03  0.00000000000E+00 0. -1.
         13    1    3    3    0    0 -0.29886349389E+02 -0.23707876067E+01 -0.36262018947E+02  0.47050489177E+02  0.00000000000E+00 0.  1.
          1    1    1    2  501    0  0.68518031688E+02 -0.11222646086E+03 -0.76313608704E+02  0.15203047739E+03  0.00000000000E+00 0. -1.
<scales pt_clust_5="13000.00000" pt_clust_6="13000.00000" pt_clust_7="13000.00000" pt_clust_8="13000.00000" pt_clust_9="94.92623"></scales>
<clustering>
<clus scale="   82.084">  5  6 -1 -1</clus>
<clus scale="   91.967">  7  8 -1 -1</clus>
<clus scale="  119.843">  1  7  2 -1</clus>
<clus scale="   94.926">  2  9  1 -1</clus>
<clus scale="   94.926">  2  5  1 -1</clus>
</clustering>
</event>
<event>
 9    2  0.3745229E-005  0.1895797E+03  0.7546771E-02  0.1171111E+00
         21   -1    0    0  501  502  0.00000000000E+00  0.00000000000E+00  0.55712454943E+02  0.55712454943E+02  0.00000000000E+00 0.  1.
         -3   -1    0    0    0  501 -0.00000000000E+00 -0.00000000000E+00 -0.12819341572E+04  0.12819341572E+04  0.00000000000E+00 0.  1.
         23    2    1    2    0    0  0.10552859207E+03 -0.27176105746E+02 -0.23918394855E+03  0.27858488073E+03  0.92334988282E+02 0.  0.
         24    2    1    2    0    0 -0.13500013296E+03 -0.13989465560E+03 -0.61828878725E+03  0.65315901981E+03  0.80871071179E+02 0.  0.
        -11    1    4    4    0    0 -0.98764314081E+02 -0.10708530782E+03 -0.32955703734E+03  0.36031860034E+03  0.00000000000E+00 0.  1.
         12    1    4    4    0    0 -0.36235818881E+02 -0.32809347778E+02 -0.28873174991E+03  0.29284041947E+03  0.00000000000E+00 0. -1.
        -13    1    3    3    0    0  0.41974085911E+02 -0.13464718978E+02 -0.17270900312E+02  0.47343495254E+02  0.00000000000E+00 0.  1.
         13    1    3    3    0    0  0.63554506161E+02 -0.13711386769E+02 -0.22191304824E+03  0.23124138548E+03  0.00000000000E+00 0. -1.
         -4    1    1    2    0  502  0.29471540890E+02  0.16707076135E+03 -0.36874896647E+03  0.40590271161E+03  0.00000000000E+00 0.  1.
<scales pt_clust_5="13000.00000" pt_clust_6="13000.00000" pt_clust_7="13000.00000" pt_clust_8="13000.00000" pt_clust_9="171.46527"></scales>
<clustering>
<clus scale="   80.871">  5  6 -1 -1</clus>
<clus scale="   92.335">  7  8 -1 -1</clus>
<clus scale="  142.831">  2  7  1 -1</clus>
<clus scale="  171.465">  1  9  2 -1</clus>
<clus scale="  171.465">  1  5  2 -1</clus>
</clustering>
</event>
<event>
 9    2  0.3745229E-005  0.2589826E+03  0.7546771E-02  0.1107756E+00
          2   -1    0    0  502    0 -0.00000000000E+00  0.00000000000E+00  0.21106030681E+04  0.21106030681E+04  0.00000000000E+00 0. -1.
         21   -1    0    0  501  502  0.00000000000E+00 -0.00000000000E+00 -0.31300185271E+02  0.31300185271E+02  0.00000000000E+00 0.  1.
         24    2    1    2    0    0  0.84978896457E+02  0.62140529207E+02  0.36372554182E+03  0.38801190880E+03  0.84700138042E+02 0.  0.
         23    2    1    2    0    0  0.89013535254E+02  0.46503608529E+02  0.31632770974E+03  0.33968610997E+03  0.72370147818E+02 0.  0.
        -13    1    3    3    0    0  0.63593981194E+02  0.81874082786E+02  0.31052555080E+03  0.32737391095E+03  0.00000000000E+00 0.  1.
         14    1    3    3    0    0  0.21384915263E+02 -0.19733553580E+02  0.53199991025E+02  0.60637997846E+02  0.00000000000E+00 0. -1.
        -11    1    4    4    0    0  0.33066904808E+02  0.16763293959E+02  0.33891139193E+02  0.50229847041E+02  0.00000000000E+00 0.  1.
         11    1    4    4    0    0  0.55946630446E+02  0.29740314570E+02  0.28243657054E+03  0.28945626293E+03  0.00000000000E+00 0. -1.
          1    1    1    2  501    0 -0.17399243171E+03 -0.10864413774E+03  0.13992496313E+04  0.14142052346E+04  0.00000000000E+00 0. -1.
<scales pt_clust_5="13000.00000" pt_clust_6="13000.00000" pt_clust_7="13000.00000" pt_clust_8="13000.00000" pt_clust_9="205.12669"></scales>
<clustering>
<clus scale="   72.370">  7  8 -1 -1</clus>
<clus scale="   84.700">  5  6 -1 -1</clus>
<clus scale="   86.118">  5  7 -1 -1</clus>
<clus scale="  205.127">  2  9  1 -1</clus>
<clus scale="  205.127">  2  5  1 -1</clus>
</clustering>
</event>
<event>
 9    2  0.3745229E-005  0.1217161E+03  0.7546771E-02  0.1242378E+00
          2   -1    0    0  502    0 -0.00000000000E+00  0.00000000000E+00  0.74296493545E+03  0.74296493545E+03  0.00000000000E+00 0. -1.
         21   -1    0    0  501  502  0.00000000000E+00 -0.00000000000E+00 -0.43823222150E+02  0.43823222150E+02  0.00000000000E+00 0. -1.
         24    2    1    2    0    0 -0.52514250117E+02 -0.57432158436E+02  0.53442644387E+03  0.54654313843E+03  0.83914116667E+02 0.  0.
         23    2    1    2    0    0  0.51446088144E+02  0.87317144829E+02  0.99699443114E+02  0.16868168321E+03  0.90788476836E+02 0.  0.
        -11    1    3    3    0    0  0.17421573041E+02 -0.33649417037E+02  0.12932347884E+03  0.13476036751E+03  0.00000000000E+00 0.  1.
         12    1    3    3    0    0 -0.69935823158E+02 -0.23782741399E+02  0.40510296503E+03  0.41178277092E+03  0.00000000000E+00 0. -1.
        -13    1    4    4    0    0 -0.19559850291E+02  0.25133453154E+02  0.56548260707E+02  0.64899799690E+02  0.00000000000E+00 0.  1.
         13    1    4    4    0    0  0.71005938435E+02  0.62183691674E+02  0.43151182407E+02  0.10378188352E+03  0.00000000000E+00 0. -1.
          1    1    1    2  501    0  0.10681619735E+01 -0.29884986392E+02  0.65015826317E+02  0.71563335957E+02  0.00000000000E+00 0. -1.
<scales pt_clust_5="13000.00000" pt_clust_6="13000.00000" pt_clust_7="13000.00000" pt_clust_8="13000.00000" pt_clust_9="29.90408"></scales>
<clustering>
<clus scale="   29.904">  2  9  1 -1</clus>
<clus scale="   83.914">  5  6 -1 -1</clus>
<clus scale="   90.788">  7  8 -1 -1</clus>
<clus scale="  116.678">  1  5  2 -1</clus>
<clus scale="   29.904">  2  5  1 -1</clus>
</clustering>
</event>
<event>
 9    2  0.3745229E-005  0.1328282E+03  0.7546771E-02  0.1224945E+00
          2   -1    0    0  502    0 -0.00000000000E+00  0.00000000000E+00  0.21085031042E+03  0.21085031042E+03  0.00000000000E+00 0. -1.
         21   -1    0    0  501  502  0.00000000000E+00 -0.00000000000E+00 -0.28981481291E+03  0.28981481291E+03  0.00000000000E+00 0.  1.
         23    2    1    2    0    0 -0.42058942274E+02 -0.56337095464E+02 -0.18458489110E+02  0.11645187899E+03  0.90980774620E+02 0.  0.
         24    2    1    2    0    0  0.11080024646E+03  0.13514507796E+03 -0.15102215787E+03  0.24590475791E+03  0.84383476337E+02 0.  0.
        -11    1    4    4    0    0  0.12461362175E+03  0.11868227032E+03 -0.13945719173E+03  0.22150021296E+03  0.00000000000E+00 0.  1.
         12    1    4    4    0    0 -0.13813375289E+02  0.16462807641E+02 -0.11564966144E+02  0.24404544950E+02  0.00000000000E+00 0. -1.
        -11    1    3    3    0    0 -0.31589856096E+02 -0.81664936865E+02 -0.13353363737E+02  0.88574224492E+02  0.00000000000E+00 0.  1.
         11    1    3    3    0    0 -0.10469086178E+02  0.25327841401E+02 -0.51051253731E+01  0.27877654502E+02  0.00000000000E+00 0. -1.
          1    1    1    2  501    0 -0.68741304189E+02 -0.78807982495E+02  0.90516144493E+02  0.13830848644E+03  0.00000000000E+00 0. -1.
<scales pt_clust_5="13000.00000" pt_clust_6="13000.00000" pt_clust_7="13000.00000" pt_clust_8="13000.00000" pt_clust_9="104.57569"></scales>
<clustering>
<clus scale="   84.383">  5  6 -1 -1</clus>
<clus scale="   90.981">  7  8 -1 -1</clus>
<clus scale="  104.576">  2  9  1 -1</clus>
<clus scale="  128.399">  2  5  1 -1</clus>
<clus scale="  104.576">  2  5  1 -1</clus>
</clustering>
</event>
<event>
 9    2  0.3745229E-005  0.1110102E+03  0.7546771E-02  0.1263783E+00
          2   -1    0    0  502    0 -0.00000000000E+00  0.00000000000E+00  0.10371859319E+04  0.10371859319E+04  0.00000000000E+00 0. -1.
         21   -1    0    0  501  502  0.00000000000E+00 -0.00000000000E+00 -0.19274987098E+02  0.19274987098E+02  0.00000000000E+00 0. -1.
         24    2    1    2    0    0  0.26787448904E+02 -0.52026860942E+02  0.32789367276E+03  0.34206806571E+03  0.77922649217E+02 0.  0.
         23    2    1    2    0    0 -0.79927974644E+02  0.20847383555E+02  0.43559446158E+03  0.45261615118E+03  0.91081012389E+02 0.  0.
        -11    1    3    3    0    0 -0.22299367283E+02 -0.29836976431E+02  0.78051093875E+02  0.86483988106E+02  0.00000000000E+00 0.  1.
         12    1    3    3    0    0  0.49086816187E+02 -0.22189884511E+02  0.24984257889E+03  0.25558407760E+03  0.00000000000E+00 0. -1.
        -13    1    4    4    0    0 -0.80369788543E+02  0.43515721350E+02  0.40078789094E+03  0.41107645814E+03  0.00000000000E+00 0. -1.
         13    1    4    4    0    0  0.44181389878E+00 -0.22668337795E+02  0.34806570642E+02  0.41539693039E+02  0.00000000000E+00 0.  1.
          1    1    1    2  501    0  0.53140525740E+02  0.31179477387E+02  0.25442281050E+03  0.26177670215E+03  0.00000000000E+00 0. -1.
<scales pt_clust_5="13000.00000" pt_clust_6="13000.00000" pt_clust_7="13000.00000" pt_clust_8="13000.00000" pt_clust_9="61.61233"></scales>
<clustering>
<clus scale="   61.612">  2  9  1 -1</clus>
<clus scale="   77.923">  5  6 -1 -1</clus>
<clus scale="   91.081">  7  8 -1 -1</clus>
<clus scale="  100.496">  1  5  2 -1</clus>
<clus scale="   61.612">  2  5  1 -1</clus>
</clustering>
</event>
<event>
 9    2  0.3745229E-005  0.9282821E+02  0.7546771E-02  0.1300797E+00
          2   -1    0    0  502    0 -0.00000000000E+00  0.00000000000E+00  0.25877221620E+03  0.25877221620E+03  0.00000000000E+00 0. -1.
         21   -1    0    0  501  502  0.00000000000E+00 -0.00000000000E+00 -0.62835082852E+02  0.62835082852E+02  0.00000000000E+00 0. -1.
         24    2    1    2    0    0 -0.22814217470E+01  0.45392839449E+01  0.40877818645E+02  0.91465997416E+02  0.81665308683E+02 0.  0.
         23    2    1    2    0    0 -0.12395139714E+02 -0.48818386688E+02  0.48187827263E+02  0.11353274610E+03  0.89614414988E+02 0.  0.
        -11    1    3    3    0    0 -0.26264378296E+02 -0.25373087939E+02  0.38481832217E+02  0.53051508646E+02  0.00000000000E+00 0.  1.
         12    1    3    3    0    0  0.23982956549E+02  0.29912371884E+02  0.23959864275E+01  0.38414488771E+02  0.00000000000E+00 0. -1.
        -11    1    4    4    0    0 -0.20104136765E+02 -0.35475293523E-01 -0.20643743722E+02  0.28815650755E+02  0.00000000000E+00 0.  1.
         11    1    4    4    0    0  0.77089970517E+01 -0.48782911395E+02  0.68831570985E+02  0.84717095347E+02  0.00000000000E+00 0. -1.
          1    1    1    2  501    0  0.14676561461E+02  0.44279102744E+02  0.10687148744E+03  0.11660855554E+03  0.00000000000E+00 0. -1.
<scales pt_clust_5="13000.00000" pt_clust_6="13000.00000" pt_clust_7="13000.00000" pt_clust_8="13000.00000" pt_clust_9="46.64807"></scales>
<clustering>
<clus scale="   46.648">  2  9  1 -1</clus>
<clus scale="   81.665">  5  6 -1 -1</clus>
<clus scale="   85.180">  1  5  2 -1</clus>
<clus scale="   89.614">  7  8 -1 -1</clus>
<clus scale="   46.648">  2  5  1 -1</clus>
</clustering>
</event>
<event>
 9    2  0.3745229E-005  0.9855783E+02  0.7546771E-02  0.1292069E+00
         21   -1    0    0  501  502  0.00000000000E+00  0.00000000000E+00  0.81860517342E+02  0.81860517342E+02  0.00000000000E+00 0.  1.
          2   -1    0    0  502    0 -0.00000000000E+00 -0.00000000000E+00 -0.23990393582E+03  0.23990393582E+03  0.00000000000E+00 0. -1.
         24    2    1    2    0    0  0.11445235772E+02 -0.10307826453E+02 -0.10682241039E+03  0.13527193846E+03  0.81548913334E+02 0.  0.
         23    2    1    2    0    0 -0.13220495569E+01  0.41994438096E+02  0.20471185407E+02  0.10745903531E+03  0.96763082792E+02 0.  0.
        -13    1    3    3    0    0 -0.35986775440E+01  0.35001977520E+02 -0.42746636672E+02  0.55365728182E+02  0.00000000000E+00 0.  1.
         14    1    3    3    0    0  0.15043913316E+02 -0.45309803973E+02 -0.64075773719E+02  0.79906210282E+02  0.00000000000E+00 0. -1.
        -13    1    4    4    0    0  0.18339749040E+02 -0.27608289648E+02  0.74058236144E+01  0.33961894464E+02  0.00000000000E+00 0. -1.
         13    1    4    4    0    0 -0.19661798597E+02  0.69602727745E+02  0.13065361793E+02  0.73497140845E+02  0.00000000000E+00 0.  1.
          1    1    1    2  501    0 -0.10123186215E+02 -0.31686611643E+02 -0.71692193498E+02  0.79033479394E+02  0.00000000000E+00 0. -1.
<scales pt_clust_5="13000.00000" pt_clust_6="13000.00000" pt_clust_7="13000.00000" pt_clust_8="13000.00000" pt_clust_9="33.26442"></scales>
<clustering>
<clus scale="   33.264">  1  9  2 -1</clus>
<clus scale="   81.549">  5  6 -1 -1</clus>
<clus scale="   83.671">  2  5  1 -1</clus>
<clus scale="   96.763">  7  8 -1 -1</clus>
<clus scale="   33.264">  1  5  2 -1</clus>
</clustering>
</event>
<event>
 9    2  0.3745229E-005  0.1095926E+03  0.7546771E-02  0.1266458E+00
         21   -1    0    0  501  502  0.00000000000E+00  0.00000000000E+00  0.19643334254E+03  0.19643334254E+03  0.00000000000E+00 0.  1.
          2   -1    0    0  502    0 -0.00000000000E+00 -0.00000000000E+00 -0.23205424491E+03  0.23205424491E+03  0.00000000000E+00 0. -1.
         23    2    1    2    0    0 -0.11515723412E+02  0.49675218959E+02  0.56483659533E+01  0.10384897428E+03  0.90291008177E+02 0.  0.
         24    2    1    2    0    0 -0.45415907161E+02 -0.91726603425E+02  0.10264206753E+03  0.16426404510E+03  0.77271651254E+02 0.  0.
        -11    1    4    4    0    0 -0.62958225362E+02 -0.45410653202E+02  0.52026254611E+02  0.93448363998E+02  0.00000000000E+00 0.  1.
         12    1    4    4    0    0  0.17542318201E+02 -0.46315950223E+02  0.50615812914E+02  0.70815681102E+02  0.00000000000E+00 0. -1.
        -11    1    3    3    0    0 -0.31919100794E+02 -0.15246542978E+02  0.54856834857E+01  0.35796351651E+02  0.00000000000E+00 0. -1.
         11    1    3    3    0    0  0.20403377382E+02  0.64921761937E+02  0.16268246757E+00  0.68052622633E+02  0.00000000000E+00 0.  1.
          1    1    1    2  501    0  0.56931630573E+02  0.42051384466E+02 -0.14391133585E+03  0.16037456806E+03  0.00000000000E+00 0. -1.
<scales pt_clust_5="13000.00000" pt_clust_6="13000.00000" pt_clust_7="13000.00000" pt_clust_8="13000.00000" pt_clust_9="70.77807"></scales>
<clustering>
<clus scale="   70.778">  1  9  2 -1</clus>
<clus scale="   77.272">  5  6 -1 -1</clus>
<clus scale="   90.291">  7  8 -1 -1</clus>
<clus scale="   99.141">  1  5  2 -1</clus>
<clus scale="   70.778">  1  5  2 -1</clus>
</clustering>
</event>
<event>
 9    2  0.3745229E-005  0.9847854E+02  0.7546771E-02  0.1289190E+00
          2   -1    0    0  502    0 -0.00000000000E+00  0.00000000000E+00  0.73977346151E+02  0.73977346151E+02  0.00000000000E+00 0. -1.
         21   -1    0    0  501  502  0.00000000000E+00 -0.00000000000E+00 -0.23805421409E+03  0.23805421409E+03  0.00000000000E+00 0.  1.
         23    2    1    2    0    0  0.60040809171E+02  0.27713630726E+02 -0.59095881852E+02  0.12665755783E+03  0.90426044972E+02 0.  0.
         24    2    1    2    0    0 -0.27341818475E+00 -0.14777535642E+02 -0.92726779158E+02  0.12300695046E+03  0.79460707093E+02 0.  0.
        -13    1    4    4    0    0  0.64928799173E+01 -0.46834145057E+02 -0.62989720970E+02  0.78761028312E+02  0.00000000000E+00 0.  1.
         14    1    4    4    0    0 -0.67662981021E+01  0.32056609416E+02 -0.29737058189E+02  0.44245922150E+02  0.00000000000E+00 0. -1.
        -11    1    3    3    0    0  0.42184144258E+02 -0.29298187290E+02 -0.35443977914E+02  0.62403216068E+02  0.00000000000E+00 0. -1.
         11    1    3    3    0    0  0.17856664913E+02  0.57011818016E+02 -0.23651903938E+02  0.64254341761E+02  0.00000000000E+00 0.  1.
          1    1    1    2  501    0 -0.59767390986E+02 -0.12936095084E+02 -0.12254206926E+02  0.62367051948E+02  0.00000000000E+00 0. -1.
<scales pt_clust_5="13000.00000" pt_clust_6="13000.00000" pt_clust_7="13000.00000" pt_clust_8="13000.00000" pt_clust_9="61.15135"></scales>
<clustering>
<clus scale="   61.151">  2  9  1 -1</clus>
<clus scale="   79.461">  5  6 -1 -1</clus>
<clus scale="   88.516">  2  5  1 -1</clus>
<clus scale="   90.426">  7  8 -1 -1</clus>
<clus scale="   61.151">  2  5  1 -1</clus>
</clustering>
</event>
<event>
 9    2  0.3745229E-005  0.1109543E+03  0.7546771E-02  0.1262298E+00
          2   -1    0    0  502    0 -0.00000000000E+00  0.00000000000E+00  0.68107310951E+03  0.68107310951E+03  0.00000000000E+00 0. -1.
         21   -1    0    0  501  502  0.00000000000E+00 -0.00000000000E+00 -0.78563051917E+02  0.78563051917E+02  0.00000000000E+00 0.  1.
         23    2    1    2    0    0 -0.18827170271E+02 -0.67792543150E+02  0.59503627008E+03  0.60604786135E+03  0.90970084601E+02 0.  0.
         24    2    1    2    0    0 -0.13067576171E+02  0.85660663189E+01 -0.10410175606E+02  0.83983080837E+02  0.81857480242E+02 0.  0.
        -11    1    4    4    0    0  0.26632526066E+02 -0.35806948260E+01 -0.28076495991E+02  0.38863896449E+02  0.00000000000E+00 0.  1.
         12    1    4    4    0    0 -0.39700102237E+02  0.12146761145E+02  0.17666320385E+02  0.45119184388E+02  0.00000000000E+00 0. -1.
        -11    1    3    3    0    0 -0.11382492972E+02  0.22053287311E+02  0.12261624784E+03  0.12510256937E+03  0.00000000000E+00 0.  1.
         11    1    3    3    0    0 -0.74446772986E+01 -0.89845830461E+02  0.47242002223E+03  0.48094529198E+03  0.00000000000E+00 0. -1.
          1    1    1    2  501    0  0.31894746442E+02  0.59226476831E+02  0.17883963120E+02  0.69605219239E+02  0.00000000000E+00 0. -1.
<scales pt_clust_5="13000.00000" pt_clust_6="13000.00000" pt_clust_7="13000.00000" pt_clust_8="13000.00000" pt_clust_9="67.26849"></scales>
<clustering>
<clus scale="   67.268">  2  9  1 -1</clus>
<clus scale="   81.857">  5  6 -1 -1</clus>
<clus scale="   90.970">  7  8 -1 -1</clus>
<clus scale="  103.614">  2  5  1 -1</clus>
<clus scale="   67.268">  2  5  1 -1</clus>
</clustering>
</event>
<event>
 9    2  0.3745229E-005  0.1264625E+03  0.7546771E-02  0.1235363E+00
         -1   -1    0    0    0  501 -0.00000000000E+00  0.00000000000E+00  0.90722940708E+02  0.90722940708E+02  0.00000000000E+00 0.  1.
         21   -1    0    0  501  502  0.00000000000E+00 -0.00000000000E+00 -0.32128844613E+03  0.32128844613E+03  0.00000000000E+00 0. -1.
         24    2    1    2    0    0  0.68428313595E+02 -0.40404831920E+02 -0.25672178690E+02  0.11503801688E+03  0.79118266058E+02 0.  0.
         23    2    1    2    0    0 -0.11346518355E+03  0.16713186571E+02 -0.88208416202E+02  0.16967457947E+03  0.88628774935E+02 0.  0.
        -13    1    3    3    0    0  0.37433990227E+02  0.21130415378E+02 -0.61364072918E+01  0.43421809874E+02  0.00000000000E+00 0.  1.
         14    1    3    3    0    0  0.30994323368E+02 -0.61535247298E+02 -0.19535771399E+02  0.71616207001E+02  0.00000000000E+00 0. -1.
        -13    1    4    4    0    0 -0.33914698081E+02  0.32229587260E+02  0.39424313418E+01  0.46952058589E+02  0.00000000000E+00 0. -1.
         13    1    4    4    0    0 -0.79550485470E+02 -0.15516400689E+02 -0.92150847544E+02  0.12272252088E+03  0.00000000000E+00 0.  1.
         -2    1    1    2    0  502  0.45036869956E+02  0.23691645349E+02 -0.11668491053E+03  0.12729879049E+03  0.00000000000E+00 0.  1.
<scales pt_clust_5="13000.00000" pt_clust_6="13000.00000" pt_clust_7="13000.00000" pt_clust_8="13000.00000" pt_clust_9="50.88825"></scales>
<clustering>
<clus scale="   50.888">  2  9  1 -1</clus>
<clus scale="   79.118">  5  6 -1 -1</clus>
<clus scale="   88.629">  7  8 -1 -1</clus>
<clus scale="  119.989">  1  5  2 -1</clus>
<clus scale="   50.888">  2  5  1 -1</clus>
</clustering>
</event>
<event>
 9    2  0.3745229E-005  0.1516568E+03  0.7546771E-02  0.1201332E+00
         21   -1    0    0  501  502  0.00000000000E+00  0.00000000000E+00  0.54583544644E+02  0.54583544644E+02  0.00000000000E+00 0. -1.
          2   -1    0    0  502    0 -0.00000000000E+00 -0.00000000000E+00 -0.73812338392E+03  0.73812338392E+03  0.00000000000E+00 0. -1.
         24    2    1    2    0    0 -0.12520413652E+03  0.22579341788E+02 -0.44313697486E+03  0.46800421585E+03  0.80446659906E+02 0.  0.
         23    2    1    2    0    0  0.77687543697E+02 -0.61158533382E+02 -0.95918938933E+02  0.16778940754E+03  0.95797295287E+02 0.  0.
        -11    1    3    3    0    0 -0.53020536595E+02  0.27045006960E+01 -0.31625181415E+03  0.32067694269E+03  0.00000000000E+00 0.  1.
         12    1    3    3    0    0 -0.72183599929E+02  0.19874841092E+02 -0.12688516071E+03  0.14732727316E+03  0.00000000000E+00 0. -1.
        -13    1    4    4    0    0  0.35837427858E+02  0.18171270173E+02 -0.57188034229E+01  0.40585970579E+02  0.00000000000E+00 0.  1.
         13    1    4    4    0    0  0.41850115839E+02 -0.79329803556E+02 -0.90200135510E+02  0.12720343696E+03  0.00000000000E+00 0. -1.
          1    1    1    2  501    0  0.47516592826E+02  0.38579191594E+02 -0.14448392549E+03  0.15691330518E+03  0.00000000000E+00 0. -1.
<scales pt_clust_5="13000.00000" pt_clust_6="13000.00000" pt_clust_7="13000.00000" pt_clust_8="13000.00000" pt_clust_9="61.20608"></scales>
<clustering>
<clus scale="   61.206">  1  9  2 -1</clus>
<clus scale="   80.447">  5  6 -1 -1</clus>
<clus scale="   95.797">  7  8 -1 -1</clus>
<clus scale="  142.458">  2  5  1 -1</clus>
<clus scale="   61.206">  1  5  2 -1</clus>
</clustering>
</event>
<event>
 9    2  0.3745229E-005  0.9488725E+02  0.7546771E-02  0.1291637E+00
         21   -1    0    0  501  502  0.00000000000E+00  0.00000000000E+00  0.82228774495E+02  0.82228774495E+02  0.00000000000E+00 0. -1.
          2   -1    0    0  502    0 -0.00000000000E+00 -0.00000000000E+00 -0.93120022334E+03  0.93120022334E+03  0.00000000000E+00 0. -1.
         23    2    1    2    0    0 -0.14638439706E+02 -0.27315290781E+02 -0.17831029145E+03  0.20280962968E+03  0.91524733416E+02 0.  0.
         24    2    1    2    0    0 -0.78465460367E+02  0.80753880371E+01  0.18503337590E+02  0.11492819298E+03  0.81511199707E+02 0.  0.
        -11    1    4    4    0    0 -0.70093901559E+02  0.13629798592E+02 -0.20789287407E+02  0.74371506078E+02  0.00000000000E+00 0.  1.
         12    1    4    4    0    0 -0.83715588080E+01 -0.55544105544E+01  0.39292624997E+02  0.40556686904E+02  0.00000000000E+00 0. -1.
        -13    1    3    3    0    0  0.17983875837E+02  0.15811665672E+02 -0.98675590769E+01  0.25899754508E+02  0.00000000000E+00 0.  1.
         13    1    3    3    0    0 -0.32622315543E+02 -0.43126956452E+02 -0.16844273238E+03  0.17690987517E+03  0.00000000000E+00 0. -1.
          1    1    1    2  501    0  0.93103900073E+02  0.19239902744E+02 -0.68916449498E+03  0.69569117517E+03  0.00000000000E+00 0. -1.
<scales pt_clust_5="13000.00000" pt_clust_6="13000.00000" pt_clust_7="13000.00000" pt_clust_8="13000.00000" pt_clust_9="95.07113"></scales>
<clustering>
<clus scale="   81.511">  5  6 -1 -1</clus>
<clus scale="   91.525">  7  8 -1 -1</clus>
<clus scale="   95.071">  1  9  2 -1</clus>
<clus scale="   95.071">  1  5  2 -1</clus>
<clus scale="   94.887">  1  5  2 -1</clus>
</clustering>
</event>
<event>
 9    2  0.3745229E-005  0.1064126E+03  0.7546771E-02  0.1273770E+00
         21   -1    0    0  501  502  0.00000000000E+00  0.00000000000E+00  0.60672814689E+02  0.60672814689E+02  0.00000000000E+00 0. -1.
          2   -1    0    0  502    0 -0.00000000000E+00 -0.00000000000E+00 -0.47290694220E+03  0.47290694220E+03  0.00000000000E+00 0. -1.
         23    2    1    2    0    0 -0.66400996849E+01  0.50464088534E+02 -0.38366591751E+03  0.39875199015E+03  0.95983843635E+02 0.  0.
         24    2    1    2    0    0 -0.42263880998E+01 -0.30248348725E+02 -0.52175957862E+02  0.10190235935E+03  0.82030087803E+02 0.  0.
        -11    1    4    4    0    0  0.10655810735E+02 -0.52601453743E+02 -0.52455391429E+02  0.75046834233E+02  0.00000000000E+00 0.  1.
         12    1    4    4    0    0 -0.14882198835E+02  0.22353105018E+02  0.27943356747E+00  0.26855525116E+02  0.00000000000E+00 0. -1.
        -13    1    3    3    0    0  0.39396174335E+02  0.29204261887E+02 -0.26813379654E+03  0.27258151132E+03  0.00000000000E+00 0. -1.
         13    1    3    3    0    0 -0.46036274020E+02  0.21259826647E+02 -0.11553212097E+03  0.12617047884E+03  0.00000000000E+00 0.  1.
          1    1    1    2  501    0  0.10866487785E+02 -0.20215739809E+02  0.23607747857E+02  0.32925407388E+02  0.00000000000E+00 0. -1.
<scales pt_clust_5="13000.00000" pt_clust_6="13000.00000" pt_clust_7="13000.00000" pt_clust_8="13000.00000" pt_clust_9="22.95118"></scales>
<clustering>
<clus scale="   22.951">  1  9  2 -1</clus>
<clus scale="   82.030">  5  6 -1 -1</clus>
<clus scale="   94.020">  1  5  2 -1</clus>
<clus scale="   95.984">  7  8 -1 -1</clus>
<clus scale="   22.951">  1  5  2 -1</clus>
</clustering>
</event>
<event>
 9    2  0.3745229E-005  0.1029367E+03  0.7546771E-02  0.1279686E+00
         21   -1    0    0  501  502  0.00000000000E+00  0.00000000000E+00  0.17806567191E+03  0.17806567191E+03  0.00000000000E+00 0. -1.
          4   -1    0    0  502    0 -0.00000000000E+00 -0.00000000000E+00 -0.13899585176E+03  0.13899585176E+03  0.00000000000E+00 0. -1.
         23    2    1    2    0    0 -0.33492605879E+02 -0.51311393133E+01 -0.60445818105E+02  0.11535131025E+03  0.92217919147E+02 0.  0.
         24    2    1    2    0    0  0.75596543898E+02 -0.49812298630E+01  0.21895875951E+02  0.11282923060E+03  0.80692972397E+02 0.  0.
        -11    1    4    4    0    0  0.16804438039E+02  0.17912619941E+02 -0.24363430994E+02  0.34595199967E+02  0.00000000000E+00 0.  1.
         12    1    4    4    0    0  0.58792105860E+02 -0.22893849804E+02  0.46259306945E+02  0.78234030635E+02  0.00000000000E+00 0. -1.
        -13    1    3    3    0    0 -0.19767196611E+02  0.38165860225E+02 -0.43914364974E+01  0.43204856938E+02  0.00000000000E+00 0.  1.
         13    1    3    3    0    0 -0.13725409269E+02 -0.43296999538E+02 -0.56054381608E+02  0.72146453316E+02  0.00000000000E+00 0. -1.
          3    1    1    2  501    0 -0.42103938019E+02  0.10112369176E+02  0.77619762303E+02  0.88880982820E+02  0.00000000000E+00 0. -1.
<scales pt_clust_5="13000.00000" pt_clust_6="13000.00000" pt_clust_7="13000.00000" pt_clust_8="13000.00000" pt_clust_9="43.30129"></scales>
<clustering>
<clus scale="   43.301">  1  9  2 -1</clus>
<clus scale="   80.693">  5  6 -1 -1</clus>
<clus scale="   92.218">  7  8 -1 -1</clus>
<clus scale="   92.753">  1  5  2 -1</clus>
<clus scale="   43.301">  1  5  2 -1</clus>
</clustering>
</event>
<event>
 9    2  0.3745229E-005  0.1654297E+03  0.7546771E-02  0.1198045E+00
         -1   -1    0    0    0  501 -0.00000000000E+00  0.00000000000E+00  0.58824912968E+03  0.58824912968E+03  0.00000000000E+00 0.  1.
         21   -1    0    0  501  502  0.00000000000E+00 -0.00000000000E+00 -0.24214058154E+03  0.24214058154E+03  0.00000000000E+00 0.  1.
         24    2    1    2    0    0 -0.19386351109E+02  0.83344557278E+02  0.88395986654E+02  0.14734595223E+03  0.81085346058E+02 0.  0.
         23    2    1    2    0    0  0.14020495013E+03 -0.14758857080E+02  0.43000801863E+03  0.46171401248E+03  0.91638863657E+02 0.  0.
        -13    1    3    3    0    0 -0.54892099400E+01  0.45999478583E+02  0.96171338496E+02  0.10674741123E+03  0.00000000000E+00 0.  1.
         14    1    3    3    0    0 -0.13897141169E+02  0.37345078695E+02 -0.77753518422E+01  0.40598541004E+02  0.00000000000E+00 0. -1.
        -13    1    4    4    0    0  0.97817387810E+02 -0.43581157873E+02  0.20897207270E+03  0.23481244824E+03  0.00000000000E+00 0.  1.
         13    1    4    4    0    0  0.42387562316E+02  0.28822300793E+02  0.22103594592E+03  0.22690156423E+03  0.00000000000E+00 0. -1.
         -2    1    1    2    0  502 -0.12081859902E+03 -0.68585700198E+02 -0.17229545714E+03  0.22132974652E+03  0.00000000000E+00 0.  1.
<scales pt_clust_5="13000.00000" pt_clust_6="13000.00000" pt_clust_7="13000.00000" pt_clust_8="13000.00000" pt_clust_9="137.72909"></scales>
<clustering>
<clus scale="   81.085">  5  6 -1 -1</clus>
<clus scale="   91.639">  7  8 -1 -1</clus>
<clus scale="  117.885">  1  5  2 -1</clus>
<clus scale="  137.729">  2  9  1 -1</clus>
<clus scale="  137.729">  2  5  1 -1</clus>
</clustering>
</event>
<event>
 9    2  0.3745229E-005  0.1164698E+03  0.7546771E-02  0.1259995E+00
          2   -1    0    0  502    0 -0.00000000000E+00  0.00000000000E+00  0.60356449134E+03  0.60356449134E+03  0.00000000000E+00 0. -1.
         21   -1    0    0  501  502  0.00000000000E+00 -0.00000000000E+00 -0.98930259672E+02  0.98930259672E+02  0.00000000000E+00 0.  1.
         23    2    1    2    0    0  0.17692498409E+02 -0.26604511816E+01  0.16212116577E+03  0.18726122210E+03  0.91996686950E+02 0.  0.
         24    2    1    2    0    0  0.78645221191E+02 -0.80299476615E+01 -0.38923172711E+02  0.12167432756E+03  0.83905171106E+02 0.  0.
        -11    1    4    4    0    0  0.71128570895E+02 -0.25653699608E+02 -0.57495790657E+02  0.94990272367E+02  0.00000000000E+00 0.  1.
         12    1    4    4    0    0  0.75166502962E+01  0.17623751946E+02  0.18572617946E+02  0.26684055196E+02  0.00000000000E+00 0. -1.
        -11    1    3    3    0    0 -0.35543394273E+02 -0.14805875517E+02  0.56696850451E+02  0.68535244053E+02  0.00000000000E+00 0.  1.
         11    1    3    3    0    0  0.53235892682E+02  0.12145424335E+02  0.10542431532E+03  0.11872597805E+03  0.00000000000E+00 0. -1.
          1    1    1    2  501    0 -0.96337719600E+02  0.10690398843E+02  0.38143623860E+03  0.39355920134E+03  0.00000000000E+00 0. -1.
<scales pt_clust_5="13000.00000" pt_clust_6="13000.00000" pt_clust_7="13000.00000" pt_clust_8="13000.00000" pt_clust_9="80.77831"></scales>
<clustering>
<clus scale="   83.905">  5  6 -1 -1</clus>
<clus scale="   91.997">  7  8 -1 -1</clus>
<clus scale="   93.720">  1  7  2 -1</clus>
<clus scale="   80.778">  2  9  1 -1</clus>
<clus scale="   80.778">  2  5  1 -1</clus>
</clustering>
</event>
<event>
 9    2  0.3745229E-005  0.1033977E+03  0.7546771E-02  0.1278163E+00
         -1   -1    0    0    0  501 -0.00000000000E+00  0.00000000000E+00  0.21249068034E+03  0.21249068034E+03  0.00000000000E+00 0.  1.
         21   -1    0    0  501  502  0.00000000000E+00 -0.00000000000E+00 -0.11997528056E+03  0.11997528056E+03  0.00000000000E+00 0. -1.
         24    2    1    2    0    0 -0.17615507966E+02 -0.45796251542E+02  0.12718494314E+03  0.15970022979E+03  0.83189848284E+02 0.  0.
         23    2    1    2    0    0  0.55082273126E+02 -0.19271513799E+01 -0.24687521154E+02  0.11127652519E+03  0.93462402236E+02 0.  0.
        -11    1    3    3    0    0  0.15951525392E+02 -0.55928972177E+02  0.57997676948E+02  0.82135446809E+02  0.00000000000E+00 0.  1.
         12    1    3    3    0    0 -0.33567033358E+02  0.10132720636E+02  0.69187266189E+02  0.77564782980E+02  0.00000000000E+00 0. -1.
        -13    1    4    4    0    0 -0.22974225779E+02 -0.15385045961E+02  0.19261030384E+01  0.27716864222E+02  0.00000000000E+00 0.  1.
         13    1    4    4    0    0  0.78056498906E+02  0.13457894581E+02 -0.26613624192E+02  0.83559660965E+02  0.00000000000E+00 0. -1.
         -2    1    1    2    0  502 -0.37466765160E+02  0.47723402921E+02 -0.99820222011E+01  0.61489205924E+02  0.00000000000E+00 0.  1.
<scales pt_clust_5="13000.00000" pt_clust_6="13000.00000" pt_clust_7="13000.00000" pt_clust_8="13000.00000" pt_clust_9="60.67357"></scales>
<clustering>
<clus scale="   60.674">  2  9  1 -1</clus>
<clus scale="   83.190">  5  6 -1 -1</clus>
<clus scale="   93.462">  7  8 -1 -1</clus>
<clus scale="   94.215">  1  5  2 -1</clus>
<clus scale="   60.674">  2  5  1 -1</clus>
</clustering>
</event>
<event>
 9    2  0.3745229E-005  0.1006643E+03  0.7546771E-02  0.1283697E+00
         21   -1    0    0  501  502  0.00000000000E+00  0.00000000000E+00  0.16519851881E+03  0.16519851881E+03  0.00000000000E+00 0.  1.
          2   -1    0    0  502    0 -0.00000000000E+00 -0.00000000000E+00 -0.16937334899E+03  0.16937334899E+03  0.00000000000E+00 0. -1.
         24    2    1    2    0    0  0.40632480904E+02  0.12190689388E+02 -0.12205597232E+03  0.15322175994E+03  0.82338544609E+02 0.  0.
         23    2    1    2    0    0 -0.34692952541E+02  0.21706725960E+02  0.10238437257E+03  0.14360805399E+03  0.92010491329E+02 0.  0.
        -11    1    3    3    0    0 -0.12291360827E+02  0.21513374060E+02 -0.62476587498E+01  0.25552613453E+02  0.00000000000E+00 0.  1.
         12    1    3    3    0    0  0.52923841732E+02 -0.93226846720E+01 -0.11580831357E+03  0.12766914648E+03  0.00000000000E+00 0. -1.
        -13    1    4    4    0    0  0.25905748295E+02  0.28061912289E+02  0.27476024450E+02  0.47047961014E+02  0.00000000000E+00 0. -1.
         13    1    4    4    0    0 -0.60598700836E+02 -0.63551863287E+01  0.74908348125E+02  0.96560092974E+02  0.00000000000E+00 0.  1.
          1    1    1    2  501    0 -0.59395283633E+01 -0.33897415348E+02  0.15496769560E+02  0.37742053882E+02  0.00000000000E+00 0. -1.
<scales pt_clust_5="13000.00000" pt_clust_6="13000.00000" pt_clust_7="13000.00000" pt_clust_8="13000.00000" pt_clust_9="34.41385"></scales>
<clustering>
<clus scale="   34.414">  1  9  2 -1</clus>
<clus scale="   82.339">  5  6 -1 -1</clus>
<clus scale="   91.908">  2  5  1 -1</clus>
<clus scale="   92.010">  7  8 -1 -1</clus>
<clus scale="   34.414">  1  5  2 -1</clus>
</clustering>
</event>
<event>
 9    2  0.3745229E-005  0.9118218E+02  0.7546771E-02  0.1305561E+00
          2   -1    0    0  502    0 -0.00000000000E+00  0.00000000000E+00  0.44700427609E+03  0.44700427609E+03  0.00000000000E+00 0. -1.
         21   -1    0    0  501  502  0.00000000000E+00 -0.00000000000E+00 -0.96445523266E+02  0.96445523266E+02  0.00000000000E+00 0. -1.
         23    2    1    2    0    0 -0.35253454585E+01  0.88139285546E+01  0.33678012153E+03  0.34892959501E+03  0.90779395315E+02 0.  0.
         24    2    1    2    0    0 -0.38652472430E+02  0.28655812096E+01  0.76123899021E+02  0.11834729789E+03  0.81908544938E+02 0.  0.
        -11    1    4    4    0    0 -0.59516940288E+02 -0.12492023889E+02  0.36256096470E+02  0.70801280874E+02  0.00000000000E+00 0.  1.
         12    1    4    4    0    0  0.20864467858E+02  0.15357605099E+02  0.39867802551E+02  0.47546017011E+02  0.00000000000E+00 0. -1.
        -13    1    3    3    0    0 -0.44503908885E+02 -0.30977082772E+01  0.12081118714E+03  0.12878484632E+03  0.00000000000E+00 0.  1.
         13    1    3    3    0    0  0.40978563426E+02  0.11911636832E+02  0.21596893439E+03  0.22014474869E+03  0.00000000000E+00 0. -1.
          1    1    1    2  501    0  0.42177817889E+02 -0.11679509764E+02 -0.62345267733E+02  0.76172906462E+02  0.00000000000E+00 0. -1.
<scales pt_clust_5="13000.00000" pt_clust_6="13000.00000" pt_clust_7="13000.00000" pt_clust_8="13000.00000" pt_clust_9="43.76505"></scales>
<clustering>
<clus scale="   43.765">  2  9  1 -1</clus>
<clus scale="   81.909">  5  6 -1 -1</clus>
<clus scale="   82.355">  2  5  1 -1</clus>
<clus scale="   90.779">  7  8 -1 -1</clus>
<clus scale="   43.765">  2  5  1 -1</clus>
</clustering>
</event>
<event>
 9    2  0.3745229E-005  0.9556361E+02  0.7546771E-02  0.1297800E+00
         21   -1    0    0  501  502  0.00000000000E+00  0.00000000000E+00  0.61252373513E+02  0.61252373513E+02  0.00000000000E+00 0. -1.
         -3   -1    0    0    0  501 -0.00000000000E+00 -0.00000000000E+00 -0.39258428713E+03  0.39258428713E+03  0.00000000000E+00 0.  1.
         23    2    1    2    0    0  0.25846006105E+02  0.18745983320E+01 -0.32726851413E+03  0.34109261894E+03  0.92563298370E+02 0.  0.
         24    2    1    2    0    0 -0.11510319362E+02 -0.18185721025E+02 -0.21751627983E+02  0.84736220198E+02  0.79018262398E+02 0.  0.
        -11    1    4    4    0    0 -0.28466533245E+02 -0.41749383488E+02 -0.39554000746E+01  0.50685300890E+02  0.00000000000E+00 0.  1.
         12    1    4    4    0    0  0.16956213883E+02  0.23563662463E+02 -0.17796227908E+02  0.34050919307E+02  0.00000000000E+00 0. -1.
        -13    1    3    3    0    0  0.95128302834E+01  0.43895315372E+02 -0.22326831062E+03  0.22774114950E+03  0.00000000000E+00 0.  1.
         13    1    3    3    0    0  0.16333175822E+02 -0.42020717040E+02 -0.10400020351E+03  0.11335146944E+03  0.00000000000E+00 0. -1.
         -4    1    1    2    0  502 -0.14335686743E+02  0.16311122693E+02  0.17688228498E+02  0.28007821502E+02  0.00000000000E+00 0.  1.
<scales pt_clust_5="13000.00000" pt_clust_6="13000.00000" pt_clust_7="13000.00000" pt_clust_8="13000.00000" pt_clust_9="21.71554"></scales>
<clustering>
<clus scale="   21.716">  1  9  2 -1</clus>
<clus scale="   79.018">  5  6 -1 -1</clus>
<clus scale="   82.513">  1  5  2 -1</clus>
<clus scale="   92.563">  7  8 -1 -1</clus>
<clus scale="   21.716">  1  5  2 -1</clus>
</clustering>
</event>
<event>
 9    2  0.3745229E-005  0.1722303E+03  0.7546771E-02  0.1191665E+00
         -3   -1    0    0    0  501 -0.00000000000E+00  0.00000000000E+00  0.13067379195E+03  0.13067379195E+03  0.00000000000E+00 0.  1.
         21   -1    0    0  501  502  0.00000000000E+00 -0.00000000000E+00 -0.86769916238E+03  0.86769916238E+03  0.00000000000E+00 0.  1.
         24    2    1    2    0    0 -0.20009038884E+01  0.89183967670E+02  0.59833470502E+02  0.13421356787E+03  0.80470205067E+02 0.  0.
         23    2    1    2    0    0 -0.98623114032E+02  0.52175937926E+02 -0.22951664404E+03  0.27087616212E+03  0.90813865653E+02 0.  0.
        -13    1    3    3    0    0 -0.34841674840E+02  0.75226630333E+02  0.51407645923E+02  0.97548625189E+02  0.00000000000E+00 0.  1.
         14    1    3    3    0    0  0.32840770952E+02  0.13957337337E+02  0.84258245790E+01  0.36664942685E+02  0.00000000000E+00 0. -1.
        -11    1    4    4    0    0 -0.81561968192E+02  0.13902582222E+02 -0.78132622952E+02  0.11379957477E+03  0.00000000000E+00 0. -1.
         11    1    4    4    0    0 -0.17061145839E+02  0.38273355704E+02 -0.15138402109E+03  0.15707658736E+03  0.00000000000E+00 0.  1.
         -4    1    1    2    0  502  0.10062401792E+03 -0.14135990560E+03 -0.56734219689E+03  0.59328322433E+03  0.00000000000E+00 0.  1.
<scales pt_clust_5="13000.00000" pt_clust_6="13000.00000" pt_clust_7="13000.00000" pt_clust_8="13000.00000" pt_clust_9="146.34251"></scales>
<clustering>
<clus scale="   80.470">  5  6 -1 -1</clus>
<clus scale="   90.814">  7  8 -1 -1</clus>
<clus scale="  120.138">  1  5  2 -1</clus>
<clus scale="  146.343">  2  9  1 -1</clus>
<clus scale="  146.343">  2  5  1 -1</clus>
</clustering>
</event>
<event>
 9    2  0.3745229E-005  0.1245591E+03  0.7546771E-02  0.1239432E+00
         21   -1    0    0  501  502  0.00000000000E+00  0.00000000000E+00  0.11795401423E+03  0.11795401423E+03  0.00000000000E+00 0.  1.
          4   -1    0    0  502    0 -0.00000000000E+00 -0.00000000000E+00 -0.15425839731E+03  0.15425839731E+03  0.00000000000E+00 0. -1.
         23    2    1    2    0    0  0.80214071765E+02 -0.35597754631E+02 -0.29059173788E+02  0.13091287569E+03  0.92694379531E+02 0.  0.
         24    2    1    2    0    0 -0.79775968457E+02  0.86588657084E+01 -0.24143507822E+00  0.11346163859E+03  0.80214113727E+02 0.  0.
        -13    1    4    4    0    0  0.50576201554E+00 -0.24934858068E+02 -0.77368371115E+01  0.26112479595E+02  0.00000000000E+00 0.  1.
         14    1    4    4    0    0 -0.80281730472E+02  0.33593723776E+02  0.74954020333E+01  0.87349158991E+02  0.00000000000E+00 0. -1.
        -13    1    3    3    0    0  0.54492735299E+02 -0.62804321376E+02  0.59468858487E+00  0.83151636414E+02  0.00000000000E+00 0.  1.
         13    1    3    3    0    0  0.25721336466E+02  0.27206566745E+02 -0.29653862373E+02  0.47761239277E+02  0.00000000000E+00 0. -1.
          3    1    1    2  501    0 -0.43810330827E+00  0.26938888923E+02 -0.70037742043E+01  0.27837897263E+02  0.00000000000E+00 0. -1.
<scales pt_clust_5="13000.00000" pt_clust_6="13000.00000" pt_clust_7="13000.00000" pt_clust_8="13000.00000" pt_clust_9="26.94246"></scales>
<clustering>
<clus scale="   26.942">  1  9  2 -1</clus>
<clus scale="   80.214">  5  6 -1 -1</clus>
<clus scale="   92.694">  7  8 -1 -1</clus>
<clus scale="  115.573">  1  5  2 -1</clus>
<clus scale="   26.942">  1  5  2 -1</clus>
</clustering>
</event>
<event>
 9    2  0.3745229E-005  0.2126941E+03  0.7546771E-02  0.1160860E+00
         21   -1    0    0  501  502  0.00000000000E+00  0.00000000000E+00  0.59794505262E+03  0.59794505262E+03  0.00000000000E+00 0. -1.
          2   -1    0    0  502    0 -0.00000000000E+00 -0.00000000000E+00 -0.13855253787E+03  0.13855253787E+03  0.00000000000E+00 0. -1.
         23    2    1    2    0    0  0.43777518624E+02 -0.82194670985E+02  0.29388677675E+02  0.13141044474E+03  0.87935064316E+02 0.  0.
         24    2    1    2    0    0  0.16911184776E+03 -0.23307815774E+02  0.19168729513E+03  0.26856458901E+03  0.78999038137E+02 0.  0.
        -13    1    4    4    0    0  0.78468944197E+02 -0.24354667738E+01  0.34140454750E+02  0.85608862581E+02  0.00000000000E+00 0.  1.
         14    1    4    4    0    0  0.90642903562E+02 -0.20872349000E+02  0.15754684038E+03  0.18295572643E+03  0.00000000000E+00 0. -1.
        -13    1    3    3    0    0 -0.17848070356E+02 -0.40412640424E+02  0.35544188718E+02  0.56702067626E+02  0.00000000000E+00 0.  1.
         13    1    3    3    0    0  0.61625588979E+02 -0.41782030560E+02 -0.61555110432E+01  0.74708377114E+02  0.00000000000E+00 0. -1.
          1    1    1    2  501    0 -0.21288936638E+03  0.10550248676E+03  0.23831654194E+03  0.33652255674E+03  0.00000000000E+00 0. -1.
<scales pt_clust_5="13000.00000" pt_clust_6="13000.00000" pt_clust_7="13000.00000" pt_clust_8="13000.00000" pt_clust_9="197.47905"></scales>
<clustering>
<clus scale="   78.999">  5  6 -1 -1</clus>
<clus scale="   87.935">  7  8 -1 -1</clus>
<clus scale="  128.082">  2  7  1 -1</clus>
<clus scale="  197.479">  1  9  2 -1</clus>
<clus scale="  197.479">  1  5  2 -1</clus>
</clustering>
</event>
<event>
 9    2  0.3745229E-005  0.1395564E+03  0.7546771E-02  0.1217255E+00
          2   -1    0    0  502    0 -0.00000000000E+00  0.00000000000E+00  0.86256243463E+03  0.86256243463E+03  0.00000000000E+00 0. -1.
         21   -1    0    0  501  502  0.00000000000E+00 -0.00000000000E+00 -0.47694936177E+02  0.47694936177E+02  0.00000000000E+00 0.  1.
         23    2    1    2    0    0 -0.36956624380E+02  0.10130687244E+03  0.72457566841E+03  0.73828809692E+03  0.91817973813E+02 0.  0.
         24    2    1    2    0    0  0.49177549938E+02 -0.79799889607E+02  0.80334408212E+02  0.14530372342E+03  0.76636160512E+02 0.  0.
        -11    1    4    4    0    0  0.18724580912E+02 -0.18639146970E+02 -0.13151378262E+02  0.29512480077E+02  0.00000000000E+00 0.  1.
         12    1    4    4    0    0  0.30452969026E+02 -0.61160742637E+02  0.93485786474E+02  0.11579124334E+03  0.00000000000E+00 0. -1.
        -13    1    3    3    0    0  0.26905941576E+02  0.71183598612E+01  0.14084479763E+03  0.14356830346E+03  0.00000000000E+00 0.  1.
         13    1    3    3    0    0 -0.63862565956E+02  0.94188512582E+02  0.58373087077E+03  0.59471979346E+03  0.00000000000E+00 0. -1.
          1    1    1    2  501    0 -0.12220925558E+02 -0.21506982836E+02  0.99574218365E+01  0.26665550469E+02  0.00000000000E+00 0. -1.
<scales pt_clust_5="13000.00000" pt_clust_6="13000.00000" pt_clust_7="13000.00000" pt_clust_8="13000.00000" pt_clust_9="24.73664"></scales>
<clustering>
<clus scale="   24.737">  2  9  1 -1</clus>
<clus scale="   76.636">  5  6 -1 -1</clus>
<clus scale="   91.818">  7  8 -1 -1</clus>
<clus scale="  130.071">  2  5  1 -1</clus>
<clus scale="   24.737">  2  5  1 -1</clus>
</clustering>
</event>
<event>
 9    2  0.3745229E-005  0.1759146E+03  0.7546771E-02  0.1172975E+00
          4   -1    0    0  502    0 -0.00000000000E+00  0.00000000000E+00  0.21056734018E+03  0.21056734018E+03  0.00000000000E+00 0. -1.
         21   -1    0    0  501  502  0.00000000000E+00 -0.00000000000E+00 -0.30279301031E+03  0.30279301031E+03  0.00000000000E+00 0. -1.
         23    2    1    2    0    0 -0.21354604789E+02 -0.14991479560E+03  0.13119086532E+03  0.22175445461E+03  0.95044883676E+02 0.  0.
         24    2    1    2    0    0 -0.15611078899E+01  0.13250835907E+03 -0.19631074294E+03  0.25207315113E+03  0.86267395015E+02 0.  0.
        -13    1    4    4    0    0  0.35105400006E+02  0.49414481150E+02 -0.44606129667E+02  0.75258799225E+02  0.00000000000E+00 0.  1.
         14    1    4    4    0    0 -0.36666507896E+02  0.83093877925E+02 -0.15170461328E+03  0.17681435190E+03  0.00000000000E+00 0. -1.
        -13    1    3    3    0    0 -0.13767920366E+02 -0.96082258201E+02  0.13610272605E+03  0.16716850185E+03  0.00000000000E+00 0.  1.
         13    1    3    3    0    0 -0.75866844221E+01 -0.53832537398E+02 -0.49118607340E+01  0.54585952763E+02  0.00000000000E+00 0. -1.
          3    1    1    2  501    0  0.22915712679E+02  0.17406436524E+02 -0.27105792506E+02  0.39532744749E+02  0.00000000000E+00 0. -1.
<scales pt_clust_5="13000.00000" pt_clust_6="13000.00000" pt_clust_7="13000.00000" pt_clust_8="13000.00000" pt_clust_9="28.77697"></scales>
<clustering>
<clus scale="   28.777">  2  9  1 -1</clus>
<clus scale="   86.267">  5  6 -1 -1</clus>
<clus scale="   95.045">  7  8 -1 -1</clus>
<clus scale="  171.331">  2  5  1 -1</clus>
<clus scale="   28.777">  2  5  1 -1</clus>
</clustering>
</event>
<event>
 9    2  0.3745229E-005  0.2311538E+03  0.7546771E-02  0.1125830E+00
         21   -1    0    0  501  502  0.00000000000E+00  0.00000000000E+00  0.98042470555E+03  0.98042470555E+03  0.00000000000E+00 0. -1.
         -1   -1    0    0    0  501 -0.00000000000E+00 -0.00000000000E+00 -0.37417469041E+02  0.37417469041E+02  0.00000000000E+00 0.  1.
         24    2    1    2    0    0  0.46016779413E+02 -0.24581889713E+02  0.19128518244E+03  0.21393159364E+03  0.80342345301E+02 0.  0.
         23    2    1    2    0    0  0.94623976460E+02 -0.30930329941E+02  0.34809814832E+03  0.37289586422E+03  0.89267140968E+02 0.  0.
        -11    1    3    3    0    0  0.36638724895E+02  0.23016429975E+02  0.60034316300E+02  0.74001833385E+02  0.00000000000E+00 0.  1.
         12    1    3    3    0    0  0.93780545183E+01 -0.47598319688E+02  0.13125086614E+03  0.13992976026E+03  0.00000000000E+00 0. -1.
        -13    1    4    4    0    0  0.60291545531E+02  0.31229850995E+00  0.30019977335E+03  0.30619450014E+03  0.00000000000E+00 0. -1.
         13    1    4    4    0    0  0.34332430930E+02 -0.31242628450E+02  0.47898374970E+02  0.66701364085E+02  0.00000000000E+00 0.  1.
         -2    1    1    2    0  502 -0.14064075587E+03  0.55512219654E+02  0.40362390575E+03  0.43101471673E+03  0.00000000000E+00 0.  1.
<scales pt_clust_5="13000.00000" pt_clust_6="13000.00000" pt_clust_7="13000.00000" pt_clust_8="13000.00000" pt_clust_9="151.19996"></scales>
<clustering>
<clus scale="   80.342">  5  6 -1 -1</clus>
<clus scale="   89.267">  7  8 -1 -1</clus>
<clus scale="   92.345">  5  7 -1 -1</clus>
<clus scale="  151.200">  1  9  2 -1</clus>
<clus scale="  151.200">  1  5  2 -1</clus>
</clustering>
</event>
<event>
 9    2  0.3745229E-005  0.9860514E+02  0.7546771E-02  0.1289846E+00
         21   -1    0    0  501  502  0.00000000000E+00  0.00000000000E+00  0.27655916260E+02  0.27655916260E+02  0.00000000000E+00 0.  1.
         -1   -1    0    0    0  501 -0.00000000000E+00 -0.00000000000E+00 -0.53705376486E+03  0.53705376486E+03  0.00000000000E+00 0.  1.
         24    2    1    2    0    0 -0.19785250276E+02  0.13940936489E+02 -0.21745769150E+03  0.23248694858E+03  0.78590888978E+02 0.  0.
         23    2    1    2    0    0  0.42218904630E+02 -0.35310990183E+02 -0.27901716581E+03  0.29865263057E+03  0.91178467813E+02 0.  0.
        -11    1    3    3    0    0  0.28790091161E+02 -0.59199383075E+01 -0.88799106925E+02  0.93537139197E+02  0.00000000000E+00 0.  1.
         12    1    3    3    0    0 -0.48575341437E+02  0.19860874797E+02 -0.12865858457E+03  0.13894980938E+03  0.00000000000E+00 0. -1.
        -13    1    4    4    0    0  0.27802714970E+02  0.21198667444E+02 -0.18301492275E+03  0.18632454591E+03  0.00000000000E+00 0.  1.
         13    1    4    4    0    0  0.14416189660E+02 -0.56509657627E+02 -0.96002243063E+02  0.11232808466E+03  0.00000000000E+00 0. -1.
         -2    1    1    2    0  502 -0.22433654354E+02  0.21370053694E+02 -0.12922991295E+02  0.33570101974E+02  0.00000000000E+00 0.  1.
<scales pt_clust_5="13000.00000" pt_clust_6="13000.00000" pt_clust_7="13000.00000" pt_clust_8="13000.00000" pt_clust_9="30.98303"></scales>
<clustering>
<clus scale="   30.983">  1  9  2 -1</clus>
<clus scale="   78.591">  5  6 -1 -1</clus>
<clus scale="   87.098">  2  5  1 -1</clus>
<clus scale="   91.178">  7  8 -1 -1</clus>
<clus scale="   30.983">  1  5  2 -1</clus>
</clustering>
</event>
<event>
 9    2  0.3745229E-005  0.1506724E+03  0.7546771E-02  0.1215690E+00
         21   -1    0    0  501  502  0.00000000000E+00  0.00000000000E+00  0.43421960760E+03  0.43421960760E+03  0.00000000000E+00 0.  1.
         -1   -1    0    0    0  501 -0.00000000000E+00 -0.00000000000E+00 -0.22321560429E+03  0.22321560429E+03  0.00000000000E+00 0.  1.
         24    2    1    2    0    0  0.29680388421E+02  0.59485226366E+02 -0.16053814186E+03  0.19283303803E+03  0.83622173798E+02 0.  0.
         23    2    1    2    0    0 -0.13348376379E+03 -0.52550028773E+01  0.21381844078E+03  0.26815160806E+03  0.91331424141E+02 0.  0.
        -11    1    3    3    0    0  0.86124914016E-01  0.25073152499E+02 -0.14134953708E+03  0.14355612849E+03  0.00000000000E+00 0.  1.
         12    1    3    3    0    0  0.29594263507E+02  0.34412073868E+02 -0.19188604778E+02  0.49276909539E+02  0.00000000000E+00 0. -1.
        -13    1    4    4    0    0 -0.63973561467E+02  0.31396061123E+02  0.15300833438E+03  0.16878945349E+03  0.00000000000E+00 0.  1.
         13    1    4    4    0    0 -0.69510202323E+02 -0.36651064000E+02  0.60810106401E+02  0.99362154565E+02  0.00000000000E+00 0. -1.
         -2    1    1    2    0  502  0.10380337537E+03 -0.54230223489E+02  0.15772370438E+03  0.19645056580E+03  0.00000000000E+00 0.  1.
<scales pt_clust_5="13000.00000" pt_clust_6="13000.00000" pt_clust_7="13000.00000" pt_clust_8="13000.00000" pt_clust_9="119.83636"></scales>
<clustering>
<clus scale="   83.622">  5  6 -1 -1</clus>
<clus scale="   91.331">  7  8 -1 -1</clus>
<clus scale="  106.827">  2  5  1 -1</clus>
<clus scale="  119.836">  1  9  2 -1</clus>
<clus scale="  119.836">  1  5  2 -1</clus>
</clustering>
</event>
<event>
 9    2  0.3745229E-005  0.1033766E+03  0.7546771E-02  0.1278756E+00
          2   -1    0    0  502    0 -0.00000000000E+00  0.00000000000E+00  0.13526846530E+03  0.13526846530E+03  0.00000000000E+00 0. -1.
         21   -1    0    0  501  502  0.00000000000E+00 -0.00000000000E+00 -0.36243802082E+03  0.36243802082E+03  0.00000000000E+00 0. -1.
         24    2    1    2    0    0  0.42967337172E+02  0.94248858729E+01  0.81064659273E+02  0.12173069998E+03  0.79447239085E+02 0.  0.
         23    2    1    2    0    0 -0.73714033095E+02 -0.50373388250E+01 -0.71920114546E+02  0.13762947537E+03  0.91160496696E+02 0.  0.
        -13    1    3    3    0    0 -0.22518945676E+02  0.31683475100E+00  0.99258575255E+01  0.24611500284E+02  0.00000000000E+00 0.  1.
         14    1    3    3    0    0  0.65486282847E+02  0.91080511219E+01  0.71138801748E+02  0.97119199701E+02  0.00000000000E+00 0. -1.
        -13    1    4    4    0    0 -0.80890767623E+02 -0.31418134951E+02 -0.39858701352E+02  0.95494144134E+02  0.00000000000E+00 0.  1.
         13    1    4    4    0    0  0.71767345283E+01  0.26380796126E+02 -0.32061413193E+02  0.42135331240E+02  0.00000000000E+00 0. -1.
          1    1    1    2  501    0  0.30746695923E+02 -0.43875470479E+01 -0.23631410025E+03  0.23834631077E+03  0.00000000000E+00 0. -1.
<scales pt_clust_5="13000.00000" pt_clust_6="13000.00000" pt_clust_7="13000.00000" pt_clust_8="13000.00000" pt_clust_9="31.05817"></scales>
<clustering>
<clus scale="   31.058">  2  9  1 -1</clus>
<clus scale="   79.447">  5  6 -1 -1</clus>
<clus scale="   91.160">  7  8 -1 -1</clus>
<clus scale="   93.211">  1  5  2 -1</clus>
<clus scale="   31.058">  2  5  1 -1</clus>
</clustering>
</event>
<event>
 9    2  0.3745229E-005  0.8946784E+02  0.7546771E-02  0.1308744E+00
          2   -1    0    0  502    0 -0.00000000000E+00  0.00000000000E+00  0.20909111220E+03  0.20909111220E+03  0.00000000000E+00 0. -1.
         21   -1    0    0  501  502  0.00000000000E+00 -0.00000000000E+00 -0.76207838357E+02  0.76207838357E+02  0.00000000000E+00 0. -1.
         24    2    1    2    0    0 -0.13645127893E+02  0.19576746129E+01  0.11691352499E+03  0.14355615748E+03  0.82155803330E+02 0.  0.
         23    2    1    2    0    0 -0.18221294507E+02 -0.25976913585E+01  0.42138841450E+02  0.10050325009E+03  0.89366983537E+02 0.  0.
        -13    1    3    3    0    0  0.32343803582E+02 -0.12592587746E+02  0.42430455273E+02  0.54818230827E+02  0.00000000000E+00 0.  1.
         14    1    3    3    0    0 -0.45988931475E+02  0.14550262359E+02  0.74483069713E+02  0.88737926653E+02  0.00000000000E+00 0. -1.
        -13    1    4    4    0    0 -0.10446003955E+02  0.36355891860E+02 -0.57750879188E+01  0.38265147484E+02  0.00000000000E+00 0. -1.
         13    1    4    4    0    0 -0.77752905527E+01 -0.38953583218E+02  0.47913929369E+02  0.62238102608E+02  0.00000000000E+00 0.  1.
          1    1    1    2  501    0  0.31866422400E+02  0.64001674555E+00 -0.26169092595E+02  0.41239542981E+02  0.00000000000E+00 0. -1.
<scales pt_clust_5="13000.00000" pt_clust_6="13000.00000" pt_clust_7="13000.00000" pt_clust_8="13000.00000" pt_clust_9="31.87285"></scales>
<clustering>
<clus scale="   31.873">  2  9  1 -1</clus>
<clus scale="   82.156">  5  6 -1 -1</clus>
<clus scale="   82.266">  1  5  2 -1</clus>
<clus scale="   89.367">  7  8 -1 -1</clus>
<clus scale="   31.873">  2  5  1 -1</clus>
</clustering>
</event>
<event>
 9    2  0.3745229E-005  0.9650499E+02  0.7546771E-02  0.1292125E+00
          4   -1    0    0  502    0 -0.00000000000E+00  0.00000000000E+00  0.35927048717E+02  0.35927048717E+02  0.00000000000E+00 0. -1.
         21   -1    0    0  501  502  0.00000000000E+00 -0.00000000000E+00 -0.48335304087E+03  0.48335304087E+03  0.00000000000E+00 0. -1.
         23    2    1    2    0    0  0.61404497616E+01  0.14712144742E+02 -0.20470626775E+03  0.22484812329E+03  0.91639893944E+02 0.  0.
         24    2    1    2    0    0  0.52185421594E+02 -0.22395103164E+02 -0.19081310903E+03  0.21597668070E+03  0.83734253184E+02 0.  0.
        -13    1    4    4    0    0  0.26260778677E+02  0.15631126493E+02 -0.14630703206E+02  0.33882415623E+02  0.00000000000E+00 0.  1.
         14    1    4    4    0    0  0.25924642917E+02 -0.38026229657E+02 -0.17618240582E+03  0.18209426508E+03  0.00000000000E+00 0. -1.
        -11    1    3    3    0    0  0.18769338281E+02 -0.32356021734E+02 -0.48700828055E+02  0.61408231168E+02  0.00000000000E+00 0.  1.
         11    1    3    3    0    0 -0.12628888519E+02  0.47068166475E+02 -0.15600543970E+03  0.16343989212E+03  0.00000000000E+00 0. -1.
          3    1    1    2  501    0 -0.58325871355E+02  0.76829584224E+01 -0.51906615375E+02  0.78455285604E+02  0.00000000000E+00 0. -1.
<scales pt_clust_5="13000.00000" pt_clust_6="13000.00000" pt_clust_7="13000.00000" pt_clust_8="13000.00000" pt_clust_9="58.82974"></scales>
<clustering>
<clus scale="   58.830">  2  9  1 -1</clus>
<clus scale="   83.734">  5  6 -1 -1</clus>
<clus scale="   89.032">  2  5  1 -1</clus>
<clus scale="   91.640">  7  8 -1 -1</clus>
<clus scale="   58.830">  2  5  1 -1</clus>
</clustering>
</event>
<event>
 9    2  0.3745229E-005  0.1110055E+03  0.7546771E-02  0.1261815E+00
         21   -1    0    0  501  502  0.00000000000E+00  0.00000000000E+00  0.21734972574E+03  0.21734972574E+03  0.00000000000E+00 0.  1.
          4   -1    0    0  502    0 -0.00000000000E+00 -0.00000000000E+00 -0.74470484407E+02  0.74470484407E+02  0.00000000000E+00 0. -1.
         24    2    1    2    0    0  0.31291658985E+02  0.63107830301E+02  0.92652435202E+01  0.10830318131E+03  0.81743306621E+02 0.  0.
         23    2    1    2    0    0 -0.33328711965E+02 -0.42242261435E+02  0.11045898629E+03  0.15228121433E+03  0.89962041410E+02 0.  0.
        -13    1    3    3    0    0  0.50187383583E+02  0.98048146973E+01  0.97384538395E+00  0.51145441996E+02  0.00000000000E+00 0.  1.
         14    1    3    3    0    0 -0.18895724598E+02  0.53303015603E+02  0.82913981362E+01  0.57157739315E+02  0.00000000000E+00 0. -1.
        -11    1    4    4    0    0  0.73099803450E+01 -0.43280368141E+02  0.10159876972E+03  0.11067491174E+03  0.00000000000E+00 0. -1.
         11    1    4    4    0    0 -0.40638692310E+02  0.10381067064E+01  0.88602165682E+01  0.41606302598E+02  0.00000000000E+00 0.  1.
          3    1    1    2  501    0  0.20370529803E+01 -0.20865568866E+02  0.23155011527E+02  0.31235814504E+02  0.00000000000E+00 0. -1.
<scales pt_clust_5="13000.00000" pt_clust_6="13000.00000" pt_clust_7="13000.00000" pt_clust_8="13000.00000" pt_clust_9="20.96477"></scales>
<clustering>
<clus scale="   20.965">  1  9  2 -1</clus>
<clus scale="   81.743">  5  6 -1 -1</clus>
<clus scale="   89.962">  7  8 -1 -1</clus>
<clus scale="  104.456">  2  5  1 -1</clus>
<clus scale="   20.965">  1  5  2 -1</clus>
</clustering>
</event>
<event>
 9    2  0.3745229E-005  0.1108451E+03  0.7546771E-02  0.1262693E+00
         21   -1    0    0  501  502  0.00000000000E+00  0.00000000000E+00  0.53786636276E+03  0.53786636276E+03  0.00000000000E+00 0. -1.
         -3   -1    0    0    0  501 -0.00000000000E+00 -0.00000000000E+00 -0.29964574890E+02  0.29964574890E+02  0.00000000000E+00 0.  1.
         23    2    1    2    0    0  0.56484870647E+02 -0.24698073745E+02  0.15586418453E+03  0.19044362813E+03  0.90413472552E+02 0.  0.
         24    2    1    2    0    0 -0.50981613950E+02  0.47951772791E+02  0.23828402482E+03  0.26115092546E+03  0.80759097982E+02 0.  0.
        -13    1    4    4    0    0 -0.20722614387E+02  0.28811920899E+02  0.21638144238E+02  0.41566366440E+02  0.00000000000E+00 0.  1.
         14    1    4    4    0    0 -0.30258999563E+02  0.19139851892E+02  0.21664588058E+03  0.21958455902E+03  0.00000000000E+00 0. -1.
        -11    1    3    3    0    0 -0.12245746870E+02 -0.36983711752E+02  0.66046903347E+02  0.76680810462E+02  0.00000000000E+00 0.  1.
         11    1    3    3    0    0  0.68730617517E+02  0.12285638008E+02  0.89817281179E+02  0.11376281767E+03  0.00000000000E+00 0. -1.
         -4    1    1    2    0  502 -0.55032566973E+01 -0.23253699046E+02  0.11375357853E+03  0.11623638407E+03  0.00000000000E+00 0.  1.
<scales pt_clust_5="13000.00000" pt_clust_6="13000.00000" pt_clust_7="13000.00000" pt_clust_8="13000.00000" pt_clust_9="23.89603"></scales>
<clustering>
<clus scale="   23.896">  1  9  2 -1</clus>
<clus scale="   80.759">  5  6 -1 -1</clus>
<clus scale="   90.413">  7  8 -1 -1</clus>
<clus scale="  103.122">  1  5  2 -1</clus>
<clus scale="   23.896">  1  5  2 -1</clus>
</clustering>
</event>
<event>
 9    2  0.3745229E-005  0.9595024E+02  0.7546771E-02  0.1297017E+00
         -3   -1    0    0    0  501 -0.00000000000E+00  0.00000000000E+00  0.10816265500E+03  0.10816265500E+03  0.00000000000E+00 0.  1.
         21   -1    0    0  501  502  0.00000000000E+00 -0.00000000000E+00 -0.14387627688E+03  0.14387627688E+03  0.00000000000E+00 0. -1.
         23    2    1    2    0    0  0.49459917313E+01 -0.33044359989E+02  0.57841328512E+02  0.11312174143E+03  0.91293573372E+02 0.  0.
         24    2    1    2    0    0  0.99084684523E+01  0.19031859190E+02 -0.62112453597E+02  0.10142538107E+03  0.77257760914E+02 0.  0.
        -13    1    4    4    0    0  0.62310858500E+00  0.39848930563E+02 -0.52922859071E+01  0.40203654330E+02  0.00000000000E+00 0.  1.
         14    1    4    4    0    0  0.92853598673E+01 -0.20817071373E+02 -0.56820167689E+02  0.61221726737E+02  0.00000000000E+00 0. -1.
        -11    1    3    3    0    0  0.37229041410E+02 -0.38362634884E+02  0.59966314883E+02  0.80334626409E+02  0.00000000000E+00 0. -1.
         11    1    3    3    0    0 -0.32283049678E+02  0.53182748952E+01 -0.21249863707E+01  0.32787115022E+02  0.00000000000E+00 0.  1.
         -4    1    1    2    0  502 -0.14854460184E+02  0.14012500799E+02 -0.31442496791E+02  0.37491809378E+02  0.00000000000E+00 0.  1.
<scales pt_clust_5="13000.00000" pt_clust_6="13000.00000" pt_clust_7="13000.00000" pt_clust_8="13000.00000" pt_clust_9="20.42070"></scales>
<clustering>
<clus scale="   20.421">  2  9  1 -1</clus>
<clus scale="   77.258">  5  6 -1 -1</clus>
<clus scale="   82.708">  2  5  1 -1</clus>
<clus scale="   91.294">  7  8 -1 -1</clus>
<clus scale="   20.421">  2  5  1 -1</clus>
</clustering>
</event>
<event>
 9    2  0.3745229E-005  0.9261631E+02  0.7546771E-02  0.1300952E+00
         -3   -1    0    0    0  501 -0.00000000000E+00  0.00000000000E+00  0.74427414006E+02  0.74427414006E+02  0.00000000000E+00 0.  1.
         21   -1    0    0  501  502  0.00000000000E+00 -0.00000000000E+00 -0.27969723112E+03  0.27969723112E+03  0.00000000000E+00 0.  1.
         23    2    1    2    0    0 -0.17422403452E+02 -0.54003354243E+01  0.85446850327E+01  0.93263360869E+02  0.91062281289E+02 0.  0.
         24    2    1    2    0    0  0.14476813056E+02 -0.22804116434E+02 -0.65250938069E+02  0.10961545728E+03  0.83834704704E+02 0.  0.
        -11    1    4    4    0    0  0.13384105362E+02 -0.53237091332E+02 -0.28384235971E+02  0.61797953215E+02  0.00000000000E+00 0.  1.
         12    1    4    4    0    0  0.10927076942E+01  0.30432974898E+02 -0.36866702097E+02  0.47817504063E+02  0.00000000000E+00 0. -1.
        -13    1    3    3    0    0 -0.41516909691E+02  0.29148363746E+02  0.56978521295E+01  0.51046512303E+02  0.00000000000E+00 0. -1.
         13    1    3    3    0    0  0.24094506239E+02 -0.34548699170E+02  0.28468329032E+01  0.42216848566E+02  0.00000000000E+00 0.  1.
         -4    1    1    2    0  502  0.29455903954E+01  0.28204451858E+02 -0.14856356408E+03  0.15124582698E+03  0.00000000000E+00 0.  1.
<scales pt_clust_5="13000.00000" pt_clust_6="13000.00000" pt_clust_7="13000.00000" pt_clust_8="13000.00000" pt_clust_9="28.35785"></scales>
<clustering>
<clus scale="   28.358">  2  9  1 -1</clus>
<clus scale="   83.835">  5  6 -1 -1</clus>
<clus scale="   85.520">  2  5  1 -1</clus>
<clus scale="   91.062">  7  8 -1 -1</clus>
<clus scale="   28.358">  2  5  1 -1</clus>
</clustering>
</event>
<event>
 9    2  0.3745229E-005  0.1088219E+03  0.7546771E-02  0.1266040E+00
         -3   -1    0    0    0  501 -0.00000000000E+00  0.00000000000E+00  0.29530950480E+02  0.29530950480E+02  0.00000000000E+00 0.  1.
         21   -1    0    0  501  502  0.00000000000E+00 -0.00000000000E+00 -0.10039056958E+04  0.10039056958E+04  0.00000000000E+00 0.  1.
         23    2    1    2    0    0  0.25683050955E+01  0.52754762236E+02 -0.11656213462E+03  0.15698934882E+03  0.90935489698E+02 0.  0.
         24    2    1    2    0    0 -0.70909477312E+01 -0.96991754690E+02 -0.73086201724E+03  0.74193403054E+03  0.82759503442E+02 0.  0.
        -11    1    4    4    0    0 -0.30239741364E+02 -0.91816861956E+02 -0.46069959337E+03  0.47073229486E+03  0.00000000000E+00 0.  1.
         12    1    4    4    0    0  0.23148793633E+02 -0.51748927345E+01 -0.27016242387E+03  0.27120173567E+03  0.00000000000E+00 0. -1.
        -11    1    3    3    0    0  0.38510041756E+02  0.13481204824E+00 -0.26840349031E+02  0.46940875859E+02  0.00000000000E+00 0.  1.
         11    1    3    3    0    0 -0.35941736660E+02  0.52619950188E+02 -0.89721785594E+02  0.11004847297E+03  0.00000000000E+00 0. -1.
         -4    1    1    2    0  502  0.45226426357E+01  0.44236992454E+02 -0.12695059345E+03  0.13451326691E+03  0.00000000000E+00 0.  1.
<scales pt_clust_5="13000.00000" pt_clust_6="13000.00000" pt_clust_7="13000.00000" pt_clust_8="13000.00000" pt_clust_9="44.46758"></scales>
<clustering>
<clus scale="   44.468">  2  9  1 -1</clus>
<clus scale="   82.760">  5  6 -1 -1</clus>
<clus scale="   90.935">  7  8 -1 -1</clus>
<clus scale="  102.089">  2  5  1 -1</clus>
<clus scale="   44.468">  2  5  1 -1</clus>
</clustering>
</event>
<event>
 9    2  0.3745229E-005  0.2494455E+03  0.7546771E-02  0.1113656E+00
          2   -1    0    0  502    0 -0.00000000000E+00  0.00000000000E+00  0.13003087952E+04  0.13003087952E+04  0.00000000000E+00 0. -1.
         21   -1    0    0  501  502  0.00000000000E+00 -0.00000000000E+00 -0.20060904472E+03  0.20060904472E+03  0.00000000000E+00 0. -1.
         24    2    1    2    0    0 -0.34708499843E+02 -0.98808101745E+02  0.72111327256E+03  0.73302312311E+03  0.79692071262E+02 0.  0.
         23    2    1    2    0    0 -0.70350748770E+02 -0.26815365372E+02  0.53129097964E+03  0.54398096989E+03  0.89313486575E+02 0.  0.
        -11    1    3    3    0    0 -0.18994378016E+02 -0.68463554478E+01  0.33532764277E+02  0.39142116182E+02  0.00000000000E+00 0.  1.
         12    1    3    3    0    0 -0.15714121827E+02 -0.91961746297E+02  0.68758050828E+03  0.69388100693E+03  0.00000000000E+00 0. -1.
        -13    1    4    4    0    0 -0.51963595752E+02 -0.58984794462E+02  0.39479698842E+03  0.40254699518E+03  0.00000000000E+00 0.  1.
         13    1    4    4    0    0 -0.18387153018E+02  0.32169429089E+02  0.13649399122E+03  0.14143397471E+03  0.00000000000E+00 0. -1.
          1    1    1    2  501    0  0.10505924861E+03  0.12562346712E+03 -0.15270450173E+03  0.22391374691E+03  0.00000000000E+00 0. -1.
<scales pt_clust_5="13000.00000" pt_clust_6="13000.00000" pt_clust_7="13000.00000" pt_clust_8="13000.00000" pt_clust_9="163.76416"></scales>
<clustering>
<clus scale="   79.692">  5  6 -1 -1</clus>
<clus scale="   89.313">  7  8 -1 -1</clus>
<clus scale="  109.513">  5  7 -1 -1</clus>
<clus scale="  163.764">  2  9  1 -1</clus>
<clus scale="  163.764">  2  5  1 -1</clus>
</clustering>
</event>
<event>
 9    2  0.3745229E-005  0.1708267E+03  0.7546771E-02  0.1178317E+00
         -1   -1    0    0    0  501 -0.00000000000E+00  0.00000000000E+00  0.85764369151E+03  0.85764369151E+03  0.00000000000E+00 0.  1.
         21   -1    0    0  501  502  0.00000000000E+00 -0.00000000000E+00 -0.73641884826E+02  0.73641884826E+02  0.00000000000E+00 0. -1.
         23    2    1    2    0    0 -0.14656863714E+03 -0.56400667058E+02  0.56567890185E+03  0.59396628425E+03  0.90221539491E+02 0.  0.
         24    2    1    2    0    0  0.76398980218E+02  0.77451777966E+02  0.34632494641E+02  0.13955909180E+03  0.80260502922E+02 0.  0.
        -13    1    4    4    0    0  0.55206397328E+02  0.19903120259E+02  0.49137817169E+02  0.76540221962E+02  0.00000000000E+00 0.  1.
         14    1    4    4    0    0  0.21192582891E+02  0.57548657707E+02 -0.14505322528E+02  0.63018869833E+02  0.00000000000E+00 0. -1.
        -11    1    3    3    0    0 -0.87483792017E+02 -0.70325729404E+02  0.44423199084E+03  0.45819339123E+03  0.00000000000E+00 0. -1.
         11    1    3    3    0    0 -0.59084845122E+02  0.13925062346E+02  0.12144691101E+03  0.13577289301E+03  0.00000000000E+00 0.  1.
         -2    1    1    2    0  502  0.70169656921E+02 -0.21051110908E+02  0.18369041020E+03  0.19776020030E+03  0.00000000000E+00 0.  1.
<scales pt_clust_5="13000.00000" pt_clust_6="13000.00000" pt_clust_7="13000.00000" pt_clust_8="13000.00000" pt_clust_9="73.25937"></scales>
<clustering>
<clus scale="   73.259">  2  9  1 -1</clus>
<clus scale="   80.261">  5  6 -1 -1</clus>
<clus scale="   90.222">  7  8 -1 -1</clus>
<clus scale="  165.782">  2  5  1 -1</clus>
<clus scale="   73.259">  2  5  1 -1</clus>
</clustering>
</event>
<event>
 9    2  0.3745229E-005  0.1077051E+03  0.7546771E-02  0.1268783E+00
         21   -1    0    0  501  502  0.00000000000E+00  0.00000000000E+00  0.16647267205E+03  0.16647267205E+03  0.00000000000E+00 0. -1.
         -3   -1    0    0    0  501 -0.00000000000E+00 -0.00000000000E+00 -0.11863104017E+03  0.11863104017E+03  0.00000000000E+00 0.  1.
         23    2    1    2    0    0 -0.90328217994E+01  0.70823467482E+02 -0.45450319584E+02  0.12394889165E+03  0.90554076520E+02 0.  0.
         24    2    1    2    0    0 -0.66366100552E+01 -0.34770580489E+02  0.46064765539E+02  0.99707698212E+02  0.81034712304E+02 0.  0.
        -11    1    4    4    0    0 -0.10968429858E-01 -0.60960991306E+02  0.36479090005E+02  0.71042005806E+02  0.00000000000E+00 0.  1.
         12    1    4    4    0    0 -0.66256416253E+01  0.26190410817E+02  0.95856755341E+01  0.28665692407E+02  0.00000000000E+00 0. -1.
        -11    1    3    3    0    0 -0.47002442363E+02  0.56784618482E+02 -0.20961185972E+02  0.76636112908E+02  0.00000000000E+00 0. -1.
         11    1    3    3    0    0  0.37969620563E+02  0.14038848999E+02 -0.24489133612E+02  0.47312778739E+02  0.00000000000E+00 0.  1.
         -4    1    1    2    0  502  0.15669431855E+02 -0.36052886993E+02  0.47227185932E+02  0.61447122359E+02  0.00000000000E+00 0.  1.
<scales pt_clust_5="13000.00000" pt_clust_6="13000.00000" pt_clust_7="13000.00000" pt_clust_8="13000.00000" pt_clust_9="39.31084"></scales>
<clustering>
<clus scale="   39.311">  1  9  2 -1</clus>
<clus scale="   81.035">  5  6 -1 -1</clus>
<clus scale="   90.554">  7  8 -1 -1</clus>
<clus scale="   99.835">  1  5  2 -1</clus>
<clus scale="   39.311">  1  5  2 -1</clus>
</clustering>
</event>
<event>
 9    2  0.3745229E-005  0.9205107E+02  0.7546771E-02  0.1328280E+00
         -3   -1    0    0    0  501 -0.00000000000E+00  0.00000000000E+00  0.46249562234E+02  0.46249562234E+02  0.00000000000E+00 0.  1.
         21   -1    0    0  501  502  0.00000000000E+00 -0.00000000000E+00 -0.28224159391E+03  0.28224159391E+03  0.00000000000E+00 0.  1.
         23    2    1    2    0    0  0.18797949900E+02  0.47947535066E+01 -0.33047084659E+02  0.98822728611E+02  0.91090445734E+02 0.  0.
         24    2    1    2    0    0  0.15759650124E+02 -0.22747890861E+02 -0.70506236536E+02  0.91622946280E+02  0.51553872639E+02 0.  0.
        -11    1    4    4    0    0  0.33748225052E+02 -0.67866532412E+01 -0.43147330936E+02  0.55196861535E+02  0.00000000000E+00 0.  1.
         12    1    4    4    0    0 -0.17988574928E+02 -0.15961237619E+02 -0.27358905599E+02  0.36426084745E+02  0.00000000000E+00 0. -1.
        -13    1    3    3    0    0  0.36082895602E+02  0.34362078214E+02 -0.39974335895E+02  0.63880163623E+02  0.00000000000E+00 0.  1.
         13    1    3    3    0    0 -0.17284945703E+02 -0.29567324707E+02  0.69272512364E+01  0.34942564988E+02  0.00000000000E+00 0. -1.
         -4    1    1    2    0  502 -0.34557600024E+02  0.17953137354E+02 -0.13243871048E+03  0.13804548125E+03  0.00000000000E+00 0.  1.
<scales pt_clust_5="13000.00000" pt_clust_6="13000.00000" pt_clust_7="13000.00000" pt_clust_8="13000.00000" pt_clust_9="38.94282"></scales>
<clustering>
<clus scale="   38.943">  2  9  1 -1</clus>
<clus scale="   51.554">  5  6 -1 -1</clus>
<clus scale="   53.233">  2  5  1 -1</clus>
<clus scale="   91.090">  7  8 -1 -1</clus>
<clus scale="   38.943">  2  5  1 -1</clus>
</clustering>
</event>
<event>
 9    2  0.3745229E-005  0.1038565E+03  0.7546771E-02  0.1281219E+00
         21   -1    0    0  501  502  0.00000000000E+00  0.00000000000E+00  0.29496844205E+02  0.29496844205E+02  0.00000000000E+00 0. -1.
          2   -1    0    0  502    0 -0.00000000000E+00 -0.00000000000E+00 -0.52126869368E+03  0.52126869368E+03  0.00000000000E+00 0. -1.
         23    2    1    2    0    0  0.32029587979E+02 -0.31817109246E+02 -0.27020673989E+03  0.29098580158E+03  0.98096031984E+02 0.  0.
         24    2    1    2    0    0 -0.98072120120E+01  0.12011091346E+02 -0.78758327992E+02  0.11390345582E+03  0.80812593683E+02 0.  0.
        -11    1    4    4    0    0 -0.24554125841E+02 -0.23373936651E+02 -0.64752773699E+02  0.73090134164E+02  0.00000000000E+00 0.  1.
         12    1    4    4    0    0  0.14746913829E+02  0.35385027997E+02 -0.14005554293E+02  0.40813321660E+02  0.00000000000E+00 0. -1.
        -11    1    3    3    0    0  0.43734261933E+02 -0.57779588709E+02 -0.13934601673E+03  0.15706202251E+03  0.00000000000E+00 0. -1.
         11    1    3    3    0    0 -0.11704673954E+02  0.25962479463E+02 -0.13086072316E+03  0.13392377906E+03  0.00000000000E+00 0.  1.
          1    1    1    2  501    0 -0.22222375967E+02  0.19806017900E+02 -0.14280678159E+03  0.14587628048E+03  0.00000000000E+00 0. -1.
<scales pt_clust_5="13000.00000" pt_clust_6="13000.00000" pt_clust_7="13000.00000" pt_clust_8="13000.00000" pt_clust_9="29.76765"></scales>
<clustering>
<clus scale="   29.768">  1  9  2 -1</clus>
<clus scale="   80.813">  5  6 -1 -1</clus>
<clus scale="   87.716">  1  5  2 -1</clus>
<clus scale="   98.096">  7  8 -1 -1</clus>
<clus scale="   29.768">  1  5  2 -1</clus>
</clustering>
</event>
<event>
 9    2  0.3745229E-005  0.1055354E+03  0.7546771E-02  0.1273129E+00
          2   -1    0    0  502    0 -0.00000000000E+00  0.00000000000E+00  0.48980693995E+03  0.48980693995E+03  0.00000000000E+00 0. -1.
         21   -1    0    0  501  502  0.00000000000E+00 -0.00000000000E+00 -0.74348153974E+02  0.74348153974E+02  0.00000000000E+00 0. -1.
         23    2    1    2    0    0 -0.49635654019E+02  0.43871613548E+02  0.30051056330E+03  0.32090304825E+03  0.91015114687E+02 0.  0.
         24    2    1    2    0    0  0.19655629466E+02  0.40035993617E+02 -0.57590462127E+01  0.93220271783E+02  0.81655544229E+02 0.  0.
        -11    1    4    4    0    0  0.50741089908E+02  0.16710880330E+02  0.25331404945E+01  0.53482039296E+02  0.00000000000E+00 0.  1.
         12    1    4    4    0    0 -0.31085460443E+02  0.23325113287E+02 -0.82921867071E+01  0.39738232487E+02  0.00000000000E+00 0. -1.
        -11    1    3    3    0    0 -0.21679029992E+02 -0.17500885198E+02  0.25584762205E+02  0.37826464033E+02  0.00000000000E+00 0.  1.
         11    1    3    3    0    0 -0.27956624027E+02  0.61372498746E+02  0.27492580109E+03  0.28307658422E+03  0.00000000000E+00 0. -1.
          1    1    1    2  501    0  0.29980024554E+02 -0.83907607165E+02  0.12070726890E+03  0.15003177389E+03  0.00000000000E+00 0. -1.
<scales pt_clust_5="13000.00000" pt_clust_6="13000.00000" pt_clust_7="13000.00000" pt_clust_8="13000.00000" pt_clust_9="89.10273"></scales>
<clustering>
<clus scale="   81.656">  5  6 -1 -1</clus>
<clus scale="   89.103">  2  9  1 -1</clus>
<clus scale="   91.015">  7  8 -1 -1</clus>
<clus scale="   97.579">  2  5  1 -1</clus>
<clus scale="   89.103">  2  5  1 -1</clus>
</clustering>
</event>
<event>
 9    2  0.9767774E-005  0.1013446E+03  0.7546771E-02  0.1284163E+00
          2   -1    0    0  502    0 -0.00000000000E+00  0.00000000000E+00  0.11566838297E+04  0.11566838297E+04  0.00000000000E+00 0. -1.
         21   -1    0    0  501  502  0.00000000000E+00 -0.00000000000E+00 -0.10531906245E+03  0.10531906245E+03  0.00000000000E+00 0.  1.
         24    2    1    2    0    0 -0.62408309933E+01  0.41514738778E+02  0.10213058220E+04  0.10251680762E+04  0.78368239669E+02 0.  0.
         23    2    1    2    0    0  0.28157068552E+00 -0.83761963450E+02 -0.59349192333E+02  0.13776839454E+03  0.91878496399E+02 0.  0.
        -13    1    3    3    0    0  0.23772179822E+02  0.17527874456E+02  0.14279641126E+03  0.14581892190E+03  0.00000000000E+00 0.  1.
         14    1    3    3    0    0 -0.30013010815E+02  0.23986864322E+02  0.87850941070E+03  0.87934915430E+03  0.00000000000E+00 0. -1.
        -11    1    4    4    0    0 -0.28530702351E+02 -0.90349137432E+02 -0.44011231712E+02  0.10446988144E+03  0.00000000000E+00 0.  1.
         11    1    4    4    0    0  0.28812273037E+02  0.65871739824E+01 -0.15337960621E+02  0.33298513099E+02  0.00000000000E+00 0. -1.
          1    1    1    2  501    0  0.59592603078E+01  0.42247224672E+02  0.89408137646E+02  0.99066421422E+02  0.00000000000E+00 0. -1.
<scales pt_clust_5="13000.00000" pt_clust_6="13000.00000" pt_clust_7="13000.00000" pt_clust_8="13000.00000" pt_clust_9="42.66547"></scales>
<clustering>
<clus scale="   42.665">  2  9  1 -1</clus>
<clus scale="   78.368">  5  6 -1 -1</clus>
<clus scale="   89.279">  1  5  2 -1</clus>
<clus scale="   91.878">  7  8 -1 -1</clus>
<clus scale="   42.665">  2  5  1 -1</clus>
</clustering>
</event>
<event>
 9    2  0.3745229E-005  0.2155659E+03  0.7546771E-02  0.1168635E+00
         21   -1    0    0  501  502  0.00000000000E+00  0.00000000000E+00  0.13329273313E+03  0.13329273313E+03  0.00000000000E+00 0.  1.
         -3   -1    0    0    0  501 -0.00000000000E+00 -0.00000000000E+00 -0.54108662500E+03  0.54108662500E+03  0.00000000000E+00 0.  1.
         23    2    1    2    0    0  0.40048501227E+02  0.21768197483E+02 -0.85539151056E+02  0.13374567741E+03  0.92158683756E+02 0.  0.
         24    2    1    2    0    0  0.62427003573E+01 -0.20832572408E+03 -0.24460075787E+03  0.33332539062E+03  0.88530823231E+02 0.  0.
        -13    1    4    4    0    0  0.10494444039E+02 -0.15817793062E+03 -0.23277249480E+03  0.28162639334E+03  0.00000000000E+00 0.  1.
         14    1    4    4    0    0 -0.42517436820E+01 -0.50147793455E+02 -0.11828263077E+02  0.51698997284E+02  0.00000000000E+00 0. -1.
        -13    1    3    3    0    0  0.56115532239E+01  0.23636917908E+02  0.14250168588E+02  0.28164884565E+02  0.00000000000E+00 0.  1.
         13    1    3    3    0    0  0.34436948003E+02 -0.18687204253E+01 -0.99789319644E+02  0.10558079285E+03  0.00000000000E+00 0. -1.
         -4    1    1    2    0  502 -0.46291201584E+02  0.18655752659E+03 -0.77653982944E+02  0.20730829009E+03  0.00000000000E+00 0.  1.
<scales pt_clust_5="13000.00000" pt_clust_6="13000.00000" pt_clust_7="13000.00000" pt_clust_8="13000.00000" pt_clust_9="196.54760"></scales>
<clustering>
<clus scale="   88.531">  5  6 -1 -1</clus>
<clus scale="   92.159">  7  8 -1 -1</clus>
<clus scale="  102.815">  2  7  1 -1</clus>
<clus scale="  196.548">  1  9  2 -1</clus>
<clus scale="  196.548">  1  5  2 -1</clus>
</clustering>
</event>
<event>
 9    2  0.3745229E-005  0.9299526E+02  0.7546771E-02  0.1302810E+00
         21   -1    0    0  501  502  0.00000000000E+00  0.00000000000E+00  0.49436331266E+03  0.49436331266E+03  0.00000000000E+00 0. -1.
         -3   -1    0    0    0  501 -0.00000000000E+00 -0.00000000000E+00 -0.43477899935E+02  0.43477899935E+02  0.00000000000E+00 0.  1.
         24    2    1    2    0    0 -0.35605029621E+01 -0.76240367865E+01  0.11647483276E+02  0.82491467213E+02  0.81230383343E+02 0.  0.
         23    2    1    2    0    0 -0.16730827940E+02  0.11637445540E+02  0.30149420954E+03  0.31606163414E+03  0.92632863746E+02 0.  0.
        -11    1    3    3    0    0 -0.16954546689E+02 -0.32321432905E+02 -0.18805165312E+02  0.41058079849E+02  0.00000000000E+00 0.  1.
         12    1    3    3    0    0  0.13394043727E+02  0.24697396118E+02  0.30452648589E+02  0.41433387364E+02  0.00000000000E+00 0. -1.
        -11    1    4    4    0    0  0.31547868209E+02 -0.11074355559E+02  0.18410391214E+03  0.18711536496E+03  0.00000000000E+00 0. -1.
         11    1    4    4    0    0 -0.48278696148E+02  0.22711801099E+02  0.11739029741E+03  0.12894626918E+03  0.00000000000E+00 0.  1.
         -4    1    1    2    0  502  0.20291330902E+02 -0.40134087533E+01  0.13774371990E+03  0.13928811124E+03  0.00000000000E+00 0.  1.
<scales pt_clust_5="13000.00000" pt_clust_6="13000.00000" pt_clust_7="13000.00000" pt_clust_8="13000.00000" pt_clust_9="20.68443"></scales>
<clustering>
<clus scale="   20.684">  1  9  2 -1</clus>
<clus scale="   81.230">  5  6 -1 -1</clus>
<clus scale="   81.643">  2  5  1 -1</clus>
<clus scale="   92.633">  7  8 -1 -1</clus>
<clus scale="   20.684">  1  5  2 -1</clus>
</clustering>
</event>
<event>
 9    2  0.3745229E-005  0.1033289E+03  0.7546771E-02  0.1281014E+00
          2   -1    0    0  502    0 -0.00000000000E+00  0.00000000000E+00  0.42868354559E+02  0.42868354559E+02  0.00000000000E+00 0. -1.
         21   -1    0    0  501  502  0.00000000000E+00 -0.00000000000E+00 -0.61501054289E+03  0.61501054289E+03  0.00000000000E+00 0.  1.
         23    2    1    2    0    0 -0.38847262178E+02 -0.24341380543E+00 -0.40635659646E+02  0.11036947439E+03  0.94978918781E+02 0.  0.
         24    2    1    2    0    0  0.46825736132E+02  0.26152785918E+02 -0.31475361699E+03  0.32906772298E+03  0.79618522453E+02 0.  0.
        -13    1    4    4    0    0  0.59671852578E+02 -0.31652404430E+01 -0.24711990170E+03  0.25424199998E+03  0.00000000000E+00 0.  1.
         14    1    4    4    0    0 -0.12846116445E+02  0.29318026361E+02 -0.67633715296E+02  0.74825722998E+02  0.00000000000E+00 0. -1.
        -13    1    3    3    0    0  0.21067602879E+01 -0.31203689707E+02 -0.49221306747E+02  0.58316770556E+02  0.00000000000E+00 0.  1.
         13    1    3    3    0    0 -0.40954022466E+02  0.30960275901E+02  0.85856471013E+01  0.52052703831E+02  0.00000000000E+00 0. -1.
          1    1    1    2  501    0 -0.79784739541E+01 -0.25909372113E+02 -0.21675291169E+03  0.21844170008E+03  0.00000000000E+00 0. -1.
<scales pt_clust_5="13000.00000" pt_clust_6="13000.00000" pt_clust_7="13000.00000" pt_clust_8="13000.00000" pt_clust_9="27.10999"></scales>
<clustering>
<clus scale="   27.110">  2  9  1 -1</clus>
<clus scale="   79.619">  5  6 -1 -1</clus>
<clus scale="   89.415">  2  5  1 -1</clus>
<clus scale="   94.979">  7  8 -1 -1</clus>
<clus scale="   27.110">  2  5  1 -1</clus>
</clustering>
</event>
<event>
 9    2  0.3745229E-005  0.1231862E+03  0.7546771E-02  0.1241139E+00
         21   -1    0    0  501  502  0.00000000000E+00  0.00000000000E+00  0.11187459194E+03  0.11187459194E+03  0.00000000000E+00 0. -1.
          2   -1    0    0  502    0 -0.00000000000E+00 -0.00000000000E+00 -0.33451785817E+03  0.33451785817E+03  0.00000000000E+00 0. -1.
         24    2    1    2    0    0  0.58531977624E+02 -0.72015415465E+02 -0.21790733817E+03  0.25006122972E+03  0.80217193356E+02 0.  0.
         23    2    1    2    0    0  0.19994196539E+02  0.67254496131E+02  0.13019123849E+02  0.11568217669E+03  0.91049070692E+02 0.  0.
        -11    1    3    3    0    0  0.31398912076E+02  0.79038225026E+01 -0.99626252666E+02  0.10475567913E+03  0.00000000000E+00 0.  1.
         12    1    3    3    0    0  0.27133065547E+02 -0.79919237968E+02 -0.11828108551E+03  0.14530555059E+03  0.00000000000E+00 0. -1.
        -13    1    4    4    0    0  0.55173888433E+02  0.27160407291E+02  0.95015295609E+01  0.62226399165E+02  0.00000000000E+00 0. -1.
         13    1    4    4    0    0 -0.35179691895E+02  0.40094088840E+02  0.35175942883E+01  0.53455777529E+02  0.00000000000E+00 0.  1.
          1    1    1    2  501    0 -0.78526174162E+02  0.47609193343E+01 -0.17755051910E+02  0.80649043700E+02  0.00000000000E+00 0. -1.
<scales pt_clust_5="13000.00000" pt_clust_6="13000.00000" pt_clust_7="13000.00000" pt_clust_8="13000.00000" pt_clust_9="78.67037"></scales>
<clustering>
<clus scale="   78.670">  1  9  2 -1</clus>
<clus scale="   80.217">  5  6 -1 -1</clus>
<clus scale="   91.049">  7  8 -1 -1</clus>
<clus scale="  115.411">  2  5  1 -1</clus>
<clus scale="   78.670">  1  5  2 -1</clus>
</clustering>
</event>
<event>
 9    2  0.3745229E-005  0.1007422E+03  0.7546771E-02  0.1285096E+00
          2   -1    0    0  502    0 -0.00000000000E+00  0.00000000000E+00  0.19248309196E+03  0.19248309196E+03  0.00000000000E+00 0. -1.
         21   -1    0    0  501  502  0.00000000000E+00 -0.00000000000E+00 -0.42823049343E+03  0.42823049343E+03  0.00000000000E+00 0. -1.
         23    2    1    2    0    0  0.85824057550E+01 -0.46526935509E+02  0.16315876162E+03  0.19276424017E+03  0.91098064634E+02 0.  0.
         24    2    1    2    0    0 -0.68223343020E+01 -0.25618469898E+02 -0.22289084169E+03  0.23771409416E+03  0.78261184576E+02 0.  0.
        -11    1    4    4    0    0 -0.30659819310E+02  0.34444558756E+01 -0.17029552227E+03  0.17306777199E+03  0.00000000000E+00 0.  1.
         12    1    4    4    0    0  0.23837485008E+02 -0.29062925774E+02 -0.52595319413E+02  0.64646322171E+02  0.00000000000E+00 0. -1.
        -11    1    3    3    0    0 -0.37925750949E+02 -0.20220985012E+02  0.40859530085E+02  0.59302209223E+02  0.00000000000E+00 0.  1.
         11    1    3    3    0    0  0.46508156704E+02 -0.26305950497E+02  0.12229923153E+03  0.13346203095E+03  0.00000000000E+00 0. -1.
          1    1    1    2  501    0 -0.17600714530E+01  0.72145405407E+02 -0.17601532140E+03  0.19023525105E+03  0.00000000000E+00 0. -1.
<scales pt_clust_5="13000.00000" pt_clust_6="13000.00000" pt_clust_7="13000.00000" pt_clust_8="13000.00000" pt_clust_9="72.16687"></scales>
<clustering>
<clus scale="   72.167">  2  9  1 -1</clus>
<clus scale="   78.261">  5  6 -1 -1</clus>
<clus scale="   89.303">  2  5  1 -1</clus>
<clus scale="   91.098">  7  8 -1 -1</clus>
<clus scale="   72.167">  2  5  1 -1</clus>
</clustering>
</event>
<event>
 9    2  0.3745229E-005  0.2164407E+03  0.7546771E-02  0.1166626E+00
         21   -1    0    0  501  502  0.00000000000E+00  0.00000000000E+00  0.48408924940E+03  0.48408924940E+03  0.00000000000E+00 0.  1.
         -1   -1    0    0    0  501 -0.00000000000E+00 -0.00000000000E+00 -0.30489272639E+03  0.30489272639E+03  0.00000000000E+00 0.  1.
         24    2    1    2    0    0 -0.50450595399E+02  0.47067978629E+02  0.31646569451E+02  0.11097819548E+03  0.80956762070E+02 0.  0.
         23    2    1    2    0    0  0.18686154190E+03  0.77991140695E+02  0.34404223555E+03  0.40808352073E+03  0.84659590028E+02 0.  0.
        -11    1    3    3    0    0 -0.28960250650E+02  0.45797218549E+02 -0.17811475366E+02  0.57037969803E+02  0.00000000000E+00 0.  1.
         12    1    3    3    0    0 -0.21490344749E+02  0.12707600807E+01  0.49458044817E+02  0.53940225674E+02  0.00000000000E+00 0. -1.
        -11    1    4    4    0    0  0.23085207688E+02  0.10505854654E+02  0.11909142694E+03  0.12176234133E+03  0.00000000000E+00 0. -1.
         11    1    4    4    0    0  0.16377633421E+03  0.67485286041E+02  0.22495080861E+03  0.28632117940E+03  0.00000000000E+00 0.  1.
         -2    1    1    2    0  502 -0.13641094650E+03 -0.12505911932E+03 -0.19649228199E+03  0.26992025958E+03  0.00000000000E+00 0.  1.
<scales pt_clust_5="13000.00000" pt_clust_6="13000.00000" pt_clust_7="13000.00000" pt_clust_8="13000.00000" pt_clust_9="199.19677"></scales>
<clustering>
<clus scale="   80.957">  5  6 -1 -1</clus>
<clus scale="   84.660">  7  8 -1 -1</clus>
<clus scale="  106.370">  2  5  1 -1</clus>
<clus scale="  199.197">  1  9  2 -1</clus>
<clus scale="  199.197">  1  5  2 -1</clus>
</clustering>
</event>
<event>
 9    2  0.3745229E-005  0.1559603E+03  0.7546771E-02  0.1194577E+00
         -1   -1    0    0    0  501 -0.00000000000E+00  0.00000000000E+00  0.27116034956E+03  0.27116034956E+03  0.00000000000E+00 0.  1.
         21   -1    0    0  501  502  0.00000000000E+00 -0.00000000000E+00 -0.25277472756E+03  0.25277472756E+03  0.00000000000E+00 0.  1.
         23    2    1    2    0    0  0.12606883211E+03  0.13030549653E+02  0.16682939643E+03  0.22848504971E+03  0.91160434269E+02 0.  0.
         24    2    1    2    0    0 -0.11952148150E+03 -0.52711432769E+02 -0.14805540789E+02  0.15589137388E+03  0.83779691618E+02 0.  0.
        -13    1    4    4    0    0 -0.86016206918E+02 -0.62096333405E+02 -0.39522391362E+02  0.11321113856E+03  0.00000000000E+00 0.  1.
         14    1    4    4    0    0 -0.33505274578E+02  0.93849006367E+01  0.24716850573E+02  0.42680235317E+02  0.00000000000E+00 0. -1.
        -11    1    3    3    0    0  0.71890059609E+02  0.52165965605E+02  0.86432796922E+02  0.12393585850E+03  0.00000000000E+00 0. -1.
         11    1    3    3    0    0  0.54178772497E+02 -0.39135415952E+02  0.80396599506E+02  0.10454919121E+03  0.00000000000E+00 0.  1.
         -2    1    1    2    0  502 -0.65473506105E+01  0.39680883116E+02 -0.13363823364E+03  0.13955865353E+03  0.00000000000E+00 0.  1.
<scales pt_clust_5="13000.00000" pt_clust_6="13000.00000" pt_clust_7="13000.00000" pt_clust_8="13000.00000" pt_clust_9="40.21741"></scales>
<clustering>
<clus scale="   40.217">  2  9  1 -1</clus>
<clus scale="   83.780">  5  6 -1 -1</clus>
<clus scale="   91.160">  7  8 -1 -1</clus>
<clus scale="  151.764">  2  5  1 -1</clus>
<clus scale="   40.217">  2  5  1 -1</clus>
</clustering>
</event>
<event>
 9    2  0.3745229E-005  0.1154366E+03  0.7546771E-02  0.1257029E+00
         -3   -1    0    0    0  501 -0.00000000000E+00  0.00000000000E+00  0.46928993858E+03  0.46928993858E+03  0.00000000000E+00 0.  1.
         21   -1    0    0  501  502  0.00000000000E+00 -0.00000000000E+00 -0.33261183686E+02  0.33261183686E+02  0.00000000000E+00 0.  1.
         24    2    1    2    0    0 -0.57065708752E+02  0.13650876539E+02  0.16983020553E+03  0.19686055862E+03  0.80429716424E+02 0.  0.
         23    2    1    2    0    0  0.70024106591E+02  0.10514863303E+02  0.19000169889E+03  0.22470992967E+03  0.96850240361E+02 0.  0.
        -11    1    3    3    0    0 -0.27168066450E+02  0.41066669003E+02  0.49262342623E+02  0.69651658547E+02  0.00000000000E+00 0.  1.
         12    1    3    3    0    0 -0.29897642302E+02 -0.27415792464E+02  0.12056786291E+03  0.12720890008E+03  0.00000000000E+00 0. -1.
        -13    1    4    4    0    0  0.72950101516E+02 -0.30265829507E+02  0.12969320982E+03  0.15184882753E+03  0.00000000000E+00 0.  1.
         13    1    4    4    0    0 -0.29259949245E+01  0.40780692810E+02  0.60308489064E+02  0.72861102144E+02  0.00000000000E+00 0. -1.
         -4    1    1    2    0  502 -0.12958397839E+02 -0.24165739842E+02  0.76196850475E+02  0.80980633975E+02  0.00000000000E+00 0.  1.
<scales pt_clust_5="13000.00000" pt_clust_6="13000.00000" pt_clust_7="13000.00000" pt_clust_8="13000.00000" pt_clust_9="27.42086"></scales>
<clustering>
<clus scale="   27.421">  2  9  1 -1</clus>
<clus scale="   80.430">  5  6 -1 -1</clus>
<clus scale="   96.850">  7  8 -1 -1</clus>
<clus scale="  102.052">  1  5  2 -1</clus>
<clus scale="   27.421">  2  5  1 -1</clus>
</clustering>
</event>
<event>
 9    2  0.3745229E-005  0.1019440E+03  0.7546771E-02  0.1280307E+00
          2   -1    0    0  502    0 -0.00000000000E+00  0.00000000000E+00  0.28238910020E+03  0.28238910020E+03  0.00000000000E+00 0. -1.
         21   -1    0    0  501  502  0.00000000000E+00 -0.00000000000E+00 -0.18378711728E+03  0.18378711728E+03  0.00000000000E+00 0. -1.
         24    2    1    2    0    0  0.18211008593E+02  0.41076341858E+02  0.20736733827E+03  0.22712601503E+03  0.81031518738E+02 0.  0.
         23    2    1    2    0    0 -0.13813849872E+02 -0.64922020951E+02  0.15275774036E+02  0.11266130580E+03  0.89741458084E+02 0.  0.
        -11    1    3    3    0    0 -0.18947067562E+02  0.25287407468E+02  0.24856845041E+02  0.40203321891E+02  0.00000000000E+00 0.  1.
         12    1    3    3    0    0  0.37158076155E+02  0.15788934389E+02  0.18251049323E+03  0.18692269314E+03  0.00000000000E+00 0. -1.
        -13    1    4    4    0    0 -0.41576403327E+02 -0.22212891678E+02  0.34287893789E+02  0.58289531915E+02  0.00000000000E+00 0.  1.
         13    1    4    4    0    0  0.27762553455E+02 -0.42709129274E+02 -0.19012119753E+02  0.54371773883E+02  0.00000000000E+00 0. -1.
          1    1    1    2  501    0 -0.43971587211E+01  0.23845679093E+02 -0.12404112939E+03  0.12638889665E+03  0.00000000000E+00 0. -1.
<scales pt_clust_5="13000.00000" pt_clust_6="13000.00000" pt_clust_7="13000.00000" pt_clust_8="13000.00000" pt_clust_9="24.24771"></scales>
<clustering>
<clus scale="   24.248">  2  9  1 -1</clus>
<clus scale="   81.032">  5  6 -1 -1</clus>
<clus scale="   89.741">  7  8 -1 -1</clus>
<clus scale="   94.367">  1  5  2 -1</clus>
<clus scale="   24.248">  2  5  1 -1</clus>
</clustering>
</event>
<event>
 9    2  0.3745229E-005  0.1147989E+03  0.7546771E-02  0.1255128E+00
          2   -1    0    0  502    0 -0.00000000000E+00  0.00000000000E+00  0.31907833337E+03  0.31907833337E+03  0.00000000000E+00 0. -1.
         21   -1    0    0  501  502  0.00000000000E+00 -0.00000000000E+00 -0.64007671032E+02  0.64007671032E+02  0.00000000000E+00 0. -1.
         24    2    1    2    0    0 -0.18331765058E+02  0.59662845916E+02  0.16842694374E+03  0.19716761586E+03  0.81312511789E+02 0.  0.
         23    2    1    2    0    0  0.39237042598E+02 -0.85900337484E+02  0.65442229195E+02  0.14623287802E+03  0.90459691351E+02 0.  0.
        -13    1    3    3    0    0 -0.36569917956E+01  0.42055714615E+02  0.16904731292E+03  0.17423848808E+03  0.00000000000E+00 0.  1.
         14    1    3    3    0    0 -0.14674773262E+02  0.17607131301E+02 -0.62036918362E+00  0.22929127782E+02  0.00000000000E+00 0. -1.
        -13    1    4    4    0    0  0.37041973588E+02  0.63637558521E+01  0.26893629064E+02  0.46215500431E+02  0.00000000000E+00 0. -1.
         13    1    4    4    0    0  0.21950690096E+01 -0.92264093336E+02  0.38548600130E+02  0.10001737759E+03  0.00000000000E+00 0.  1.
          1    1    1    2  501    0 -0.20905277540E+02  0.26237491568E+02  0.21201489404E+02  0.39685510526E+02  0.00000000000E+00 0. -1.
<scales pt_clust_5="13000.00000" pt_clust_6="13000.00000" pt_clust_7="13000.00000" pt_clust_8="13000.00000" pt_clust_9="33.54753"></scales>
<clustering>
<clus scale="   33.548">  2  9  1 -1</clus>
<clus scale="   81.313">  5  6 -1 -1</clus>
<clus scale="   90.460">  7  8 -1 -1</clus>
<clus scale="  107.738">  1  5  2 -1</clus>
<clus scale="   33.548">  2  5  1 -1</clus>
</clustering>
</event>
<event>
 9    2  0.3745229E-005  0.1368809E+03  0.7546771E-02  0.1219794E+00
         21   -1    0    0  501  502  0.00000000000E+00  0.00000000000E+00  0.46114679968E+02  0.46114679968E+02  0.00000000000E+00 0.  1.
          2   -1    0    0  502    0 -0.00000000000E+00 -0.00000000000E+00 -0.52313342960E+03  0.52313342960E+03  0.00000000000E+00 0. -1.
         23    2    1    2    0    0 -0.85730405777E+02 -0.69207748029E+02 -0.32912819333E+03  0.35918977717E+03  0.92479800555E+02 0.  0.
         24    2    1    2    0    0  0.75895255017E+02  0.41974065881E+02 -0.12292302221E+03  0.17182508258E+03  0.83017333571E+02 0.  0.
        -11    1    4    4    0    0  0.18731891751E+02  0.57185378622E+02 -0.52524791899E+02  0.79874307889E+02  0.00000000000E+00 0.  1.
         12    1    4    4    0    0  0.57163363265E+02 -0.15211312741E+02 -0.70398230308E+02  0.91950774687E+02  0.00000000000E+00 0. -1.
        -11    1    3    3    0    0  0.17160790075E+02 -0.18447040421E+02 -0.32330378354E+02  0.40988283458E+02  0.00000000000E+00 0.  1.
         11    1    3    3    0    0 -0.10289119585E+03 -0.50760707607E+02 -0.29679781498E+03  0.31820149371E+03  0.00000000000E+00 0. -1.
          1    1    1    2  501    0  0.98351507608E+01  0.27233682148E+02 -0.24967534095E+02  0.38233249831E+02  0.00000000000E+00 0. -1.
<scales pt_clust_5="13000.00000" pt_clust_6="13000.00000" pt_clust_7="13000.00000" pt_clust_8="13000.00000" pt_clust_9="28.95520"></scales>
<clustering>
<clus scale="   28.955">  1  9  2 -1</clus>
<clus scale="   83.017">  5  6 -1 -1</clus>
<clus scale="   92.480">  7  8 -1 -1</clus>
<clus scale="  130.674">  1  5  2 -1</clus>
<clus scale="   28.955">  1  5  2 -1</clus>
</clustering>
</event>
<event>
 9    2  0.3745229E-005  0.1736575E+03  0.7546771E-02  0.1175374E+00
          2   -1    0    0  502    0 -0.00000000000E+00  0.00000000000E+00  0.62849640684E+03  0.62849640684E+03  0.00000000000E+00 0. -1.
         21   -1    0    0  501  502  0.00000000000E+00 -0.00000000000E+00 -0.74973686521E+02  0.74973686521E+02  0.00000000000E+00 0. -1.
         23    2    1    2    0    0 -0.34296151391E+02 -0.15969749704E+03  0.41790960888E+03  0.45760283714E+03  0.89846529137E+02 0.  0.
         24    2    1    2    0    0  0.52041665562E+02  0.11409045938E+03  0.12840210682E+03  0.19640106833E+03  0.79757825512E+02 0.  0.
        -11    1    4    4    0    0 -0.11330088499E+02  0.45288040159E+02  0.14231745873E+02  0.48804918578E+02  0.00000000000E+00 0.  1.
         12    1    4    4    0    0  0.63371754062E+02  0.68802419221E+02  0.11417036095E+03  0.14759614976E+03  0.00000000000E+00 0. -1.
        -13    1    3    3    0    0  0.29413341594E+02 -0.64137441098E+02  0.18265887441E+03  0.19581373908E+03  0.00000000000E+00 0.  1.
         13    1    3    3    0    0 -0.63709492985E+02 -0.95560055939E+02  0.23525073447E+03  0.26178909805E+03  0.00000000000E+00 0. -1.
          1    1    1    2  501    0 -0.17745514172E+02  0.45607037658E+02  0.72110046167E+01  0.49466187894E+02  0.00000000000E+00 0. -1.
<scales pt_clust_5="13000.00000" pt_clust_6="13000.00000" pt_clust_7="13000.00000" pt_clust_8="13000.00000" pt_clust_9="48.93777"></scales>
<clustering>
<clus scale="   48.938">  2  9  1 -1</clus>
<clus scale="   79.758">  5  6 -1 -1</clus>
<clus scale="   89.847">  7  8 -1 -1</clus>
<clus scale="  168.659">  2  5  1 -1</clus>
<clus scale="   48.938">  2  5  1 -1</clus>
</clustering>
</event>
<event>
 9    2  0.3745229E-005  0.9838381E+02  0.7546771E-02  0.1288138E+00
         21   -1    0    0  501  502  0.00000000000E+00  0.00000000000E+00  0.26883960747E+03  0.26883960747E+03  0.00000000000E+00 0.  1.
          2   -1    0    0  502    0 -0.00000000000E+00 -0.00000000000E+00 -0.11171931203E+03  0.11171931203E+03  0.00000000000E+00 0. -1.
         23    2    1    2    0    0  0.35450042163E+00 -0.40017689912E+02 -0.68932462993E+02  0.11904695403E+03  0.88424836060E+02 0.  0.
         24    2    1    2    0    0  0.78418876115E+01  0.63956000652E+02  0.15224928061E+03  0.18349160380E+03  0.79608165404E+02 0.  0.
        -13    1    4    4    0    0 -0.11293818266E+02  0.51879814993E+02  0.15184529422E+03  0.16086037086E+03  0.00000000000E+00 0.  1.
         14    1    4    4    0    0  0.19135705878E+02  0.12076185659E+02  0.40398638405E+00  0.22631232942E+02  0.00000000000E+00 0. -1.
        -11    1    3    3    0    0  0.22741244728E+02  0.21617079448E+02 -0.19701217787E+02  0.37048620999E+02  0.00000000000E+00 0.  1.
         11    1    3    3    0    0 -0.22386744306E+02 -0.61634769360E+02 -0.49231245206E+02  0.81998333028E+02  0.00000000000E+00 0. -1.
          1    1    1    2  501    0 -0.81963880331E+01 -0.23938310740E+02  0.73803477822E+02  0.78020361678E+02  0.00000000000E+00 0. -1.
<scales pt_clust_5="13000.00000" pt_clust_6="13000.00000" pt_clust_7="13000.00000" pt_clust_8="13000.00000" pt_clust_9="25.30264"></scales>
<clustering>
<clus scale="   25.303">  1  9  2 -1</clus>
<clus scale="   79.608">  5  6 -1 -1</clus>
<clus scale="   88.425">  7  8 -1 -1</clus>
<clus scale="   90.542">  1  5  2 -1</clus>
<clus scale="   25.303">  1  5  2 -1</clus>
</clustering>
</event>
<event>
 9    2  0.3745229E-005  0.3338287E+03  0.7546771E-02  0.1086483E+00
          2   -1    0    0  502    0 -0.00000000000E+00  0.00000000000E+00  0.23180868615E+03  0.23180868615E+03  0.00000000000E+00 0. -1.
         21   -1    0    0  501  502  0.00000000000E+00 -0.00000000000E+00 -0.12063659638E+04  0.12063659638E+04  0.00000000000E+00 0. -1.
         24    2    1    2    0    0  0.69115788477E+01 -0.19489867009E+03 -0.25409672112E+03  0.33005256833E+03  0.79600833222E+02 0.  0.
         23    2    1    2    0    0  0.15614220351E+03 -0.12247210750E+03  0.81040069563E+02  0.23078862163E+03  0.85534146216E+02 0.  0.
        -11    1    3    3    0    0 -0.23918980102E+02 -0.41797390864E+02 -0.29434933439E+02  0.56440719332E+02  0.00000000000E+00 0.  1.
         12    1    3    3    0    0  0.30830558949E+02 -0.15310127922E+03 -0.22466178769E+03  0.27361184900E+03  0.00000000000E+00 0. -1.
        -13    1    4    4    0    0  0.65313847339E+02 -0.19511230401E+02 -0.56713912485E+01  0.68401399435E+02  0.00000000000E+00 0.  1.
         13    1    4    4    0    0  0.90828356170E+02 -0.10296087710E+03  0.86711460811E+02  0.16238722220E+03  0.00000000000E+00 0. -1.
          1    1    1    2  501    0 -0.16305378236E+03  0.31737077758E+03 -0.80150062610E+03  0.87733346000E+03  0.00000000000E+00 0. -1.
<scales pt_clust_5="13000.00000" pt_clust_6="13000.00000" pt_clust_7="13000.00000" pt_clust_8="13000.00000" pt_clust_9="322.68481"></scales>
<clustering>
<clus scale="   79.601">  5  6 -1 -1</clus>
<clus scale="   85.534">  7  8 -1 -1</clus>
<clus scale="  210.641">  1  5  2 -1</clus>
<clus scale="  322.685">  2  9  1 -1</clus>
<clus scale="  322.685">  2  5  1 -1</clus>
</clustering>
</event>
<event>
 9    2  0.3745229E-005  0.1517487E+03  0.7546771E-02  0.1230905E+00
         -3   -1    0    0    0  501 -0.00000000000E+00  0.00000000000E+00  0.11176195441E+03  0.11176195441E+03  0.00000000000E+00 0.  1.
         21   -1    0    0  501  502  0.00000000000E+00 -0.00000000000E+00 -0.30930232116E+03  0.30930232116E+03  0.00000000000E+00 0.  1.
         23    2    1    2    0    0 -0.24370723403E+01 -0.19628675947E+02 -0.99374802054E+02  0.12517068743E+03  0.73492349713E+02 0.  0.
         24    2    1    2    0    0  0.60937332807E+02 -0.97733189068E+02 -0.26364997785E+02  0.14638971112E+03  0.86427424117E+02 0.  0.
        -11    1    4    4    0    0  0.58904334995E+02 -0.14833055829E+02 -0.62803300415E+01  0.61067035067E+02  0.00000000000E+00 0.  1.
         12    1    4    4    0    0  0.20329978117E+01 -0.82900133238E+02 -0.20084667744E+02  0.85322676056E+02  0.00000000000E+00 0. -1.
        -13    1    3    3    0    0  0.34732246693E+02 -0.17099982275E+02 -0.54413892978E+02  0.66780312242E+02  0.00000000000E+00 0.  1.
         13    1    3    3    0    0 -0.37169319033E+02 -0.25286936718E+01 -0.44960909076E+02  0.58390375183E+02  0.00000000000E+00 0. -1.
         -4    1    1    2    0  502 -0.58500260466E+02  0.11736186501E+03 -0.71800566917E+02  0.14950387702E+03  0.00000000000E+00 0.  1.
<scales pt_clust_5="13000.00000" pt_clust_6="13000.00000" pt_clust_7="13000.00000" pt_clust_8="13000.00000" pt_clust_9="124.73161"></scales>
<clustering>
<clus scale="   73.492">  7  8 -1 -1</clus>
<clus scale="   76.108">  1  7  2 -1</clus>
<clus scale="   86.427">  5  6 -1 -1</clus>
<clus scale="  124.732">  2  9  1 -1</clus>
<clus scale="  124.732">  2  5  1 -1</clus>
</clustering>
</event>
<event>
 9    2  0.3745229E-005  0.1225133E+03  0.7546771E-02  0.1241234E+00
          4   -1    0    0  502    0 -0.00000000000E+00  0.00000000000E+00  0.62057375453E+02  0.62057375453E+02  0.00000000000E+00 0. -1.
         21   -1    0    0  501  502  0.00000000000E+00 -0.00000000000E+00 -0.69289698475E+03  0.69289698475E+03  0.00000000000E+00 0. -1.
         23    2    1    2    0    0 -0.75187075079E+02  0.46080785246E+02 -0.36406905065E+02  0.13056365713E+03  0.89134004729E+02 0.  0.
         24    2    1    2    0    0  0.25717080620E+02 -0.82676365632E+02 -0.28362275148E+03  0.30754792884E+03  0.81529833225E+02 0.  0.
        -13    1    4    4    0    0 -0.25211888880E+02 -0.53519454007E+01 -0.74899946052E+02  0.79210381763E+02  0.00000000000E+00 0.  1.
         14    1    4    4    0    0  0.50928969500E+02 -0.77324420231E+02 -0.20872280543E+03  0.22833754708E+03  0.00000000000E+00 0. -1.
        -13    1    3    3    0    0 -0.34769476223E+02 -0.22735095005E+02 -0.28471154330E+02  0.50362760554E+02  0.00000000000E+00 0.  1.
         13    1    3    3    0    0 -0.40417598856E+02  0.68815880251E+02 -0.79357507356E+01  0.80200896577E+02  0.00000000000E+00 0. -1.
          3    1    1    2  501    0  0.49469994459E+02  0.36595580386E+02 -0.31080995275E+03  0.31684277424E+03  0.00000000000E+00 0. -1.
<scales pt_clust_5="13000.00000" pt_clust_6="13000.00000" pt_clust_7="13000.00000" pt_clust_8="13000.00000" pt_clust_9="61.53468"></scales>
<clustering>
<clus scale="   61.535">  2  9  1 -1</clus>
<clus scale="   81.530">  5  6 -1 -1</clus>
<clus scale="   89.134">  7  8 -1 -1</clus>
<clus scale="  117.097">  2  5  1 -1</clus>
<clus scale="   61.535">  2  5  1 -1</clus>
</clustering>
</event>
<event>
 9    2  0.3745229E-005  0.1167891E+03  0.7546771E-02  0.1251750E+00
          2   -1    0    0  502    0 -0.00000000000E+00  0.00000000000E+00  0.64861512308E+03  0.64861512308E+03  0.00000000000E+00 0. -1.
         21   -1    0    0  501  502  0.00000000000E+00 -0.00000000000E+00 -0.51955059608E+02  0.51955059608E+02  0.00000000000E+00 0.  1.
         23    2    1    2    0    0 -0.79886857843E+02 -0.24993975887E+02  0.19881483542E+03  0.23409951614E+03  0.90932039385E+02 0.  0.
         24    2    1    2    0    0  0.57055242466E+02 -0.82024098773E+02  0.16371283159E+03  0.20802893223E+03  0.80566071922E+02 0.  0.
        -13    1    4    4    0    0  0.40033414660E+02 -0.40894927917E+02  0.25184161626E+02  0.62524486528E+02  0.00000000000E+00 0.  1.
         14    1    4    4    0    0  0.17021827805E+02 -0.41129170855E+02  0.13852866996E+03  0.14550444570E+03  0.00000000000E+00 0. -1.
        -11    1    3    3    0    0  0.80723033393E+01 -0.33790152604E+02  0.47377748639E+02  0.58750213279E+02  0.00000000000E+00 0. -1.
         11    1    3    3    0    0 -0.87959161183E+02  0.87961767173E+01  0.15143708678E+03  0.17534930286E+03  0.00000000000E+00 0.  1.
          1    1    1    2  501    0  0.22831615377E+02  0.10701807466E+03  0.23413239646E+03  0.25844173432E+03  0.00000000000E+00 0. -1.
<scales pt_clust_5="13000.00000" pt_clust_6="13000.00000" pt_clust_7="13000.00000" pt_clust_8="13000.00000" pt_clust_9="109.42652"></scales>
<clustering>
<clus scale="   80.566">  5  6 -1 -1</clus>
<clus scale="   90.932">  7  8 -1 -1</clus>
<clus scale="  109.427">  2  9  1 -1</clus>
<clus scale="  109.427">  2  5  1 -1</clus>
<clus scale="  109.427">  2  5  1 -1</clus>
</clustering>
</event>
<event>
 9    2  0.3745229E-005  0.9657636E+02  0.7546771E-02  0.1294122E+00
          2   -1    0    0  502    0 -0.00000000000E+00  0.00000000000E+00  0.25771495485E+03  0.25771495485E+03  0.00000000000E+00 0. -1.
         21   -1    0    0  501  502  0.00000000000E+00 -0.00000000000E+00 -0.12351130597E+03  0.12351130597E+03  0.00000000000E+00 0.  1.
         23    2    1    2    0    0  0.29130825803E+02  0.98485305706E+01  0.20683072932E+03  0.22822238071E+03  0.91437989379E+02 0.  0.
         24    2    1    2    0    0 -0.41882536595E+02  0.28027235953E+02 -0.56102276930E+02  0.10975750513E+03  0.79746922377E+02 0.  0.
        -11    1    4    4    0    0 -0.64705058773E+02  0.29871719763E+02 -0.39570010733E+02  0.81515949493E+02  0.00000000000E+00 0.  1.
         12    1    4    4    0    0  0.22822522178E+02 -0.18444838100E+01 -0.16532266197E+02  0.28241555635E+02  0.00000000000E+00 0. -1.
        -11    1    3    3    0    0  0.40726917503E+02 -0.21561577307E+02  0.50580127979E+02  0.68424650322E+02  0.00000000000E+00 0.  1.
         11    1    3    3    0    0 -0.11596091699E+02  0.31410107877E+02  0.15625060134E+03  0.15979773039E+03  0.00000000000E+00 0. -1.
          1    1    1    2  501    0  0.12751710791E+02 -0.37875766523E+02 -0.16524803503E+02  0.43246374977E+02  0.00000000000E+00 0. -1.
<scales pt_clust_5="13000.00000" pt_clust_6="13000.00000" pt_clust_7="13000.00000" pt_clust_8="13000.00000" pt_clust_9="39.96473"></scales>
<clustering>
<clus scale="   39.965">  2  9  1 -1</clus>
<clus scale="   79.747">  5  6 -1 -1</clus>
<clus scale="   85.590">  2  5  1 -1</clus>
<clus scale="   91.438">  7  8 -1 -1</clus>
<clus scale="   39.965">  2  5  1 -1</clus>
</clustering>
</event>
<event>
 9    2  0.3745229E-005  0.1252258E+03  0.7546771E-02  0.1253459E+00
         21   -1    0    0  501  502  0.00000000000E+00  0.00000000000E+00  0.10953267067E+04  0.10953267067E+04  0.00000000000E+00 0.  1.
         -3   -1    0    0    0  501 -0.00000000000E+00 -0.00000000000E+00 -0.39599851000E+02  0.39599851000E+02  0.00000000000E+00 0.  1.
         24    2    1    2    0    0  0.22062873168E+02 -0.17715497516E+02  0.29545125293E+03  0.30765741004E+03  0.81000184392E+02 0.  0.
         23    2    1    2    0    0  0.10822652879E+02  0.97308804724E+02  0.11400949280E+03  0.17529028506E+03  0.90235172166E+02 0.  0.
        -13    1    3    3    0    0 -0.98715884578E+01  0.28004944020E+02  0.11598880446E+03  0.11972939450E+03  0.00000000000E+00 0.  1.
         14    1    3    3    0    0  0.31934461625E+02 -0.45720441535E+02  0.17946244848E+03  0.18792801555E+03  0.00000000000E+00 0. -1.
        -11    1    4    4    0    0  0.50684200169E+02  0.52147415796E+02  0.67016289916E+02  0.98890971454E+02  0.00000000000E+00 0.  1.
         11    1    4    4    0    0 -0.39861547290E+02  0.45161388928E+02  0.46993202880E+02  0.76399313604E+02  0.00000000000E+00 0. -1.
         -4    1    1    2    0  502 -0.32885526047E+02 -0.79593307208E+02  0.64626610995E+03  0.65197886257E+03  0.00000000000E+00 0.  1.
<scales pt_clust_5="13000.00000" pt_clust_6="13000.00000" pt_clust_7="13000.00000" pt_clust_8="13000.00000" pt_clust_9="86.82805"></scales>
<clustering>
<clus scale="   81.000">  5  6 -1 -1</clus>
<clus scale="   85.800">  2  5  1 -1</clus>
<clus scale="   86.828">  1  9  2 -1</clus>
<clus scale="   90.235">  7  8 -1 -1</clus>
<clus scale="   86.828">  1  5  2 -1</clus>
</clustering>
</event>
<event>
 9    2  0.3745229E-005  0.1356736E+03  0.7546771E-02  0.1238639E+00
          4   -1    0    0  502    0 -0.00000000000E+00  0.00000000000E+00  0.24130148094E+03  0.24130148094E+03  0.00000000000E+00 0. -1.
         21   -1    0    0  501  502  0.00000000000E+00 -0.00000000000E+00 -0.27825783963E+03  0.27825783963E+03  0.00000000000E+00 0. -1.
         24    2    1    2    0    0 -0.42178737205E+02 -0.86162730593E+01 -0.11004150267E+02  0.91550593922E+02  0.80044574399E+02 0.  0.
         23    2    1    2    0    0 -0.47055056815E+02 -0.40688408393E+02  0.17227111913E+03  0.20510491511E+03  0.92309061139E+02 0.  0.
        -11    1    3    3    0    0 -0.12274227415E+02  0.30278730293E+02 -0.24300930238E+02  0.40718464819E+02  0.00000000000E+00 0.  1.
         12    1    3    3    0    0 -0.29904509790E+02 -0.38895003352E+02  0.13296779972E+02  0.50832129103E+02  0.00000000000E+00 0. -1.
        -11    1    4    4    0    0 -0.61136393918E+02 -0.74792530616E+01  0.55567349928E+02  0.82953771859E+02  0.00000000000E+00 0.  1.
         11    1    4    4    0    0  0.14081337103E+02 -0.33209155331E+02  0.11670376920E+03  0.12215114326E+03  0.00000000000E+00 0. -1.
          3    1    1    2  501    0  0.89233794020E+02  0.49304681452E+02 -0.19822332755E+03  0.22290381153E+03  0.00000000000E+00 0. -1.
<scales pt_clust_5="13000.00000" pt_clust_6="13000.00000" pt_clust_7="13000.00000" pt_clust_8="13000.00000" pt_clust_9="99.43021"></scales>
<clustering>
<clus scale="   80.045">  5  6 -1 -1</clus>
<clus scale="   90.887">  1  5  2 -1</clus>
<clus scale="   92.309">  7  8 -1 -1</clus>
<clus scale="   99.430">  2  9  1 -1</clus>
<clus scale="   99.430">  2  5  1 -1</clus>
</clustering>
</event>
<event>
 9    2  0.3745229E-005  0.9637021E+02  0.7546771E-02  0.1298940E+00
          2   -1    0    0  502    0 -0.00000000000E+00  0.00000000000E+00  0.14579313090E+04  0.14579313090E+04  0.00000000000E+00 0. -1.
         21   -1    0    0  501  502  0.00000000000E+00 -0.00000000000E+00 -0.86741894339E+01  0.86741894339E+01  0.00000000000E+00 0. -1.
         24    2    1    2    0    0 -0.21774822020E+02  0.17847570761E+02  0.87386538520E+03  0.87754133672E+03  0.75135927172E+02 0.  0.
         23    2    1    2    0    0  0.19941714910E+02  0.11765852610E+02  0.42290618184E+03  0.43371887258E+03  0.93414744623E+02 0.  0.
        -13    1    3    3    0    0 -0.21131756136E+02 -0.20632217514E+02  0.16431838912E+03  0.16695140766E+03  0.00000000000E+00 0.  1.
         14    1    3    3    0    0 -0.64306588426E+00  0.38479788275E+02  0.70954699608E+03  0.71058992906E+03  0.00000000000E+00 0. -1.
        -13    1    4    4    0    0 -0.35808645631E+02  0.17839858278E+02  0.16407518329E+03  0.16888216430E+03  0.00000000000E+00 0. -1.
         13    1    4    4    0    0  0.55750360540E+02 -0.60740056680E+01  0.25883099855E+03  0.26483670828E+03  0.00000000000E+00 0.  1.
          1    1    1    2  501    0  0.18331071106E+01 -0.29613423371E+02  0.15248555250E+03  0.15534528910E+03  0.00000000000E+00 0. -1.
<scales pt_clust_5="13000.00000" pt_clust_6="13000.00000" pt_clust_7="13000.00000" pt_clust_8="13000.00000" pt_clust_9="29.67010"></scales>
<clustering>
<clus scale="   29.670">  2  9  1 -1</clus>
<clus scale="   75.136">  5  6 -1 -1</clus>
<clus scale="   78.780">  1  5  2 -1</clus>
<clus scale="   93.415">  7  8 -1 -1</clus>
<clus scale="   29.670">  2  5  1 -1</clus>
</clustering>
</event>
<event>
 9    2  0.3745229E-005  0.9250586E+02  0.7546771E-02  0.1301809E+00
         21   -1    0    0  501  502  0.00000000000E+00  0.00000000000E+00  0.17523898253E+03  0.17523898253E+03  0.00000000000E+00 0.  1.
          2   -1    0    0  502    0 -0.00000000000E+00 -0.00000000000E+00 -0.11468171111E+03  0.11468171111E+03  0.00000000000E+00 0. -1.
         23    2    1    2    0    0  0.19441782867E+02  0.25262278890E+02  0.14365488485E+02  0.95959328862E+02  0.89362519439E+02 0.  0.
         24    2    1    2    0    0 -0.17271196351E+02  0.69857382160E+01  0.10070085599E+03  0.13059035328E+03  0.81031371766E+02 0.  0.
        -13    1    4    4    0    0 -0.31375130978E+02  0.21322782216E+02  0.10354826586E+03  0.11027829908E+03  0.00000000000E+00 0.  1.
         14    1    4    4    0    0  0.14103934627E+02 -0.14337044000E+02 -0.28474098738E+01  0.20312054195E+02  0.00000000000E+00 0. -1.
        -11    1    3    3    0    0 -0.25975195958E+02  0.22195356441E+02 -0.19393487650E+02  0.39286791875E+02  0.00000000000E+00 0.  1.
         11    1    3    3    0    0  0.45416978824E+02  0.30669224498E+01  0.33758976135E+02  0.56672536987E+02  0.00000000000E+00 0. -1.
          1    1    1    2  501    0 -0.21705865155E+01 -0.32248017106E+02 -0.54509073052E+02  0.63371011496E+02  0.00000000000E+00 0. -1.
<scales pt_clust_5="13000.00000" pt_clust_6="13000.00000" pt_clust_7="13000.00000" pt_clust_8="13000.00000" pt_clust_9="32.32100"></scales>
<clustering>
<clus scale="   32.321">  1  9  2 -1</clus>
<clus scale="   81.031">  5  6 -1 -1</clus>
<clus scale="   84.485">  1  5  2 -1</clus>
<clus scale="   89.363">  7  8 -1 -1</clus>
<clus scale="   32.321">  1  5  2 -1</clus>
</clustering>
</event>
<event>
 9    2  0.3745229E-005  0.1622085E+03  0.7546771E-02  0.1188229E+00
          4   -1    0    0  502    0 -0.00000000000E+00  0.00000000000E+00  0.95062507260E+03  0.95062507260E+03  0.00000000000E+00 0. -1.
         21   -1    0    0  501  502  0.00000000000E+00 -0.00000000000E+00 -0.55560198521E+02  0.55560198521E+02  0.00000000000E+00 0. -1.
         24    2    1    2    0    0  0.73670340374E+02  0.14277706944E+03  0.48451818094E+03  0.51638712876E+03  0.78007618083E+02 0.  0.
         23    2    1    2    0    0 -0.11306865918E+03 -0.46456874933E+02  0.30797390115E+03  0.34367837966E+03  0.91236735703E+02 0.  0.
        -11    1    3    3    0    0 -0.11558962864E+02  0.35950748964E+02  0.15747202366E+03  0.16193672903E+03  0.00000000000E+00 0.  1.
         12    1    3    3    0    0  0.85229303238E+02  0.10682632047E+03  0.32704615728E+03  0.35445039973E+03  0.00000000000E+00 0. -1.
        -13    1    4    4    0    0 -0.10830567400E+02 -0.24860885231E+02  0.16144671663E+03  0.16370829886E+03  0.00000000000E+00 0.  1.
         13    1    4    4    0    0 -0.10223809178E+03 -0.21595989702E+02  0.14652718452E+03  0.17997008081E+03  0.00000000000E+00 0. -1.
          3    1    1    2  501    0  0.39398318806E+02 -0.96320194505E+02  0.10257279199E+03  0.14611976270E+03  0.00000000000E+00 0. -1.
<scales pt_clust_5="13000.00000" pt_clust_6="13000.00000" pt_clust_7="13000.00000" pt_clust_8="13000.00000" pt_clust_9="104.06636"></scales>
<clustering>
<clus scale="   78.008">  5  6 -1 -1</clus>
<clus scale="   91.237">  7  8 -1 -1</clus>
<clus scale="  104.066">  2  9  1 -1</clus>
<clus scale="  155.154">  1  5  2 -1</clus>
<clus scale="  104.066">  2  5  1 -1</clus>
</clustering>
</event>
<event>
 9    2  0.3745229E-005  0.9249422E+02  0.7546771E-02  0.1306021E+00
          2   -1    0    0  502    0 -0.00000000000E+00  0.00000000000E+00  0.26344047892E+03  0.26344047892E+03  0.00000000000E+00 0. -1.
         21   -1    0    0  501  502  0.00000000000E+00 -0.00000000000E+00 -0.11313321722E+03  0.11313321722E+03  0.00000000000E+00 0. -1.
         23    2    1    2    0    0 -0.17388521217E+02 -0.18753426987E+01  0.20905755566E+03  0.22904508071E+03  0.91927742477E+02 0.  0.
         24    2    1    2    0    0 -0.21306970978E+02  0.29957727822E+01 -0.41607301968E+01  0.80606145726E+02  0.77569822652E+02 0.  0.
        -13    1    4    4    0    0  0.23434235589E+02 -0.10320834921E+02 -0.18706546926E+02  0.31711479452E+02  0.00000000000E+00 0.  1.
         14    1    4    4    0    0 -0.44741206567E+02  0.13316607703E+02  0.14545816729E+02  0.48894666275E+02  0.00000000000E+00 0. -1.
        -13    1    3    3    0    0 -0.16334815176E+01  0.44535016950E+02  0.99494588644E+02  0.10901930639E+03  0.00000000000E+00 0.  1.
         13    1    3    3    0    0 -0.15755039699E+02 -0.46410359649E+02  0.10956296702E+03  0.12002577432E+03  0.00000000000E+00 0. -1.
          1    1    1    2  501    0  0.38695492195E+02 -0.11204300835E+01 -0.54589563761E+02  0.66922469704E+02  0.00000000000E+00 0. -1.
<scales pt_clust_5="13000.00000" pt_clust_6="13000.00000" pt_clust_7="13000.00000" pt_clust_8="13000.00000" pt_clust_9="38.71171"></scales>
<clustering>
<clus scale="   38.712">  2  9  1 -1</clus>
<clus scale="   77.570">  5  6 -1 -1</clus>
<clus scale="   78.240">  2  5  1 -1</clus>
<clus scale="   91.928">  7  8 -1 -1</clus>
<clus scale="   38.712">  2  5  1 -1</clus>
</clustering>
</event>
<event>
 9    2  0.3745229E-005  0.9428693E+02  0.7546771E-02  0.1296595E+00
         21   -1    0    0  501  502  0.00000000000E+00  0.00000000000E+00  0.33010236044E+02  0.33010236044E+02  0.00000000000E+00 0.  1.
          2   -1    0    0  502    0 -0.00000000000E+00 -0.00000000000E+00 -0.44809810433E+03  0.44809810433E+03  0.00000000000E+00 0. -1.
         23    2    1    2    0    0  0.21782981300E+02  0.22224847727E+00 -0.22015774126E+03  0.23997936224E+03  0.92984491161E+02 0.  0.
         24    2    1    2    0    0  0.11167349048E+02 -0.33019755013E+02 -0.10893512235E+03  0.14337141303E+03  0.86449333644E+02 0.  0.
        -13    1    4    4    0    0  0.28852301103E+02 -0.20397278328E+02 -0.32583058272E+01  0.35484092196E+02  0.00000000000E+00 0.  1.
         14    1    4    4    0    0 -0.17684952055E+02 -0.12622476685E+02 -0.10567681652E+03  0.10788732083E+03  0.00000000000E+00 0. -1.
        -11    1    3    3    0    0 -0.23268642476E+02 -0.31543431488E+02 -0.73402818404E+02  0.83212928937E+02  0.00000000000E+00 0.  1.
         11    1    3    3    0    0  0.45051623776E+02  0.31765679965E+02 -0.14675492286E+03  0.15676643330E+03  0.00000000000E+00 0. -1.
          1    1    1    2  501    0 -0.32950330348E+02  0.32797506536E+02 -0.85995004681E+02  0.97757565104E+02  0.00000000000E+00 0. -1.
<scales pt_clust_5="13000.00000" pt_clust_6="13000.00000" pt_clust_7="13000.00000" pt_clust_8="13000.00000" pt_clust_9="46.49089"></scales>
<clustering>
<clus scale="   46.491">  1  9  2 -1</clus>
<clus scale="   86.449">  5  6 -1 -1</clus>
<clus scale="   87.849">  1  5  2 -1</clus>
<clus scale="   92.984">  7  8 -1 -1</clus>
<clus scale="   46.491">  1  5  2 -1</clus>
</clustering>
</event>
<event>
 9    2  0.3745229E-005  0.1263258E+03  0.7546771E-02  0.1235634E+00
         -1   -1    0    0    0  501 -0.00000000000E+00  0.00000000000E+00  0.18198649974E+03  0.18198649974E+03  0.00000000000E+00 0.  1.
         21   -1    0    0  501  502  0.00000000000E+00 -0.00000000000E+00 -0.20547736675E+03  0.20547736675E+03  0.00000000000E+00 0.  1.
         24    2    1    2    0    0  0.48760628606E+02  0.10715883531E+03  0.31896054845E+02  0.14684769551E+03  0.81769630512E+02 0.  0.
         23    2    1    2    0    0  0.52478893606E+02 -0.63012968655E+02 -0.17603699319E+02  0.12388626776E+03  0.91177018025E+02 0.  0.
        -11    1    3    3    0    0  0.11279813058E+02  0.90032625367E+02  0.47944800043E+02  0.10262461529E+03  0.00000000000E+00 0.  1.
         12    1    3    3    0    0  0.37480815549E+02  0.17126209947E+02 -0.16048745198E+02  0.44223080216E+02  0.00000000000E+00 0. -1.
        -11    1    4    4    0    0  0.23397382805E+02  0.93161200218E+01  0.24628766580E+02  0.35225044466E+02  0.00000000000E+00 0. -1.
         11    1    4    4    0    0  0.29081510801E+02 -0.72329088677E+02 -0.42232465900E+02  0.88661223290E+02  0.00000000000E+00 0.  1.
         -2    1    1    2    0  502 -0.10123952221E+03 -0.44145866658E+02 -0.37783222531E+02  0.11672990322E+03  0.00000000000E+00 0.  1.
<scales pt_clust_5="13000.00000" pt_clust_6="13000.00000" pt_clust_7="13000.00000" pt_clust_8="13000.00000" pt_clust_9="110.44591"></scales>
<clustering>
<clus scale="   81.770">  5  6 -1 -1</clus>
<clus scale="   91.177">  7  8 -1 -1</clus>
<clus scale="  110.446">  2  9  1 -1</clus>
<clus scale="  119.713">  1  5  2 -1</clus>
<clus scale="  110.446">  2  5  1 -1</clus>
</clustering>
</event>
<event>
 9    2  0.3745229E-005  0.1834641E+03  0.7546771E-02  0.1192797E+00
         -1   -1    0    0    0  501 -0.00000000000E+00  0.00000000000E+00  0.23858213846E+03  0.23858213846E+03  0.00000000000E+00 0.  1.
         21   -1    0    0  501  502  0.00000000000E+00 -0.00000000000E+00 -0.21725650526E+03  0.21725650526E+03  0.00000000000E+00 0.  1.
         24    2    1    2    0    0 -0.43801873118E+02  0.30249087704E+02 -0.36173769414E+02  0.10347582864E+03  0.81025268420E+02 0.  0.
         23    2    1    2    0    0  0.55306792101E+02  0.13900017519E+03  0.51473478894E+02  0.18261598033E+03  0.91209578929E+02 0.  0.
        -11    1    3    3    0    0 -0.21110615765E+02 -0.29970310245E+01 -0.55037307507E+02  0.59023262453E+02  0.00000000000E+00 0.  1.
         12    1    3    3    0    0 -0.22691257353E+02  0.33246118729E+02  0.18863538094E+02  0.44452566182E+02  0.00000000000E+00 0. -1.
        -11    1    4    4    0    0 -0.18202759453E+02  0.22566775184E+02 -0.11515205342E+02  0.31196149570E+02  0.00000000000E+00 0.  1.
         11    1    4    4    0    0  0.73509551554E+02  0.11643340000E+03  0.62988684236E+02  0.15141983076E+03  0.00000000000E+00 0. -1.
         -2    1    1    2    0  502 -0.11504918983E+02 -0.16924926289E+03  0.60259237190E+01  0.16974683475E+03  0.00000000000E+00 0.  1.
<scales pt_clust_5="13000.00000" pt_clust_6="13000.00000" pt_clust_7="13000.00000" pt_clust_8="13000.00000" pt_clust_9="159.18502"></scales>
<clustering>
<clus scale="   81.025">  5  6 -1 -1</clus>
<clus scale="   91.210">  7  8 -1 -1</clus>
<clus scale="   96.947">  1  5  2 -1</clus>
<clus scale="  159.185">  2  9  1 -1</clus>
<clus scale="  159.185">  2  5  1 -1</clus>
</clustering>
</event>
<event>
 9    2  0.3745229E-005  0.1044349E+03  0.7546771E-02  0.1277129E+00
         21   -1    0    0  501  502  0.00000000000E+00  0.00000000000E+00  0.12399135053E+03  0.12399135053E+03  0.00000000000E+00 0.  1.
          2   -1    0    0  502    0 -0.00000000000E+00 -0.00000000000E+00 -0.37565370261E+03  0.37565370261E+03  0.00000000000E+00 0. -1.
         24    2    1    2    0    0 -0.48775235106E+02 -0.97170187005E+01 -0.17398577814E+03  0.19774152838E+03  0.79732158115E+02 0.  0.
         23    2    1    2    0    0  0.42998698900E+02 -0.46385095577E+02  0.77839139076E+02  0.13647694712E+03  0.92555714697E+02 0.  0.
        -11    1    3    3    0    0  0.16136289926E+02 -0.14902812411E+02 -0.82978838968E+02  0.85836830013E+02  0.00000000000E+00 0.  1.
         12    1    3    3    0    0 -0.64911525032E+02  0.51857937107E+01 -0.91006939176E+02  0.11190469837E+03  0.00000000000E+00 0. -1.
        -11    1    4    4    0    0  0.24100874089E+02  0.21565590023E+02  0.52249391537E+02  0.61448561586E+02  0.00000000000E+00 0. -1.
         11    1    4    4    0    0  0.18897824810E+02 -0.67950685600E+02  0.25589747538E+02  0.75028385530E+02  0.00000000000E+00 0.  1.
          1    1    1    2  501    0  0.57765362063E+01  0.56102114277E+02 -0.15551571301E+03  0.16542657764E+03  0.00000000000E+00 0. -1.
<scales pt_clust_5="13000.00000" pt_clust_6="13000.00000" pt_clust_7="13000.00000" pt_clust_8="13000.00000" pt_clust_9="56.39875"></scales>
<clustering>
<clus scale="   56.399">  1  9  2 -1</clus>
<clus scale="   79.732">  5  6 -1 -1</clus>
<clus scale="   92.556">  7  8 -1 -1</clus>
<clus scale="   93.259">  2  5  1 -1</clus>
<clus scale="   56.399">  1  5  2 -1</clus>
</clustering>
</event>
<event>
 9    2  0.3745229E-005  0.3482841E+03  0.7546771E-02  0.1063322E+00
         21   -1    0    0  501  502  0.00000000000E+00  0.00000000000E+00  0.25596537974E+03  0.25596537974E+03  0.00000000000E+00 0. -1.
          2   -1    0    0  502    0 -0.00000000000E+00 -0.00000000000E+00 -0.43801079659E+03  0.43801079659E+03  0.00000000000E+00 0. -1.
         24    2    1    2    0    0  0.72958341324E+01 -0.66187193570E+02 -0.79967362513E+02  0.13380436664E+03  0.84112161292E+02 0.  0.
         23    2    1    2    0    0  0.38278823219E+02 -0.21884827200E+03 -0.12549515254E+03  0.27056755124E+03  0.89988510433E+02 0.  0.
        -13    1    3    3    0    0 -0.20653383780E+02 -0.14091343155E+02 -0.69375461079E+02  0.73743357758E+02  0.00000000000E+00 0.  1.
         14    1    3    3    0    0  0.27949217913E+02 -0.52095850415E+02 -0.10591901435E+02  0.60061008886E+02  0.00000000000E+00 0. -1.
        -11    1    4    4    0    0  0.54553346347E+01 -0.20033467215E+03 -0.93564726934E+02  0.22117436485E+03  0.00000000000E+00 0. -1.
         11    1    4    4    0    0  0.32823488585E+02 -0.18513599845E+02 -0.31930425602E+02  0.49393186384E+02  0.00000000000E+00 0.  1.
          1    1    1    2  501    0 -0.45574657352E+02  0.28503546557E+03  0.23417098208E+02  0.28960425845E+03  0.00000000000E+00 0. -1.
<scales pt_clust_5="13000.00000" pt_clust_6="13000.00000" pt_clust_7="13000.00000" pt_clust_8="13000.00000" pt_clust_9="288.65596"></scales>
<clustering>
<clus scale="   84.112">  5  6 -1 -1</clus>
<clus scale="   89.989">  7  8 -1 -1</clus>
<clus scale="   93.985">  5  7 -1 -1</clus>
<clus scale="  288.656">  1  9  2 -1</clus>
<clus scale="  288.656">  1  5  2 -1</clus>
</clustering>
</event>
<event>
 9    2  0.3745229E-005  0.2364418E+03  0.7546771E-02  0.1122186E+00
         21   -1    0    0  501  502  0.00000000000E+00  0.00000000000E+00  0.53183628079E+02  0.53183628079E+02  0.00000000000E+00 0.  1.
          2   -1    0    0  502    0 -0.00000000000E+00 -0.00000000000E+00 -0.65526759035E+03  0.65526759035E+03  0.00000000000E+00 0. -1.
         24    2    1    2    0    0  0.64569346163E+02 -0.69595554370E+02 -0.29285392841E+03  0.31830799613E+03  0.80893852459E+02 0.  0.
         23    2    1    2    0    0  0.34022406817E+02 -0.19112825104E+02 -0.14238433228E+03  0.17700711911E+03  0.97649361943E+02 0.  0.
        -13    1    3    3    0    0  0.76127102718E+02 -0.79063614804E+02 -0.25547853250E+03  0.27805695733E+03  0.00000000000E+00 0.  1.
         14    1    3    3    0    0 -0.11557756555E+02  0.94680604336E+01 -0.37375395911E+02  0.40251038799E+02  0.00000000000E+00 0. -1.
        -11    1    4    4    0    0  0.12872802998E+02 -0.52023946703E+02 -0.38464418664E+02  0.65967504051E+02  0.00000000000E+00 0.  1.
         11    1    4    4    0    0  0.21149603820E+02  0.32911121598E+02 -0.10391991362E+03  0.11103961506E+03  0.00000000000E+00 0. -1.
          1    1    1    2  501    0 -0.98591752980E+02  0.88708379475E+02 -0.16684570158E+03  0.21313610319E+03  0.00000000000E+00 0. -1.
<scales pt_clust_5="13000.00000" pt_clust_6="13000.00000" pt_clust_7="13000.00000" pt_clust_8="13000.00000" pt_clust_9="132.62545"></scales>
<clustering>
<clus scale="   80.894">  5  6 -1 -1</clus>
<clus scale="   97.649">  7  8 -1 -1</clus>
<clus scale="  103.680">  5  7 -1 -1</clus>
<clus scale="  132.625">  1  9  2 -1</clus>
<clus scale="  132.625">  1  5  2 -1</clus>
</clustering>
</event>
<event>
 9    2  0.3745229E-005  0.1016163E+03  0.7546771E-02  0.1280204E+00
          2   -1    0    0  502    0 -0.00000000000E+00  0.00000000000E+00  0.54624928955E+03  0.54624928955E+03  0.00000000000E+00 0. -1.
         21   -1    0    0  501  502  0.00000000000E+00 -0.00000000000E+00 -0.49940391946E+02  0.49940391946E+02  0.00000000000E+00 0. -1.
         24    2    1    2    0    0  0.58642971514E+02  0.39894675585E+02  0.31539921608E+03  0.33326355545E+03  0.80977457601E+02 0.  0.
         23    2    1    2    0    0 -0.12559036249E+01 -0.65390898639E+02  0.17400231668E+03  0.19975141085E+03  0.73118212558E+02 0.  0.
        -13    1    3    3    0    0 -0.13384696924E+02  0.29223762102E+02  0.13388414400E+03  0.13768857033E+03  0.00000000000E+00 0.  1.
         14    1    3    3    0    0  0.72027668437E+02  0.10670913483E+02  0.18151507208E+03  0.19557498512E+03  0.00000000000E+00 0. -1.
        -13    1    4    4    0    0  0.16225443789E+02 -0.13549597467E+02  0.44650555059E+01  0.21605400675E+02  0.00000000000E+00 0. -1.
         13    1    4    4    0    0 -0.17481347414E+02 -0.51841301172E+02  0.16953726117E+03  0.17814601017E+03  0.00000000000E+00 0.  1.
          1    1    1    2  501    0 -0.57387067889E+02  0.25496223053E+02  0.69073648438E+01  0.63174715195E+02  0.00000000000E+00 0. -1.
<scales pt_clust_5="13000.00000" pt_clust_6="13000.00000" pt_clust_7="13000.00000" pt_clust_8="13000.00000" pt_clust_9="62.79596"></scales>
<clustering>
<clus scale="   62.796">  2  9  1 -1</clus>
<clus scale="   73.118">  7  8 -1 -1</clus>
<clus scale="   80.977">  5  6 -1 -1</clus>
<clus scale="   95.471">  2  7  1 -1</clus>
<clus scale="   62.796">  2  5  1 -1</clus>
</clustering>
</event>
<event>
 9    2  0.3745229E-005  0.1115751E+03  0.7546771E-02  0.1261513E+00
         21   -1    0    0  501  502  0.00000000000E+00  0.00000000000E+00  0.16296434754E+03  0.16296434754E+03  0.00000000000E+00 0. -1.
         -1   -1    0    0    0  501 -0.00000000000E+00 -0.00000000000E+00 -0.36286014946E+03  0.36286014946E+03  0.00000000000E+00 0.  1.
         23    2    1    2    0    0  0.24144240167E+02  0.62897077086E+02 -0.31729520554E+03  0.33695020135E+03  0.91215152746E+02 0.  0.
         24    2    1    2    0    0  0.23335961744E+02 -0.46043046619E+02  0.64203674343E+02  0.11560620212E+03  0.81105813088E+02 0.  0.
        -11    1    4    4    0    0 -0.22624510242E+02 -0.37341138788E+02  0.11523342318E+02  0.45155470630E+02  0.00000000000E+00 0.  1.
         12    1    4    4    0    0  0.45960471986E+02 -0.87019078316E+01  0.52680332025E+02  0.70450731489E+02  0.00000000000E+00 0. -1.
        -11    1    3    3    0    0  0.49844058608E+02  0.68302639755E+01 -0.11657156032E+03  0.12696460672E+03  0.00000000000E+00 0. -1.
         11    1    3    3    0    0 -0.25699818441E+02  0.56066813110E+02 -0.20072364522E+03  0.20998559463E+03  0.00000000000E+00 0.  1.
         -2    1    1    2    0  502 -0.47480201911E+02 -0.16854030466E+02  0.53195729282E+02  0.73268093535E+02  0.00000000000E+00 0.  1.
<scales pt_clust_5="13000.00000" pt_clust_6="13000.00000" pt_clust_7="13000.00000" pt_clust_8="13000.00000" pt_clust_9="50.38281"></scales>
<clustering>
<clus scale="   50.383">  1  9  2 -1</clus>
<clus scale="   81.106">  5  6 -1 -1</clus>
<clus scale="   91.215">  7  8 -1 -1</clus>
<clus scale="  103.474">  1  5  2 -1</clus>
<clus scale="   50.383">  1  5  2 -1</clus>
</clustering>
</event>
<event>
 9    2  0.3745229E-005  0.8083067E+02  0.7546771E-02  0.1328083E+00
         21   -1    0    0  501  502  0.00000000000E+00  0.00000000000E+00  0.31333060815E+03  0.31333060815E+03  0.00000000000E+00 0.  1.
         -3   -1    0    0    0  501 -0.00000000000E+00 -0.00000000000E+00 -0.44215612731E+03  0.44215612731E+03  0.00000000000E+00 0.  1.
         23    2    1    2    0    0 -0.13545151721E+02 -0.22817043667E+01 -0.30122467270E+03  0.31164844276E+03  0.78738625337E+02 0.  0.
         24    2    1    2    0    0 -0.29245824974E+02  0.10694646676E+02 -0.12016112455E+03  0.14804552470E+03  0.80678917845E+02 0.  0.
        -13    1    4    4    0    0 -0.49008957558E+02 -0.16226815544E+02 -0.59301503335E+02  0.78624778291E+02  0.00000000000E+00 0.  1.
         14    1    4    4    0    0  0.19763132583E+02  0.26921462220E+02 -0.60859621214E+02  0.69420746409E+02  0.00000000000E+00 0. -1.
        -13    1    3    3    0    0  0.31271535363E+01 -0.39208641942E+02 -0.14148610344E+03  0.14685167401E+03  0.00000000000E+00 0. -1.
         13    1    3    3    0    0 -0.16672305257E+02  0.36926937575E+02 -0.15973856926E+03  0.16479676875E+03  0.00000000000E+00 0.  1.
         -4    1    1    2    0  502  0.42790976695E+02 -0.84129423095E+01  0.29256027809E+03  0.29579276800E+03  0.00000000000E+00 0.  1.
<scales pt_clust_5="13000.00000" pt_clust_6="13000.00000" pt_clust_7="13000.00000" pt_clust_8="13000.00000" pt_clust_9="43.61015"></scales>
<clustering>
<clus scale="   43.610">  1  9  2 -1</clus>
<clus scale="   78.739">  7  8 -1 -1</clus>
<clus scale="   78.894">  2  7  1 -1</clus>
<clus scale="   80.679">  5  6 -1 -1</clus>
<clus scale="   43.610">  1  5  2 -1</clus>
</clustering>
</event>
<event>
 9    2  0.3745229E-005  0.3363407E+03  0.7546771E-02  0.1104375E+00
         21   -1    0    0  501  502  0.00000000000E+00  0.00000000000E+00  0.57724289393E+03  0.57724289393E+03  0.00000000000E+00 0. -1.
          2   -1    0    0  502    0 -0.00000000000E+00 -0.00000000000E+00 -0.89377923638E+03  0.89377923638E+03  0.00000000000E+00 0. -1.
         23    2    1    2    0    0 -0.87179126605E+02 -0.25228774439E+02 -0.31725481539E+03  0.34245996882E+03  0.91605246490E+02 0.  0.
         24    2    1    2    0    0 -0.62398885062E+02 -0.27091359443E+03 -0.47024675055E+03  0.55247004563E+03  0.82482412726E+02 0.  0.
        -13    1    4    4    0    0 -0.51181687715E+02 -0.75788777609E+02 -0.18921669350E+03  0.21015818107E+03  0.00000000000E+00 0.  1.
         14    1    4    4    0    0 -0.11217197347E+02 -0.19512481682E+03 -0.28103005704E+03  0.34231186456E+03  0.00000000000E+00 0. -1.
        -13    1    3    3    0    0 -0.42392852692E+02  0.15996444446E+02 -0.23931359919E+03  0.24356526631E+03  0.00000000000E+00 0. -1.
         13    1    3    3    0    0 -0.44786273914E+02 -0.41225218885E+02 -0.77941216196E+02  0.98894702514E+02  0.00000000000E+00 0.  1.
          1    1    1    2  501    0  0.14957801167E+03  0.29614236887E+03  0.47096522349E+03  0.57609211586E+03  0.00000000000E+00 0. -1.
<scales pt_clust_5="13000.00000" pt_clust_6="13000.00000" pt_clust_7="13000.00000" pt_clust_8="13000.00000" pt_clust_9="326.07007"></scales>
<clustering>
<clus scale="   82.482">  5  6 -1 -1</clus>
<clus scale="   91.605">  7  8 -1 -1</clus>
<clus scale="  128.950">  2  7  1 -1</clus>
<clus scale="  326.070">  1  9  2 -1</clus>
<clus scale="  326.070">  1  5  2 -1</clus>
</clustering>
</event>
<event>
 9    2  0.3745229E-005  0.1415096E+03  0.7546771E-02  0.1212827E+00
         21   -1    0    0  501  502  0.00000000000E+00  0.00000000000E+00  0.26169029209E+03  0.26169029209E+03  0.00000000000E+00 0.  1.
         -1   -1    0    0    0  501 -0.00000000000E+00 -0.00000000000E+00 -0.89506995759E+03  0.89506995759E+03  0.00000000000E+00 0.  1.
         24    2    1    2    0    0 -0.47182615233E+01  0.10680839241E+03 -0.44658010471E+03  0.46691405090E+03  0.84526009736E+02 0.  0.
         23    2    1    2    0    0  0.54427018423E+02 -0.10142108625E+03 -0.42329043230E+03  0.44812752784E+03  0.91623981903E+02 0.  0.
        -11    1    3    3    0    0 -0.41203503890E+02  0.68749755943E+02 -0.31798212033E+03  0.32792817281E+03  0.00000000000E+00 0.  1.
         12    1    3    3    0    0  0.36485242367E+02  0.38058636470E+02 -0.12859798438E+03  0.13898587809E+03  0.00000000000E+00 0. -1.
        -11    1    4    4    0    0  0.68413175621E+02 -0.58881820316E+02 -0.35625119390E+03  0.36750829176E+03  0.00000000000E+00 0.  1.
         11    1    4    4    0    0 -0.13986157197E+02 -0.42539265938E+02 -0.67039238398E+02  0.80619236071E+02  0.00000000000E+00 0. -1.
         -2    1    1    2    0  502 -0.49708756900E+02 -0.53873061587E+01  0.23649087151E+03  0.24171867095E+03  0.00000000000E+00 0.  1.
<scales pt_clust_5="13000.00000" pt_clust_6="13000.00000" pt_clust_7="13000.00000" pt_clust_8="13000.00000" pt_clust_9="49.99984"></scales>
<clustering>
<clus scale="   50.000">  1  9  2 -1</clus>
<clus scale="   84.526">  5  6 -1 -1</clus>
<clus scale="   91.624">  7  8 -1 -1</clus>
<clus scale="  137.021">  2  5  1 -1</clus>
<clus scale="   50.000">  1  5  2 -1</clus>
</clustering>
</event>
<event>
 9    2  0.3745229E-005  0.1567543E+03  0.7546771E-02  0.1207385E+00
         21   -1    0    0  501  502  0.00000000000E+00  0.00000000000E+00  0.29671154960E+02  0.29671154960E+02  0.00000000000E+00 0.  1.
          2   -1    0    0  502    0 -0.00000000000E+00 -0.00000000000E+00 -0.15959674454E+04  0.15959674454E+04  0.00000000000E+00 0. -1.
         24    2    1    2    0    0  0.69292842070E+02 -0.33181829935E+02 -0.23658947121E+03  0.26228684356E+03  0.83170178651E+02 0.  0.
         23    2    1    2    0    0 -0.16502258114E+03 -0.27657532420E+02 -0.79657967651E+03  0.81829197911E+03  0.84054688500E+02 0.  0.
        -11    1    3    3    0    0  0.76433770589E+02 -0.49750388388E+02 -0.16572046997E+03  0.18915733292E+03  0.00000000000E+00 0.  1.
         12    1    3    3    0    0 -0.71409285187E+01  0.16568558453E+02 -0.70869001236E+02  0.73129510634E+02  0.00000000000E+00 0. -1.
        -11    1    4    4    0    0 -0.14388666447E+02  0.23958600265E+02 -0.12717434404E+03  0.13020891686E+03  0.00000000000E+00 0. -1.
         11    1    4    4    0    0 -0.15063391469E+03 -0.51616132685E+02 -0.66940533247E+03  0.68808306225E+03  0.00000000000E+00 0.  1.
          1    1    1    2  501    0  0.95729739067E+02  0.60839362355E+02 -0.53312714277E+03  0.54505977774E+03  0.00000000000E+00 0. -1.
<scales pt_clust_5="13000.00000" pt_clust_6="13000.00000" pt_clust_7="13000.00000" pt_clust_8="13000.00000" pt_clust_9="132.31292"></scales>
<clustering>
<clus scale="   83.170">  5  6 -1 -1</clus>
<clus scale="   84.055">  7  8 -1 -1</clus>
<clus scale="  113.225">  2  5  1 -1</clus>
<clus scale="  132.313">  1  9  2 -1</clus>
<clus scale="  132.313">  1  5  2 -1</clus>
</clustering>
</event>
<event>
 9    2  0.3745229E-005  0.1068406E+03  0.7546771E-02  0.1274792E+00
         21   -1    0    0  501  502  0.00000000000E+00  0.00000000000E+00  0.56657536419E+02  0.56657536419E+02  0.00000000000E+00 0.  1.
          2   -1    0    0  502    0 -0.00000000000E+00 -0.00000000000E+00 -0.73476250611E+03  0.73476250611E+03  0.00000000000E+00 0. -1.
         24    2    1    2    0    0 -0.35291477123E+02  0.26628484090E+02 -0.62510692643E+03  0.63173414857E+03  0.79842347616E+02 0.  0.
         23    2    1    2    0    0  0.52875146758E+02  0.70894556143E+01 -0.29302542211E+02  0.11488007218E+03  0.97430747089E+02 0.  0.
        -13    1    3    3    0    0 -0.36144487525E+02  0.26997092724E+02 -0.15026146537E+03  0.15688777826E+03  0.00000000000E+00 0.  1.
         14    1    3    3    0    0  0.85301040274E+00 -0.36860863319E+00 -0.47484546107E+03  0.47484637031E+03  0.00000000000E+00 0. -1.
        -11    1    4    4    0    0  0.78239468455E+02  0.17563099795E+02 -0.33896362427E+02  0.87056534989E+02  0.00000000000E+00 0.  1.
         11    1    4    4    0    0 -0.25364321697E+02 -0.10473644180E+02  0.45938202164E+01  0.27823537190E+02  0.00000000000E+00 0. -1.
          1    1    1    2  501    0 -0.17583669636E+02 -0.33717939705E+02 -0.23695501053E+02  0.44805821786E+02  0.00000000000E+00 0. -1.
<scales pt_clust_5="13000.00000" pt_clust_6="13000.00000" pt_clust_7="13000.00000" pt_clust_8="13000.00000" pt_clust_9="38.02742"></scales>
<clustering>
<clus scale="   38.027">  1  9  2 -1</clus>
<clus scale="   79.842">  5  6 -1 -1</clus>
<clus scale="   91.088">  2  5  1 -1</clus>
<clus scale="   97.431">  7  8 -1 -1</clus>
<clus scale="   38.027">  1  5  2 -1</clus>
</clustering>
</event>
<event>
 9    2  0.3745229E-005  0.1435612E+03  0.7546771E-02  0.1227528E+00
         21   -1    0    0  501  502  0.00000000000E+00  0.00000000000E+00  0.84563865729E+02  0.84563865729E+02  0.00000000000E+00 0. -1.
         -1   -1    0    0    0  501 -0.00000000000E+00 -0.00000000000E+00 -0.41800373514E+03  0.41800373514E+03  0.00000000000E+00 0.  1.
         24    2    1    2    0    0  0.25867613207E+02  0.12578389591E+01 -0.39886220879E+02  0.10431210814E+03  0.92840668446E+02 0.  0.
         23    2    1    2    0    0  0.73359491530E+02  0.67848257414E+02 -0.21967631433E+03  0.25655322959E+03  0.87045249730E+02 0.  0.
        -13    1    3    3    0    0  0.10041384150E+02 -0.22133533674E+02 -0.63185940922E+02  0.67699230710E+02  0.00000000000E+00 0.  1.
         14    1    3    3    0    0  0.15826229057E+02  0.23391372633E+02  0.23299720044E+02  0.36612877433E+02  0.00000000000E+00 0. -1.
        -13    1    4    4    0    0  0.23869016739E+02  0.76583526361E+02 -0.11240032039E+03  0.13808909621E+03  0.00000000000E+00 0.  1.
         13    1    4    4    0    0  0.49490474791E+02 -0.87352689470E+01 -0.10727599395E+03  0.11846413338E+03  0.00000000000E+00 0. -1.
         -2    1    1    2    0  502 -0.99227104737E+02 -0.69106096373E+02 -0.73877334201E+02  0.14170226314E+03  0.00000000000E+00 0.  1.
<scales pt_clust_5="13000.00000" pt_clust_6="13000.00000" pt_clust_7="13000.00000" pt_clust_8="13000.00000" pt_clust_9="114.16185"></scales>
<clustering>
<clus scale="   87.045">  7  8 -1 -1</clus>
<clus scale="   92.841">  5  6 -1 -1</clus>
<clus scale="   96.385">  2  5  1 -1</clus>
<clus scale="  114.162">  1  9  2 -1</clus>
<clus scale="  114.162">  1  5  2 -1</clus>
</clustering>
</event>
<event>
 9    2  0.3745229E-005  0.9348212E+02  0.7546771E-02  0.1299701E+00
         21   -1    0    0  501  502  0.00000000000E+00  0.00000000000E+00  0.20710501825E+03  0.20710501825E+03  0.00000000000E+00 0.  1.
          2   -1    0    0  502    0 -0.00000000000E+00 -0.00000000000E+00 -0.15213610491E+03  0.15213610491E+03  0.00000000000E+00 0. -1.
         23    2    1    2    0    0  0.90704933767E+01 -0.36896687207E+01 -0.11925001654E+03  0.15160696414E+03  0.93103263234E+02 0.  0.
         24    2    1    2    0    0  0.32150069185E+00 -0.18161179167E+02  0.15272708868E+03  0.17557845214E+03  0.84689417561E+02 0.  0.
        -13    1    4    4    0    0  0.34427819380E+02 -0.16749989720E+02  0.12752313493E+03  0.13314648642E+03  0.00000000000E+00 0.  1.
         14    1    4    4    0    0 -0.34106318688E+02 -0.14111894465E+01  0.25203953746E+02  0.42431965716E+02  0.00000000000E+00 0. -1.
        -11    1    3    3    0    0  0.27193560600E+02  0.37256646047E+02 -0.78575737456E+02  0.91113631963E+02  0.00000000000E+00 0. -1.
         11    1    3    3    0    0 -0.18123067223E+02 -0.40946314767E+02 -0.40674279087E+02  0.60493332177E+02  0.00000000000E+00 0.  1.
          1    1    1    2  501    0 -0.93919940686E+01  0.21850847888E+02  0.21491841203E+02  0.32055706891E+02  0.00000000000E+00 0. -1.
<scales pt_clust_5="13000.00000" pt_clust_6="13000.00000" pt_clust_7="13000.00000" pt_clust_8="13000.00000" pt_clust_9="23.78380"></scales>
<clustering>
<clus scale="   23.784">  1  9  2 -1</clus>
<clus scale="   84.689">  5  6 -1 -1</clus>
<clus scale="   85.106">  1  5  2 -1</clus>
<clus scale="   93.103">  7  8 -1 -1</clus>
<clus scale="   23.784">  1  5  2 -1</clus>
</clustering>
</event>
<event>
 9    2  0.3745229E-005  0.9763184E+02  0.7546771E-02  0.1294306E+00
         21   -1    0    0  501  502  0.00000000000E+00  0.00000000000E+00  0.21273858780E+03  0.21273858780E+03  0.00000000000E+00 0.  1.
         -1   -1    0    0    0  501 -0.00000000000E+00 -0.00000000000E+00 -0.11548392347E+03  0.11548392347E+03  0.00000000000E+00 0.  1.
         23    2    1    2    0    0  0.10058627091E+02  0.31121935586E+02 -0.64329734204E+02  0.11687203280E+03  0.91929355998E+02 0.  0.
         24    2    1    2    0    0  0.27827741319E+02 -0.39086679565E+02  0.76432221962E+02  0.11781060872E+03  0.75731785043E+02 0.  0.
        -13    1    4    4    0    0  0.34070000662E+02 -0.36043354470E+02  0.89890941407E+02  0.10266581560E+03  0.00000000000E+00 0.  1.
         14    1    4    4    0    0 -0.62422593433E+01 -0.30433250946E+01 -0.13458719445E+02  0.15144793113E+02  0.00000000000E+00 0. -1.
        -13    1    3    3    0    0 -0.24841946494E+02  0.26599374574E+02 -0.72160034851E+02  0.80819055073E+02  0.00000000000E+00 0.  1.
         13    1    3    3    0    0  0.34900573585E+02  0.45225610117E+01  0.78303006469E+01  0.36052977726E+02  0.00000000000E+00 0. -1.
         -2    1    1    2    0  502 -0.37886368410E+02  0.79647439792E+01  0.85152176573E+02  0.93539869751E+02  0.00000000000E+00 0.  1.
<scales pt_clust_5="13000.00000" pt_clust_6="13000.00000" pt_clust_7="13000.00000" pt_clust_8="13000.00000" pt_clust_9="38.71452"></scales>
<clustering>
<clus scale="   38.715">  1  9  2 -1</clus>
<clus scale="   75.732">  5  6 -1 -1</clus>
<clus scale="   82.561">  1  5  2 -1</clus>
<clus scale="   91.929">  7  8 -1 -1</clus>
<clus scale="   38.715">  1  5  2 -1</clus>
</clustering>
</event>
<event>
 9    2  0.3745229E-005  0.1035090E+03  0.7546771E-02  0.1275361E+00
         21   -1    0    0  501  502  0.00000000000E+00  0.00000000000E+00  0.16460265025E+02  0.16460265025E+02  0.00000000000E+00 0.  1.
          2   -1    0    0  502    0 -0.00000000000E+00 -0.00000000000E+00 -0.11835120843E+04  0.11835120843E+04  0.00000000000E+00 0. -1.
         24    2    1    2    0    0 -0.13300059340E+02 -0.56176178109E+02 -0.88191307580E+03  0.88791118767E+03  0.85340197721E+02 0.  0.
         23    2    1    2    0    0  0.10330245200E+02  0.23589522711E+02 -0.20803212122E+03  0.22829875302E+03  0.90442123054E+02 0.  0.
        -13    1    3    3    0    0  0.29017666397E+02 -0.43001923002E+02 -0.31257780548E+03  0.31685339642E+03  0.00000000000E+00 0.  1.
         14    1    3    3    0    0 -0.42317725737E+02 -0.13174255108E+02 -0.56933527033E+03  0.57105779125E+03  0.00000000000E+00 0. -1.
        -11    1    4    4    0    0 -0.28412440476E+02 -0.11955761647E+02 -0.13397315831E+03  0.13747368533E+03  0.00000000000E+00 0. -1.
         11    1    4    4    0    0  0.38742685676E+02  0.35545284358E+02 -0.74058962915E+02  0.90825067693E+02  0.00000000000E+00 0.  1.
          1    1    1    2  501    0  0.29698141401E+01  0.32586655398E+02 -0.77106622240E+02  0.83762408629E+02  0.00000000000E+00 0. -1.
<scales pt_clust_5="13000.00000" pt_clust_6="13000.00000" pt_clust_7="13000.00000" pt_clust_8="13000.00000" pt_clust_9="32.72170"></scales>
<clustering>
<clus scale="   32.722">  1  9  2 -1</clus>
<clus scale="   85.340">  5  6 -1 -1</clus>
<clus scale="   90.442">  7  8 -1 -1</clus>
<clus scale="   99.082">  2  5  1 -1</clus>
<clus scale="   32.722">  1  5  2 -1</clus>
</clustering>
</event>
<event>
 9    2  0.3745229E-005  0.1342934E+03  0.7546771E-02  0.1223466E+00
         21   -1    0    0  501  502  0.00000000000E+00  0.00000000000E+00  0.22383030235E+03  0.22383030235E+03  0.00000000000E+00 0. -1.
         -3   -1    0    0    0  501 -0.00000000000E+00 -0.00000000000E+00 -0.39018144506E+03  0.39018144506E+03  0.00000000000E+00 0.  1.
         24    2    1    2    0    0 -0.81909474055E+02  0.66193002379E+02 -0.33988901993E+03  0.36504440881E+03  0.81499687308E+02 0.  0.
         23    2    1    2    0    0  0.54592587736E+02 -0.96227306857E+01  0.68527976417E+02  0.12660113744E+03  0.90878032923E+02 0.  0.
        -13    1    3    3    0    0 -0.71866278289E+02  0.43426838568E+02 -0.32580632506E+03  0.33645269164E+03  0.00000000000E+00 0.  1.
         14    1    3    3    0    0 -0.10043195767E+02  0.22766163811E+02 -0.14082694867E+02  0.28591717168E+02  0.00000000000E+00 0. -1.
        -13    1    4    4    0    0 -0.18807101776E+02 -0.77966829488E+01  0.45180897931E+02  0.49556118493E+02  0.00000000000E+00 0.  1.
         13    1    4    4    0    0  0.73399689513E+02 -0.18260477369E+01  0.23347078486E+02  0.77045018948E+02  0.00000000000E+00 0. -1.
         -4    1    1    2    0  502  0.27316886319E+02 -0.56570271694E+02  0.10500990081E+03  0.12236620115E+03  0.00000000000E+00 0.  1.
<scales pt_clust_5="13000.00000" pt_clust_6="13000.00000" pt_clust_7="13000.00000" pt_clust_8="13000.00000" pt_clust_9="62.82044"></scales>
<clustering>
<clus scale="   62.820">  1  9  2 -1</clus>
<clus scale="   81.500">  5  6 -1 -1</clus>
<clus scale="   90.878">  7  8 -1 -1</clus>
<clus scale="  128.133">  2  5  1 -1</clus>
<clus scale="   62.820">  1  5  2 -1</clus>
</clustering>
</event>
<event>
 9    2  0.3745229E-005  0.9513005E+02  0.7546771E-02  0.1293955E+00
         -1   -1    0    0    0  501 -0.00000000000E+00  0.00000000000E+00  0.40110071164E+03  0.40110071164E+03  0.00000000000E+00 0.  1.
         21   -1    0    0  501  502  0.00000000000E+00 -0.00000000000E+00 -0.10292808031E+03  0.10292808031E+03  0.00000000000E+00 0. -1.
         23    2    1    2    0    0  0.36945564777E+02 -0.20975567149E+02  0.34407853137E+03  0.35753041181E+03  0.87367101589E+02 0.  0.
         24    2    1    2    0    0  0.13056825357E+02  0.23498324482E+02 -0.13695649078E+02  0.86966005833E+02  0.81565087047E+02 0.  0.
        -13    1    4    4    0    0 -0.18426988581E+02 -0.82269640831E+01  0.21935195668E+02  0.29805866121E+02  0.00000000000E+00 0.  1.
         14    1    4    4    0    0  0.31483813938E+02  0.31725288565E+02 -0.35630844746E+02  0.57160139712E+02  0.00000000000E+00 0. -1.
        -11    1    3    3    0    0  0.65709889219E+01  0.33653552569E+02  0.10765430353E+03  0.11298313398E+03  0.00000000000E+00 0. -1.
         11    1    3    3    0    0  0.30374575855E+02 -0.54629119718E+02  0.23642422784E+03  0.24454727782E+03  0.00000000000E+00 0.  1.
         -2    1    1    2    0  502 -0.50002390134E+02 -0.25227573326E+01 -0.32210250969E+02  0.59532374311E+02  0.00000000000E+00 0.  1.
<scales pt_clust_5="13000.00000" pt_clust_6="13000.00000" pt_clust_7="13000.00000" pt_clust_8="13000.00000" pt_clust_9="50.06599"></scales>
<clustering>
<clus scale="   50.066">  2  9  1 -1</clus>
<clus scale="   81.565">  5  6 -1 -1</clus>
<clus scale="   87.367">  7  8 -1 -1</clus>
<clus scale="   89.831">  2  5  1 -1</clus>
<clus scale="   50.066">  2  5  1 -1</clus>
</clustering>
</event>
<event>
 9    2  0.3745229E-005  0.1406762E+03  0.7546771E-02  0.1214706E+00
         21   -1    0    0  501  502  0.00000000000E+00  0.00000000000E+00  0.50771808470E+03  0.50771808470E+03  0.00000000000E+00 0.  1.
         -1   -1    0    0    0  501 -0.00000000000E+00 -0.00000000000E+00 -0.53368071250E+02  0.53368071250E+02  0.00000000000E+00 0.  1.
         24    2    1    2    0    0  0.10767645764E+03 -0.53615437236E+02  0.11967819207E+03  0.18723584529E+03  0.79155274405E+02 0.  0.
         23    2    1    2    0    0 -0.86284977498E+02  0.25848823881E+02  0.22270749341E+03  0.25652771702E+03  0.89969900189E+02 0.  0.
        -11    1    3    3    0    0  0.11076787641E+03 -0.57331109662E+02  0.82038989551E+02  0.14928755603E+03  0.00000000000E+00 0.  1.
         12    1    3    3    0    0 -0.30914187746E+01  0.37156724255E+01  0.37639202514E+02  0.37948289256E+02  0.00000000000E+00 0. -1.
        -13    1    4    4    0    0 -0.37765220961E+02  0.27534750511E+02  0.25114131844E+02  0.53057459590E+02  0.00000000000E+00 0. -1.
         13    1    4    4    0    0 -0.48519756537E+02 -0.16859266297E+01  0.19759336157E+03  0.20347025743E+03  0.00000000000E+00 0.  1.
         -2    1    1    2    0  502 -0.21391480140E+02  0.27766613355E+02  0.11196432798E+03  0.11732259364E+03  0.00000000000E+00 0.  1.
<scales pt_clust_5="13000.00000" pt_clust_6="13000.00000" pt_clust_7="13000.00000" pt_clust_8="13000.00000" pt_clust_9="35.05111"></scales>
<clustering>
<clus scale="   35.051">  1  9  2 -1</clus>
<clus scale="   79.155">  5  6 -1 -1</clus>
<clus scale="   89.970">  7  8 -1 -1</clus>
<clus scale="  134.018">  2  5  1 -1</clus>
<clus scale="   35.051">  1  5  2 -1</clus>
</clustering>
</event>
<event>
 9    2  0.3745229E-005  0.1018460E+03  0.7546771E-02  0.1278532E+00
         21   -1    0    0  501  502  0.00000000000E+00  0.00000000000E+00  0.48524144099E+02  0.48524144099E+02  0.00000000000E+00 0. -1.
          2   -1    0    0  502    0 -0.00000000000E+00 -0.00000000000E+00 -0.64801991480E+03  0.64801991480E+03  0.00000000000E+00 0. -1.
         24    2    1    2    0    0 -0.26555221209E+02 -0.48696111635E+02 -0.33358422756E+03  0.34945821367E+03  0.88125564743E+02 0.  0.
         23    2    1    2    0    0  0.35953536044E+02 -0.36778654686E+02 -0.54898445335E+02  0.11922450265E+03  0.92494954113E+02 0.  0.
        -11    1    3    3    0    0  0.16973480286E+02 -0.21445436193E+02 -0.26406559847E+02  0.38017261467E+02  0.00000000000E+00 0.  1.
         12    1    3    3    0    0 -0.43528701495E+02 -0.27250675443E+02 -0.30717766772E+03  0.31144095220E+03  0.00000000000E+00 0. -1.
        -11    1    4    4    0    0  0.57722034426E+02 -0.32007647768E+02 -0.69712876954E+01  0.66369583591E+02  0.00000000000E+00 0. -1.
         11    1    4    4    0    0 -0.21768498382E+02 -0.47710069180E+01 -0.47927157639E+02  0.52854919054E+02  0.00000000000E+00 0.  1.
          1    1    1    2  501    0 -0.93983148349E+01  0.85474766321E+02 -0.21101309781E+03  0.22786134259E+03  0.00000000000E+00 0. -1.
<scales pt_clust_5="13000.00000" pt_clust_6="13000.00000" pt_clust_7="13000.00000" pt_clust_8="13000.00000" pt_clust_9="85.98995"></scales>
<clustering>
<clus scale="   85.990">  1  9  2 -1</clus>
<clus scale="   88.126">  5  6 -1 -1</clus>
<clus scale="   92.495">  7  8 -1 -1</clus>
<clus scale="   97.895">  2  5  1 -1</clus>
<clus scale="   85.990">  1  5  2 -1</clus>
</clustering>
</event>
<event>
 9    2  0.3745229E-005  0.9954262E+02  0.7546771E-02  0.1287206E+00
         21   -1    0    0  501  502  0.00000000000E+00  0.00000000000E+00  0.43466833053E+03  0.43466833053E+03  0.00000000000E+00 0.  1.
         -1   -1    0    0    0  501 -0.00000000000E+00 -0.00000000000E+00 -0.86653584294E+02  0.86653584294E+02  0.00000000000E+00 0.  1.
         23    2    1    2    0    0  0.11406308292E+02 -0.40842899901E+02 -0.45847833384E+02  0.11068100894E+03  0.91378419629E+02 0.  0.
         24    2    1    2    0    0  0.96744060660E+01  0.14700386905E+02  0.30167020213E+03  0.31252229413E+03  0.79721878861E+02 0.  0.
        -11    1    4    4    0    0  0.39258390233E+02 -0.19672887287E+01  0.90907175779E+02  0.99041435959E+02  0.00000000000E+00 0.  1.
         12    1    4    4    0    0 -0.29583984167E+02  0.16667675633E+02  0.21076302635E+03  0.21348085817E+03  0.00000000000E+00 0. -1.
        -11    1    3    3    0    0 -0.17677053921E+02 -0.42298918940E+02 -0.62211549756E+02  0.77278416792E+02  0.00000000000E+00 0.  1.
         11    1    3    3    0    0  0.29083362213E+02  0.14560190388E+01  0.16363716372E+02  0.33402592153E+02  0.00000000000E+00 0. -1.
         -2    1    1    2    0  502 -0.21080714358E+02  0.26142512996E+02  0.92192377493E+02  0.98118611749E+02  0.00000000000E+00 0.  1.
<scales pt_clust_5="13000.00000" pt_clust_6="13000.00000" pt_clust_7="13000.00000" pt_clust_8="13000.00000" pt_clust_9="33.58314"></scales>
<clustering>
<clus scale="   33.583">  1  9  2 -1</clus>
<clus scale="   79.722">  5  6 -1 -1</clus>
<clus scale="   88.962">  1  5  2 -1</clus>
<clus scale="   91.378">  7  8 -1 -1</clus>
<clus scale="   33.583">  1  5  2 -1</clus>
</clustering>
</event>
<event>
 9    2  0.3745229E-005  0.1519294E+03  0.7546771E-02  0.1201357E+00
         21   -1    0    0  501  502  0.00000000000E+00  0.00000000000E+00  0.10337590473E+03  0.10337590473E+03  0.00000000000E+00 0.  1.
          2   -1    0    0  502    0 -0.00000000000E+00 -0.00000000000E+00 -0.43756432581E+03  0.43756432581E+03  0.00000000000E+00 0. -1.
         24    2    1    2    0    0 -0.74663302812E+02 -0.10468173754E+03 -0.34090610758E+03  0.37166930814E+03  0.73404532992E+02 0.  0.
         23    2    1    2    0    0  0.50197672812E+02  0.76165182687E+02 -0.62567458021E+01  0.12952049038E+03  0.91735866220E+02 0.  0.
        -11    1    3    3    0    0 -0.31827309811E+02 -0.44631186696E+00 -0.45774194664E+02  0.55753508780E+02  0.00000000000E+00 0.  1.
         12    1    3    3    0    0 -0.42835993001E+02 -0.10423542567E+03 -0.29513191292E+03  0.31591579936E+03  0.00000000000E+00 0. -1.
        -13    1    4    4    0    0  0.22541106365E+02  0.85935705065E+02  0.18955224399E+02  0.90842431788E+02  0.00000000000E+00 0.  1.
         13    1    4    4    0    0  0.27656566447E+02 -0.97705223777E+01 -0.25211970201E+02  0.38678058594E+02  0.00000000000E+00 0. -1.
          1    1    1    2  501    0  0.24465630000E+02  0.28516554853E+02  0.12974432299E+02  0.39750432016E+02  0.00000000000E+00 0. -1.
<scales pt_clust_5="13000.00000" pt_clust_6="13000.00000" pt_clust_7="13000.00000" pt_clust_8="13000.00000" pt_clust_9="37.57341"></scales>
<clustering>
<clus scale="   37.573">  1  9  2 -1</clus>
<clus scale="   73.405">  5  6 -1 -1</clus>
<clus scale="   91.736">  7  8 -1 -1</clus>
<clus scale="  141.617">  2  5  1 -1</clus>
<clus scale="   37.573">  1  5  2 -1</clus>
</clustering>
</event>
<event>
 9    2  0.3745229E-005  0.1325657E+03  0.7546771E-02  0.1239282E+00
          2   -1    0    0  502    0 -0.00000000000E+00  0.00000000000E+00  0.12408420397E+04  0.12408420397E+04  0.00000000000E+00 0. -1.
         21   -1    0    0  501  502  0.00000000000E+00 -0.00000000000E+00 -0.24016016697E+02  0.24016016697E+02  0.00000000000E+00 0. -1.
         23    2    1    2    0    0  0.23613023186E+02  0.57399932972E+00  0.31479789683E+03  0.32915851092E+03  0.93218587866E+02 0.  0.
         24    2    1    2    0    0 -0.78086447365E+02 -0.84436320666E+02  0.63601351595E+03  0.65150944056E+03  0.82002275285E+02 0.  0.
        -11    1    4    4    0    0 -0.48686901044E+02 -0.55276994436E+02  0.19323171887E+03  0.20679569054E+03  0.00000000000E+00 0.  1.
         12    1    4    4    0    0 -0.29399546321E+02 -0.29159326230E+02  0.44278179708E+03  0.44471375002E+03  0.00000000000E+00 0. -1.
        -13    1    3    3    0    0  0.27301919033E+02  0.39165447716E+02  0.24217421477E+03  0.24683532441E+03  0.00000000000E+00 0.  1.
         13    1    3    3    0    0 -0.36888958475E+01 -0.38591448387E+02  0.72623682061E+02  0.82323186511E+02  0.00000000000E+00 0. -1.
          1    1    1    2  501    0  0.54473424179E+02  0.83862321336E+02  0.26601461020E+03  0.28419010490E+03  0.00000000000E+00 0. -1.
<scales pt_clust_5="13000.00000" pt_clust_6="13000.00000" pt_clust_7="13000.00000" pt_clust_8="13000.00000" pt_clust_9="104.15991"></scales>
<clustering>
<clus scale="   82.002">  5  6 -1 -1</clus>
<clus scale="   93.219">  7  8 -1 -1</clus>
<clus scale="   96.165">  1  7  2 -1</clus>
<clus scale="  104.160">  2  9  1 -1</clus>
<clus scale="  104.160">  2  5  1 -1</clus>
</clustering>
</event>
<event>
 9    2  0.3745229E-005  0.1157954E+03  0.7546771E-02  0.1258828E+00
          2   -1    0    0  502    0 -0.00000000000E+00  0.00000000000E+00  0.20911336249E+03  0.20911336249E+03  0.00000000000E+00 0. -1.
         21   -1    0    0  501  502  0.00000000000E+00 -0.00000000000E+00 -0.16471717552E+03  0.16471717552E+03  0.00000000000E+00 0.  1.
         23    2    1    2    0    0 -0.65617251122E+01  0.38913868594E+02  0.10459341702E+03  0.14304549775E+03  0.89246210764E+02 0.  0.
         24    2    1    2    0    0 -0.66454910189E+02  0.36753051557E+02 -0.62851877406E+02  0.12559968487E+03  0.77832386962E+02 0.  0.
        -13    1    4    4    0    0 -0.33279013381E+02 -0.15854226126E+01 -0.66901499069E+02  0.74738322661E+02  0.00000000000E+00 0.  1.
         14    1    4    4    0    0 -0.33175896808E+02  0.38338474170E+02  0.40496216625E+01  0.50861362214E+02  0.00000000000E+00 0. -1.
        -13    1    3    3    0    0  0.26030356379E+02  0.47258689068E+02  0.92894558434E+02  0.10742607752E+03  0.00000000000E+00 0. -1.
         13    1    3    3    0    0 -0.32592081492E+02 -0.83448204735E+01  0.11698858588E+02  0.35619420222E+02  0.00000000000E+00 0.  1.
          1    1    1    2  501    0  0.73016635301E+02 -0.75666920151E+02  0.26546473571E+01  0.10518535539E+03  0.00000000000E+00 0. -1.
<scales pt_clust_5="13000.00000" pt_clust_6="13000.00000" pt_clust_7="13000.00000" pt_clust_8="13000.00000" pt_clust_9="85.73625"></scales>
<clustering>
<clus scale="   77.832">  5  6 -1 -1</clus>
<clus scale="   89.246">  7  8 -1 -1</clus>
<clus scale="   97.582">  1  7  2 -1</clus>
<clus scale="   85.736">  2  9  1 -1</clus>
<clus scale="   85.736">  2  5  1 -1</clus>
</clustering>
</event>
<event>
 9    2  0.3745229E-005  0.2786299E+03  0.7546771E-02  0.1138344E+00
         21   -1    0    0  501  502  0.00000000000E+00  0.00000000000E+00  0.51401802611E+03  0.51401802611E+03  0.00000000000E+00 0.  1.
          2   -1    0    0  502    0 -0.00000000000E+00 -0.00000000000E+00 -0.55531807822E+03  0.55531807822E+03  0.00000000000E+00 0. -1.
         23    2    1    2    0    0 -0.20114681804E+02 -0.23866924724E+02 -0.39813589876E+03  0.40982301084E+03  0.92024321857E+02 0.  0.
         24    2    1    2    0    0  0.27367498288E+02 -0.25713744324E+03  0.21424890936E+03  0.34431935491E+03  0.76056415403E+02 0.  0.
        -13    1    4    4    0    0  0.47001246904E+02 -0.23440946181E+03  0.18390912987E+03  0.30162805082E+03  0.00000000000E+00 0.  1.
         14    1    4    4    0    0 -0.19633748616E+02 -0.22727981434E+02  0.30339779497E+02  0.42691304088E+02  0.00000000000E+00 0. -1.
        -11    1    3    3    0    0 -0.15444808690E+02  0.30099733190E+02 -0.76348954898E+02  0.83508676002E+02  0.00000000000E+00 0. -1.
         11    1    3    3    0    0 -0.46698731133E+01 -0.53966657914E+02 -0.32178694386E+03  0.32631433484E+03  0.00000000000E+00 0.  1.
          1    1    1    2  501    0 -0.72528164841E+01  0.28100436796E+03  0.14258693728E+03  0.31519373859E+03  0.00000000000E+00 0. -1.
<scales pt_clust_5="13000.00000" pt_clust_6="13000.00000" pt_clust_7="13000.00000" pt_clust_8="13000.00000" pt_clust_9="268.04872"></scales>
<clustering>
<clus scale="   76.056">  5  6 -1 -1</clus>
<clus scale="   92.024">  7  8 -1 -1</clus>
<clus scale="   97.174">  2  7  1 -1</clus>
<clus scale="  268.049">  1  9  2 -1</clus>
<clus scale="  268.049">  1  5  2 -1</clus>
</clustering>
</event>
<event>
 9    2  0.3745229E-005  0.1057102E+03  0.7546771E-02  0.1273271E+00
         21   -1    0    0  501  502  0.00000000000E+00  0.00000000000E+00  0.48300417962E+02  0.48300417962E+02  0.00000000000E+00 0. -1.
          2   -1    0    0  502    0 -0.00000000000E+00 -0.00000000000E+00 -0.52217255605E+03  0.52217255605E+03  0.00000000000E+00 0. -1.
         23    2    1    2    0    0  0.36231738353E+02  0.46743254917E+02 -0.43866770397E+03  0.45179943603E+03  0.90530133888E+02 0.  0.
         24    2    1    2    0    0 -0.21312963775E+02 -0.26653081195E+02 -0.34753005676E+02  0.93645779334E+02  0.79982069376E+02 0.  0.
        -13    1    4    4    0    0 -0.48546051735E+02  0.37172639295E+00 -0.20897369090E+02  0.52854113884E+02  0.00000000000E+00 0.  1.
         14    1    4    4    0    0  0.27233087960E+02 -0.27024807587E+02 -0.13855636585E+02  0.40791665450E+02  0.00000000000E+00 0. -1.
        -13    1    3    3    0    0  0.36721690107E+02  0.73064813441E+02 -0.32675598209E+03  0.33683292790E+03  0.00000000000E+00 0. -1.
         13    1    3    3    0    0 -0.48995175354E+00 -0.26321558524E+02 -0.11191172189E+03  0.11496650813E+03  0.00000000000E+00 0.  1.
          1    1    1    2  501    0 -0.14918774579E+02 -0.20090173723E+02 -0.45142843340E+00  0.25027758644E+02  0.00000000000E+00 0. -1.
<scales pt_clust_5="13000.00000" pt_clust_6="13000.00000" pt_clust_7="13000.00000" pt_clust_8="13000.00000" pt_clust_9="25.02369"></scales>
<clustering>
<clus scale="   25.024">  1  9  2 -1</clus>
<clus scale="   79.982">  5  6 -1 -1</clus>
<clus scale="   90.530">  7  8 -1 -1</clus>
<clus scale="   96.830">  1  5  2 -1</clus>
<clus scale="   25.024">  1  5  2 -1</clus>
</clustering>
</event>
<event>
 9    2  0.3745229E-005  0.9743985E+02  0.7546771E-02  0.1287020E+00
          2   -1    0    0  502    0 -0.00000000000E+00  0.00000000000E+00  0.70066770562E+02  0.70066770562E+02  0.00000000000E+00 0. -1.
         21   -1    0    0  501  502  0.00000000000E+00 -0.00000000000E+00 -0.29087226562E+03  0.29087226562E+03  0.00000000000E+00 0.  1.
         23    2    1    2    0    0 -0.20548525877E+02 -0.37019421974E+02 -0.76237103182E+00  0.91118776897E+02  0.80680671630E+02 0.  0.
         24    2    1    2    0    0  0.29620611518E+02  0.71933299781E+02 -0.13049114120E+03  0.17327576576E+03  0.83335303591E+02 0.  0.
        -13    1    4    4    0    0  0.12157346405E+02  0.53830398754E+02 -0.13665584259E+03  0.14737819450E+03  0.00000000000E+00 0.  1.
         14    1    4    4    0    0  0.17463265113E+02  0.18102901027E+02  0.61647013861E+01  0.25897571261E+02  0.00000000000E+00 0. -1.
        -13    1    3    3    0    0  0.18639909532E+02  0.13439322202E+02 -0.12501599288E+02  0.26160114552E+02  0.00000000000E+00 0.  1.
         13    1    3    3    0    0 -0.39188435409E+02 -0.50458744176E+02  0.11739228256E+02  0.64958662345E+02  0.00000000000E+00 0. -1.
          1    1    1    2  501    0 -0.90720856410E+01 -0.34913877808E+02 -0.89551982825E+02  0.96544493521E+02  0.00000000000E+00 0. -1.
<scales pt_clust_5="13000.00000" pt_clust_6="13000.00000" pt_clust_7="13000.00000" pt_clust_8="13000.00000" pt_clust_9="36.07328"></scales>
<clustering>
<clus scale="   36.073">  2  9  1 -1</clus>
<clus scale="   80.681">  7  8 -1 -1</clus>
<clus scale="   83.335">  5  6 -1 -1</clus>
<clus scale="   95.179">  1  7  2 -1</clus>
<clus scale="   36.073">  2  5  1 -1</clus>
</clustering>
</event>
<event>
 9    2  0.3745229E-005  0.2055930E+03  0.7546771E-02  0.1172809E+00
         21   -1    0    0  501  502  0.00000000000E+00  0.00000000000E+00  0.18482224423E+04  0.18482224423E+04  0.00000000000E+00 0.  1.
         -1   -1    0    0    0  501 -0.00000000000E+00 -0.00000000000E+00 -0.44599184588E+02  0.44599184588E+02  0.00000000000E+00 0.  1.
         24    2    1    2    0    0  0.38131795327E+02 -0.59912590759E+02  0.87172412280E+03  0.87835653271E+03  0.81016664538E+02 0.  0.
         23    2    1    2    0    0 -0.19793217341E+03  0.30665107374E+02  0.67326811025E+03  0.70904475590E+03  0.96628274853E+02 0.  0.
        -11    1    3    3    0    0  0.53055060123E+01 -0.48328300537E+02  0.20353392954E+03  0.20926020525E+03  0.00000000000E+00 0.  1.
         12    1    3    3    0    0  0.32826289314E+02 -0.11584290222E+02  0.66819019326E+03  0.66909632746E+03  0.00000000000E+00 0. -1.
        -13    1    4    4    0    0 -0.13630511321E+03  0.32244402954E+02  0.58397878001E+03  0.60054142314E+03  0.00000000000E+00 0.  1.
         13    1    4    4    0    0 -0.61627060203E+02 -0.15792955798E+01  0.89289330245E+02  0.10850333276E+03  0.00000000000E+00 0. -1.
         -2    1    1    2    0  502  0.15980037809E+03  0.29247483385E+02  0.25863102467E+03  0.30542033829E+03  0.00000000000E+00 0.  1.
<scales pt_clust_5="13000.00000" pt_clust_6="13000.00000" pt_clust_7="13000.00000" pt_clust_8="13000.00000" pt_clust_9="181.47037"></scales>
<clustering>
<clus scale="   81.017">  5  6 -1 -1</clus>
<clus scale="   96.628">  7  8 -1 -1</clus>
<clus scale="  107.737">  2  5  1 -1</clus>
<clus scale="  181.470">  1  9  2 -1</clus>
<clus scale="  181.470">  1  5  2 -1</clus>
</clustering>
</event>
<event>
 9    2  0.3745229E-005  0.1107132E+03  0.7546771E-02  0.1267355E+00
          2   -1    0    0  502    0 -0.00000000000E+00  0.00000000000E+00  0.13529054673E+03  0.13529054673E+03  0.00000000000E+00 0. -1.
         21   -1    0    0  501  502  0.00000000000E+00 -0.00000000000E+00 -0.10518057634E+03  0.10518057634E+03  0.00000000000E+00 0.  1.
         24    2    1    2    0    0  0.44924108615E+02  0.35519629716E+01  0.17769736384E+02  0.11532849082E+03  0.10466186167E+03 0.  0.
         23    2    1    2    0    0 -0.26533045947E+02  0.76234017284E+01 -0.12317821694E+02  0.92414361998E+02  0.87330216942E+02 0.  0.
        -11    1    3    3    0    0  0.28168930717E+02 -0.46144188647E+02 -0.11495063030E+02  0.55271251819E+02  0.00000000000E+00 0.  1.
         12    1    3    3    0    0  0.16755177898E+02  0.49696151619E+02  0.29264799414E+02  0.60057239005E+02  0.00000000000E+00 0. -1.
        -13    1    4    4    0    0 -0.53281490782E+01  0.24535615488E+02 -0.44029702921E+02  0.50685306936E+02  0.00000000000E+00 0.  1.
         13    1    4    4    0    0 -0.21204896869E+02 -0.16912213759E+02  0.31711881226E+02  0.41729055062E+02  0.00000000000E+00 0. -1.
          1    1    1    2  501    0 -0.18391062668E+02 -0.11175364700E+02  0.24658055705E+02  0.32728270247E+02  0.00000000000E+00 0. -1.
<scales pt_clust_5="13000.00000" pt_clust_6="13000.00000" pt_clust_7="13000.00000" pt_clust_8="13000.00000" pt_clust_9="21.52023"></scales>
<clustering>
<clus scale="   21.520">  2  9  1 -1</clus>
<clus scale="   87.330">  7  8 -1 -1</clus>
<clus scale="   94.498">  2  7  1 -1</clus>
<clus scale="  104.662">  5  6 -1 -1</clus>
<clus scale="   21.520">  2  5  1 -1</clus>
</clustering>
</event>
<event>
 9    2  0.3745229E-005  0.1046087E+03  0.7546771E-02  0.1275820E+00
         21   -1    0    0  501  502  0.00000000000E+00  0.00000000000E+00  0.15540892871E+03  0.15540892871E+03  0.00000000000E+00 0. -1.
         -1   -1    0    0    0  501 -0.00000000000E+00 -0.00000000000E+00 -0.15494462095E+03  0.15494462095E+03  0.00000000000E+00 0.  1.
         23    2    1    2    0    0  0.51836695867E+02 -0.59687633148E+01 -0.95821330122E+02  0.14384983365E+03  0.93746350117E+02 0.  0.
         24    2    1    2    0    0 -0.27813454263E+02  0.21906010958E+02  0.31555923209E+02  0.95644362634E+02  0.83057848876E+02 0.  0.
        -11    1    4    4    0    0 -0.50531800595E+02  0.10282514801E+02  0.43503675091E+02  0.67466752763E+02  0.00000000000E+00 0.  1.
         12    1    4    4    0    0  0.22718346332E+02  0.11623496157E+02 -0.11947751883E+02  0.28177609871E+02  0.00000000000E+00 0. -1.
        -11    1    3    3    0    0  0.34940081111E+01 -0.28587144806E+02 -0.84522841280E+02  0.89294701068E+02  0.00000000000E+00 0.  1.
         11    1    3    3    0    0  0.48342687756E+02  0.22618381491E+02 -0.11298488843E+02  0.54555132580E+02  0.00000000000E+00 0. -1.
         -2    1    1    2    0  502 -0.24023241604E+02 -0.15937247643E+02  0.64729714669E+02  0.70859353375E+02  0.00000000000E+00 0.  1.
<scales pt_clust_5="13000.00000" pt_clust_6="13000.00000" pt_clust_7="13000.00000" pt_clust_8="13000.00000" pt_clust_9="28.82901"></scales>
<clustering>
<clus scale="   28.829">  1  9  2 -1</clus>
<clus scale="   83.058">  5  6 -1 -1</clus>
<clus scale="   93.746">  7  8 -1 -1</clus>
<clus scale="   95.148">  1  5  2 -1</clus>
<clus scale="   28.829">  1  5  2 -1</clus>
</clustering>
</event>
<event>
 9    2  0.3745229E-005  0.1811094E+03  0.7546771E-02  0.1168152E+00
          2   -1    0    0  502    0 -0.00000000000E+00  0.00000000000E+00  0.46027518550E+03  0.46027518550E+03  0.00000000000E+00 0. -1.
         21   -1    0    0  501  502  0.00000000000E+00 -0.00000000000E+00 -0.47772520490E+03  0.47772520490E+03  0.00000000000E+00 0. -1.
         23    2    1    2    0    0  0.14423538192E+03 -0.20375899946E+02  0.33435274119E+02  0.17487810108E+03  0.90804239907E+02 0.  0.
         24    2    1    2    0    0 -0.19404040712E+03  0.14125302971E+03 -0.35293957554E+03  0.43398916985E+03  0.78588533289E+02 0.  0.
        -13    1    4    4    0    0 -0.24460945148E+02  0.28524078523E+02 -0.11409485895E+03  0.12012326057E+03  0.00000000000E+00 0.  1.
         14    1    4    4    0    0 -0.16957946197E+03  0.11272895119E+03 -0.23884471660E+03  0.31386590928E+03  0.00000000000E+00 0. -1.
        -13    1    3    3    0    0  0.27261338775E+02 -0.41336673014E+02  0.25701532238E+02  0.55789514132E+02  0.00000000000E+00 0.  1.
         13    1    3    3    0    0  0.11697404315E+03  0.20960773069E+02  0.77337418813E+01  0.11908858695E+03  0.00000000000E+00 0. -1.
          1    1    1    2  501    0  0.49805025201E+02 -0.12087712976E+03  0.30205428203E+03  0.32913311946E+03  0.00000000000E+00 0. -1.
<scales pt_clust_5="13000.00000" pt_clust_6="13000.00000" pt_clust_7="13000.00000" pt_clust_8="13000.00000" pt_clust_9="130.73576"></scales>
<clustering>
<clus scale="   78.589">  5  6 -1 -1</clus>
<clus scale="   90.804">  7  8 -1 -1</clus>
<clus scale="  130.736">  2  9  1 -1</clus>
<clus scale="  175.304">  2  5  1 -1</clus>
<clus scale="  130.736">  2  5  1 -1</clus>
</clustering>
</event>
<event>
 9    2  0.3745229E-005  0.1028881E+03  0.7546771E-02  0.1282280E+00
         -1   -1    0    0    0  501 -0.00000000000E+00  0.00000000000E+00  0.21439469004E+03  0.21439469004E+03  0.00000000000E+00 0.  1.
         21   -1    0    0  501  502  0.00000000000E+00 -0.00000000000E+00 -0.74730896731E+02  0.74730896731E+02  0.00000000000E+00 0. -1.
         23    2    1    2    0    0  0.10883104882E+02  0.36456994092E+02  0.11964842896E+03  0.15591852797E+03  0.92451535538E+02 0.  0.
         24    2    1    2    0    0 -0.27847329983E+02 -0.51372474819E+02  0.39184754078E+02  0.10358068539E+03  0.76019132313E+02 0.  0.
        -11    1    4    4    0    0 -0.32209397894E+02  0.57156467218E+01  0.32200187505E+02  0.45901699375E+02  0.00000000000E+00 0.  1.
         12    1    4    4    0    0  0.43620679112E+01 -0.57088121541E+02  0.69845665725E+01  0.57678986015E+02  0.00000000000E+00 0. -1.
        -11    1    3    3    0    0  0.13683540018E+01  0.67409378467E+02  0.76512058509E+02  0.10198035004E+03  0.00000000000E+00 0.  1.
         11    1    3    3    0    0  0.95147508798E+01 -0.30952384375E+02  0.43136370449E+02  0.53938177929E+02  0.00000000000E+00 0. -1.
         -2    1    1    2    0  502  0.16964225102E+02  0.14915480727E+02 -0.19169389728E+02  0.29626373405E+02  0.00000000000E+00 0.  1.
<scales pt_clust_5="13000.00000" pt_clust_6="13000.00000" pt_clust_7="13000.00000" pt_clust_8="13000.00000" pt_clust_9="22.58886"></scales>
<clustering>
<clus scale="   22.589">  2  9  1 -1</clus>
<clus scale="   76.019">  5  6 -1 -1</clus>
<clus scale="   88.417">  2  5  1 -1</clus>
<clus scale="   92.452">  7  8 -1 -1</clus>
<clus scale="   22.589">  2  5  1 -1</clus>
</clustering>
</event>
<event>
 9    2  0.3745229E-005  0.9955647E+02  0.7546771E-02  0.1290511E+00
         21   -1    0    0  501  502  0.00000000000E+00  0.00000000000E+00  0.27447182988E+03  0.27447182988E+03  0.00000000000E+00 0.  1.
         -1   -1    0    0    0  501 -0.00000000000E+00 -0.00000000000E+00 -0.12852289911E+03  0.12852289911E+03  0.00000000000E+00 0.  1.
         23    2    1    2    0    0  0.14355890081E+02 -0.49690967838E+02 -0.66283887538E+02  0.12669193361E+03  0.94773458470E+02 0.  0.
         24    2    1    2    0    0  0.29754221122E+01 -0.89818728361E+01  0.29766136283E+02  0.83852888482E+02  0.77818743637E+02 0.  0.
        -13    1    4    4    0    0  0.99327725404E+00 -0.39474840981E+02  0.35101392539E+02  0.52833298481E+02  0.00000000000E+00 0.  1.
         14    1    4    4    0    0  0.19821448581E+01  0.30492968145E+02 -0.53352562562E+01  0.31019590001E+02  0.00000000000E+00 0. -1.
        -13    1    3    3    0    0  0.44066100473E+02 -0.61638326992E+02 -0.43239240639E+02  0.87239535168E+02  0.00000000000E+00 0.  1.
         13    1    3    3    0    0 -0.29710210391E+02  0.11947359154E+02 -0.23044646899E+02  0.39452398444E+02  0.00000000000E+00 0. -1.
         -2    1    1    2    0  502 -0.17331312194E+02  0.58672840674E+02  0.18246668202E+03  0.19244990690E+03  0.00000000000E+00 0.  1.
<scales pt_clust_5="13000.00000" pt_clust_6="13000.00000" pt_clust_7="13000.00000" pt_clust_8="13000.00000" pt_clust_9="61.17905"></scales>
<clustering>
<clus scale="   61.179">  1  9  2 -1</clus>
<clus scale="   77.819">  5  6 -1 -1</clus>
<clus scale="   83.578">  1  5  2 -1</clus>
<clus scale="   94.773">  7  8 -1 -1</clus>
<clus scale="   61.179">  1  5  2 -1</clus>
</clustering>
</event>
<event>
 9    2  0.3745229E-005  0.1664872E+03  0.7546771E-02  0.1183159E+00
         21   -1    0    0  501  502  0.00000000000E+00  0.00000000000E+00  0.15084912564E+03  0.15084912564E+03  0.00000000000E+00 0. -1.
         -1   -1    0    0    0  501 -0.00000000000E+00 -0.00000000000E+00 -0.59586206662E+03  0.59586206662E+03  0.00000000000E+00 0.  1.
         24    2    1    2    0    0 -0.12174225397E+03 -0.50298729954E+02 -0.14379350242E+03  0.21026178308E+03  0.78627650659E+02 0.  0.
         23    2    1    2    0    0  0.17953928671E+03 -0.48515803648E+01  0.23311549073E+02  0.20223029595E+03  0.89976502338E+02 0.  0.
        -11    1    3    3    0    0 -0.47409331005E+02 -0.59349856232E+02 -0.91531903200E+02  0.11894595161E+03  0.00000000000E+00 0.  1.
         12    1    3    3    0    0 -0.74332922968E+02  0.90511262778E+01 -0.52261599219E+02  0.91315831469E+02  0.00000000000E+00 0. -1.
        -13    1    4    4    0    0  0.92194601035E+02 -0.17835573109E+02  0.54507673085E+02  0.10857733904E+03  0.00000000000E+00 0. -1.
         13    1    4    4    0    0  0.87344685679E+02  0.12983992744E+02 -0.31196124011E+02  0.93652956906E+02  0.00000000000E+00 0.  1.
         -2    1    1    2    0  502 -0.57797032740E+02  0.55150310319E+02 -0.32453098763E+03  0.33421911324E+03  0.00000000000E+00 0.  1.
<scales pt_clust_5="13000.00000" pt_clust_6="13000.00000" pt_clust_7="13000.00000" pt_clust_8="13000.00000" pt_clust_9="79.88780"></scales>
<clustering>
<clus scale="   78.628">  5  6 -1 -1</clus>
<clus scale="   79.888">  1  9  2 -1</clus>
<clus scale="   89.977">  7  8 -1 -1</clus>
<clus scale="  160.638">  2  5  1 -1</clus>
<clus scale="   79.888">  1  5  2 -1</clus>
</clustering>
</event>
<event>
 9    2  0.3745229E-005  0.1103686E+03  0.7546771E-02  0.1264151E+00
          4   -1    0    0  502    0 -0.00000000000E+00  0.00000000000E+00  0.15514903552E+03  0.15514903552E+03  0.00000000000E+00 0. -1.
         21   -1    0    0  501  502  0.00000000000E+00 -0.00000000000E+00 -0.21512914416E+03  0.21512914416E+03  0.00000000000E+00 0. -1.
         23    2    1    2    0    0  0.16958734666E+02 -0.62781173544E+02  0.84704886393E+02  0.14073978935E+03  0.91671675525E+02 0.  0.
         24    2    1    2    0    0 -0.43649656839E+02  0.27930809216E+02 -0.15693148534E+03  0.18396504566E+03  0.80809803155E+02 0.  0.
        -11    1    4    4    0    0 -0.28884485096E+01  0.43224974718E+02 -0.39134056202E+02  0.58379927449E+02  0.00000000000E+00 0.  1.
         12    1    4    4    0    0 -0.40761208329E+02 -0.15294165502E+02 -0.11779742914E+03  0.12558511821E+03  0.00000000000E+00 0. -1.
        -13    1    3    3    0    0  0.54263764658E+02 -0.36489996555E+02  0.38940947288E+02  0.76108300330E+02  0.00000000000E+00 0. -1.
         13    1    3    3    0    0 -0.37305029992E+02 -0.26291176989E+02  0.45763939105E+02  0.64631489017E+02  0.00000000000E+00 0.  1.
          3    1    1    2  501    0  0.26690922173E+02  0.34850364328E+02  0.12246490305E+02  0.45573344677E+02  0.00000000000E+00 0. -1.
<scales pt_clust_5="13000.00000" pt_clust_6="13000.00000" pt_clust_7="13000.00000" pt_clust_8="13000.00000" pt_clust_9="43.89710"></scales>
<clustering>
<clus scale="   43.897">  2  9  1 -1</clus>
<clus scale="   80.810">  5  6 -1 -1</clus>
<clus scale="   91.672">  7  8 -1 -1</clus>
<clus scale="  101.527">  2  5  1 -1</clus>
<clus scale="   43.897">  2  5  1 -1</clus>
</clustering>
</event>
<event>
 9    2  0.3745229E-005  0.1793231E+03  0.7546771E-02  0.1184514E+00
         21   -1    0    0  501  502  0.00000000000E+00  0.00000000000E+00  0.90718035038E+02  0.90718035038E+02  0.00000000000E+00 0.  1.
          4   -1    0    0  502    0 -0.00000000000E+00 -0.00000000000E+00 -0.63046826970E+03  0.63046826970E+03  0.00000000000E+00 0. -1.
         23    2    1    2    0    0 -0.84053211912E+02 -0.18460320851E+02 -0.12325202273E+03  0.17534584687E+03  0.90273911121E+02 0.  0.
         24    2    1    2    0    0  0.15603767864E+03  0.12116746816E+03 -0.18156615569E+03  0.27952562049E+03  0.78351714234E+02 0.  0.
        -11    1    4    4    0    0  0.15309902392E+03  0.10948501552E+03 -0.13552296196E+03  0.23193264748E+03  0.00000000000E+00 0.  1.
         12    1    4    4    0    0  0.29386547230E+01  0.11682452632E+02 -0.46043193730E+02  0.47592973010E+02  0.00000000000E+00 0. -1.
        -11    1    3    3    0    0 -0.96359400392E+02  0.37180113178E+01 -0.80405253002E+02  0.12555461904E+03  0.00000000000E+00 0.  1.
         11    1    3    3    0    0  0.12306188480E+02 -0.22178332168E+02 -0.42846769730E+02  0.49791227832E+02  0.00000000000E+00 0. -1.
          3    1    1    2  501    0 -0.71984466727E+02 -0.10270714731E+03 -0.23493205624E+03  0.26631483737E+03  0.00000000000E+00 0. -1.
<scales pt_clust_5="13000.00000" pt_clust_6="13000.00000" pt_clust_7="13000.00000" pt_clust_8="13000.00000" pt_clust_9="161.30042"></scales>
<clustering>
<clus scale="   78.352">  5  6 -1 -1</clus>
<clus scale="   90.274">  7  8 -1 -1</clus>
<clus scale="  124.720">  2  7  1 -1</clus>
<clus scale="  161.300">  1  9  2 -1</clus>
<clus scale="  161.300">  1  5  2 -1</clus>
</clustering>
</event>
<event>
 9    2  0.3745229E-005  0.2126649E+03  0.7546771E-02  0.1162881E+00
         21   -1    0    0  501  502  0.00000000000E+00  0.00000000000E+00  0.85872797678E+02  0.85872797678E+02  0.00000000000E+00 0. -1.
          2   -1    0    0  502    0 -0.00000000000E+00 -0.00000000000E+00 -0.12379968198E+04  0.12379968198E+04  0.00000000000E+00 0. -1.
         23    2    1    2    0    0 -0.21240334959E+01 -0.81569912744E+02 -0.64461247402E+02  0.13821509407E+03  0.91049424098E+02 0.  0.
         24    2    1    2    0    0  0.99421173900E+02  0.23234095678E+03 -0.83280638949E+03  0.87396490481E+03  0.79882929631E+02 0.  0.
        -11    1    4    4    0    0 -0.10074405999E+02  0.59786063658E+02 -0.19784584387E+03  0.20692714902E+03  0.00000000000E+00 0.  1.
         12    1    4    4    0    0  0.10949557990E+03  0.17255489312E+03 -0.63496054562E+03  0.66703775579E+03  0.00000000000E+00 0. -1.
        -13    1    3    3    0    0  0.30273183218E+02 -0.47970034944E+02  0.22831551755E+01  0.56769733769E+02  0.00000000000E+00 0. -1.
         13    1    3    3    0    0 -0.32397216714E+02 -0.33599877800E+02 -0.66744402578E+02  0.81445360300E+02  0.00000000000E+00 0.  1.
          1    1    1    2  501    0 -0.97297140404E+02 -0.15077104404E+03 -0.25485638524E+03  0.31168961861E+03  0.00000000000E+00 0. -1.
<scales pt_clust_5="13000.00000" pt_clust_6="13000.00000" pt_clust_7="13000.00000" pt_clust_8="13000.00000" pt_clust_9="197.09153"></scales>
<clustering>
<clus scale="   79.883">  5  6 -1 -1</clus>
<clus scale="   91.049">  7  8 -1 -1</clus>
<clus scale="  122.263">  2  7  1 -1</clus>
<clus scale="  197.092">  1  9  2 -1</clus>
<clus scale="  197.092">  1  5  2 -1</clus>
</clustering>
</event>
<event>
 9    2  0.3745229E-005  0.1148577E+03  0.7546771E-02  0.1255715E+00
         21   -1    0    0  501  502  0.00000000000E+00  0.00000000000E+00  0.71393380857E+02  0.71393380857E+02  0.00000000000E+00 0. -1.
         -1   -1    0    0    0  501 -0.00000000000E+00 -0.00000000000E+00 -0.25889559651E+03  0.25889559651E+03  0.00000000000E+00 0.  1.
         24    2    1    2    0    0 -0.63074195473E+02  0.29529574301E+02 -0.13636257124E+03  0.17311537081E+03  0.80770235130E+02 0.  0.
         23    2    1    2    0    0  0.70174185746E+02 -0.80251375067E+01 -0.62810489070E+02  0.13169696473E+03  0.91706672636E+02 0.  0.
        -11    1    3    3    0    0 -0.66835832763E+02 -0.53893181630E+01 -0.11141362913E+03  0.13003488012E+03  0.00000000000E+00 0.  1.
         12    1    3    3    0    0  0.37616372896E+01  0.34918892464E+02 -0.24948942110E+02  0.43080490694E+02  0.00000000000E+00 0. -1.
        -13    1    4    4    0    0  0.33310128618E+02 -0.28679001394E+02 -0.75685475932E+02  0.87523374344E+02  0.00000000000E+00 0.  1.
         13    1    4    4    0    0  0.36864057128E+02  0.20653863887E+02  0.12874986861E+02  0.44173590391E+02  0.00000000000E+00 0. -1.
         -2    1    1    2    0  502 -0.70999902730E+01 -0.21504436794E+02  0.11670844654E+02  0.25476641824E+02  0.00000000000E+00 0.  1.
<scales pt_clust_5="13000.00000" pt_clust_6="13000.00000" pt_clust_7="13000.00000" pt_clust_8="13000.00000" pt_clust_9="22.64621"></scales>
<clustering>
<clus scale="   22.646">  1  9  2 -1</clus>
<clus scale="   80.770">  5  6 -1 -1</clus>
<clus scale="   91.707">  7  8 -1 -1</clus>
<clus scale="  106.330">  2  5  1 -1</clus>
<clus scale="   22.646">  1  5  2 -1</clus>
</clustering>
</event>
<event>
 9    2  0.3745229E-005  0.9389714E+02  0.7546771E-02  0.1299845E+00
         21   -1    0    0  501  502  0.00000000000E+00  0.00000000000E+00  0.23948072587E+03  0.23948072587E+03  0.00000000000E+00 0. -1.
         -1   -1    0    0    0  501 -0.00000000000E+00 -0.00000000000E+00 -0.95667127719E+02  0.95667127719E+02  0.00000000000E+00 0.  1.
         23    2    1    2    0    0 -0.25089078370E+02 -0.46349927587E+02  0.68722612707E+00  0.10544755670E+03  0.91328732021E+02 0.  0.
         24    2    1    2    0    0 -0.34753659814E+02 -0.90790468338E+01  0.37159057994E+02  0.95974472306E+02  0.80870623724E+02 0.  0.
        -13    1    4    4    0    0  0.19447958894E+02  0.19006159434E+02  0.14823493820E+02  0.30970843879E+02  0.00000000000E+00 0.  1.
         14    1    4    4    0    0 -0.54201618708E+02 -0.28085206268E+02  0.22335564174E+02  0.65003628427E+02  0.00000000000E+00 0. -1.
        -13    1    3    3    0    0 -0.45353377950E+02 -0.63975903141E+02  0.30989004032E+01  0.78482152480E+02  0.00000000000E+00 0.  1.
         13    1    3    3    0    0  0.20264299580E+02  0.17625975554E+02 -0.24116742761E+01  0.26965404216E+02  0.00000000000E+00 0. -1.
         -2    1    1    2    0  502  0.59842738184E+02  0.55428974421E+02  0.10596731403E+03  0.13372582459E+03  0.00000000000E+00 0.  1.
<scales pt_clust_5="13000.00000" pt_clust_6="13000.00000" pt_clust_7="13000.00000" pt_clust_8="13000.00000" pt_clust_9="81.56914"></scales>
<clustering>
<clus scale="   80.871">  5  6 -1 -1</clus>
<clus scale="   81.569">  1  9  2 -1</clus>
<clus scale="   83.760">  1  5  2 -1</clus>
<clus scale="   91.329">  7  8 -1 -1</clus>
<clus scale="   81.569">  1  5  2 -1</clus>
</clustering>
</event>
<event>
 9    2  0.3745229E-005  0.1143796E+03  0.7546771E-02  0.1255280E+00
         21   -1    0    0  501  502  0.00000000000E+00  0.00000000000E+00  0.82444118370E+02  0.82444118370E+02  0.00000000000E+00 0. -1.
          2   -1    0    0  502    0 -0.00000000000E+00 -0.00000000000E+00 -0.26293512869E+03  0.26293512869E+03  0.00000000000E+00 0. -1.
         24    2    1    2    0    0 -0.74245039467E+02  0.47524604903E+01 -0.12760549748E+03  0.16865266344E+03  0.81398072048E+02 0.  0.
         23    2    1    2    0    0  0.67688847473E+02  0.23244257770E+02 -0.78221934344E+02  0.13840251623E+03  0.88963531261E+02 0.  0.
        -13    1    3    3    0    0 -0.19294456523E+02 -0.35926686908E+02 -0.36367075299E+02  0.54640342701E+02  0.00000000000E+00 0.  1.
         14    1    3    3    0    0 -0.54950582943E+02  0.40679147398E+02 -0.91238422181E+02  0.11401232074E+03  0.00000000000E+00 0. -1.
        -13    1    4    4    0    0  0.47693401998E+02  0.48612770967E+02 -0.18605467170E+02  0.70597631008E+02  0.00000000000E+00 0. -1.
         13    1    4    4    0    0  0.19995445475E+02 -0.25368513197E+02 -0.59616467174E+02  0.67804885221E+02  0.00000000000E+00 0.  1.
          1    1    1    2  501    0  0.65561919937E+01 -0.27996718260E+02  0.25336421502E+02  0.38324067390E+02  0.00000000000E+00 0. -1.
<scales pt_clust_5="13000.00000" pt_clust_6="13000.00000" pt_clust_7="13000.00000" pt_clust_8="13000.00000" pt_clust_9="28.75413"></scales>
<clustering>
<clus scale="   28.754">  1  9  2 -1</clus>
<clus scale="   81.398">  5  6 -1 -1</clus>
<clus scale="   88.964">  7  8 -1 -1</clus>
<clus scale="  108.599">  2  5  1 -1</clus>
<clus scale="   28.754">  1  5  2 -1</clus>
</clustering>
</event>
<event>
 9    2  0.3745229E-005  0.1747121E+03  0.7546771E-02  0.1174695E+00
          2   -1    0    0  502    0 -0.00000000000E+00  0.00000000000E+00  0.66193657282E+03  0.66193657282E+03  0.00000000000E+00 0. -1.
         21   -1    0    0  501  502  0.00000000000E+00 -0.00000000000E+00 -0.48712031262E+03  0.48712031262E+03  0.00000000000E+00 0.  1.
         23    2    1    2    0    0  0.13713195965E+03  0.71930459969E+02  0.58113685682E+03  0.60801411509E+03  0.89341772825E+02 0.  0.
         24    2    1    2    0    0 -0.45671505674E+02 -0.13977253868E+03 -0.59178933840E+02  0.17570060699E+03  0.75804406771E+02 0.  0.
        -11    1    4    4    0    0 -0.25317539350E+02 -0.48940270823E+02 -0.61517377090E+02  0.82586412872E+02  0.00000000000E+00 0.  1.
         12    1    4    4    0    0 -0.20353966324E+02 -0.90832267854E+02  0.23384432503E+01  0.93114194113E+02  0.00000000000E+00 0. -1.
        -11    1    3    3    0    0  0.92931340506E+02  0.45261227062E+02  0.50851004372E+03  0.51890970051E+03  0.00000000000E+00 0. -1.
         11    1    3    3    0    0  0.44200619148E+02  0.26669232907E+02  0.72626813098E+02  0.89104414580E+02  0.00000000000E+00 0.  1.
          1    1    1    2  501    0 -0.91460453980E+02  0.67842078708E+02 -0.34714166278E+03  0.36534216336E+03  0.00000000000E+00 0. -1.
<scales pt_clust_5="13000.00000" pt_clust_6="13000.00000" pt_clust_7="13000.00000" pt_clust_8="13000.00000" pt_clust_9="113.87520"></scales>
<clustering>
<clus scale="   75.804">  5  6 -1 -1</clus>
<clus scale="   89.342">  7  8 -1 -1</clus>
<clus scale="  113.875">  2  9  1 -1</clus>
<clus scale="  168.192">  2  5  1 -1</clus>
<clus scale="  113.875">  2  5  1 -1</clus>
</clustering>
</event>
<event>
 9    2  0.3745229E-005  0.9738093E+02  0.7546771E-02  0.1301467E+00
          2   -1    0    0  502    0 -0.00000000000E+00  0.00000000000E+00  0.52818931096E+02  0.52818931096E+02  0.00000000000E+00 0. -1.
         21   -1    0    0  501  502  0.00000000000E+00 -0.00000000000E+00 -0.30759985112E+03  0.30759985112E+03  0.00000000000E+00 0. -1.
         24    2    1    2    0    0  0.23881430271E+02 -0.47120866598E+02 -0.90162000949E+02  0.12256011358E+03  0.64039802036E+02 0.  0.
         23    2    1    2    0    0  0.93179172105E+01  0.93807537961E+01 -0.16352196928E+03  0.18758227172E+03  0.90955220331E+02 0.  0.
        -13    1    3    3    0    0  0.28450311068E+02 -0.24801323903E+02 -0.97483904031E+01  0.38981495388E+02  0.00000000000E+00 0.  1.
         14    1    3    3    0    0 -0.45688807977E+01 -0.22319542695E+02 -0.80413610546E+02  0.83578618192E+02  0.00000000000E+00 0. -1.
        -13    1    4    4    0    0  0.35103433870E+02  0.99346270312E+01 -0.15671819270E+03  0.16090848270E+03  0.00000000000E+00 0. -1.
         13    1    4    4    0    0 -0.25785516659E+02 -0.55387323509E+00 -0.68037765813E+01  0.26673789021E+02  0.00000000000E+00 0.  1.
          1    1    1    2  501    0 -0.33199347481E+02  0.37740112802E+02 -0.10969497953E+01  0.50276396911E+02  0.00000000000E+00 0. -1.
<scales pt_clust_5="13000.00000" pt_clust_6="13000.00000" pt_clust_7="13000.00000" pt_clust_8="13000.00000" pt_clust_9="50.26445"></scales>
<clustering>
<clus scale="   50.264">  2  9  1 -1</clus>
<clus scale="   64.040">  5  6 -1 -1</clus>
<clus scale="   72.879">  1  5  2 -1</clus>
<clus scale="   90.955">  7  8 -1 -1</clus>
<clus scale="   50.264">  2  5  1 -1</clus>
</clustering>
</event>
<event>
 9    2  0.3745229E-005  0.9578879E+02  0.7546771E-02  0.1295113E+00
         21   -1    0    0  501  502  0.00000000000E+00  0.00000000000E+00  0.39178023018E+02  0.39178023018E+02  0.00000000000E+00 0.  1.
          2   -1    0    0  502    0 -0.00000000000E+00 -0.00000000000E+00 -0.30963067867E+03  0.30963067867E+03  0.00000000000E+00 0. -1.
         24    2    1    2    0    0  0.16526097361E+02 -0.30395830903E+02 -0.18208675167E+03  0.20248752760E+03  0.81538918729E+02 0.  0.
         23    2    1    2    0    0  0.84236832763E+00  0.14091383619E+02 -0.71568313621E+02  0.11717228657E+03  0.91695390014E+02 0.  0.
        -11    1    3    3    0    0  0.38936469064E+02  0.11895284258E+02 -0.83331642400E+02  0.92745399001E+02  0.00000000000E+00 0.  1.
         12    1    3    3    0    0 -0.22410371703E+02 -0.42291115161E+02 -0.98755109274E+02  0.10974212860E+03  0.00000000000E+00 0. -1.
        -13    1    4    4    0    0 -0.12657872003E+02  0.30029301466E+02 -0.85878197129E+02  0.91853390859E+02  0.00000000000E+00 0. -1.
         13    1    4    4    0    0  0.13500240331E+02 -0.15937917847E+02  0.14309883507E+02  0.25318895716E+02  0.00000000000E+00 0.  1.
          1    1    1    2  501    0 -0.17368465689E+02  0.16304447284E+02 -0.16797590360E+02  0.29148887518E+02  0.00000000000E+00 0. -1.
<scales pt_clust_5="13000.00000" pt_clust_6="13000.00000" pt_clust_7="13000.00000" pt_clust_8="13000.00000" pt_clust_9="23.82223"></scales>
<clustering>
<clus scale="   23.822">  1  9  2 -1</clus>
<clus scale="   81.539">  5  6 -1 -1</clus>
<clus scale="   86.116">  2  5  1 -1</clus>
<clus scale="   91.695">  7  8 -1 -1</clus>
<clus scale="   23.822">  1  5  2 -1</clus>
</clustering>
</event>
<event>
 9    2  0.3745229E-005  0.1746536E+03  0.7546771E-02  0.1201297E+00
         -1   -1    0    0    0  501 -0.00000000000E+00  0.00000000000E+00  0.15333814564E+03  0.15333814564E+03  0.00000000000E+00 0.  1.
         21   -1    0    0  501  502  0.00000000000E+00 -0.00000000000E+00 -0.73256298477E+03  0.73256298477E+03  0.00000000000E+00 0.  1.
         23    2    1    2    0    0 -0.14498788854E+02 -0.60105404594E+01  0.89436933332E+02  0.12927266907E+03  0.92011501727E+02 0.  0.
         24    2    1    2    0    0 -0.14302253014E+03 -0.77903920981E+00 -0.18669543423E+03  0.24952825870E+03  0.83385344647E+02 0.  0.
        -11    1    4    4    0    0 -0.15357637313E+03  0.42214956611E+01 -0.16978433646E+03  0.22897651477E+03  0.00000000000E+00 0.  1.
         12    1    4    4    0    0  0.10553842995E+02 -0.50005348709E+01 -0.16911097765E+02  0.20551743930E+02  0.00000000000E+00 0. -1.
        -13    1    3    3    0    0 -0.24161018018E+02  0.29497046003E+02  0.66891946964E+01  0.38711443273E+02  0.00000000000E+00 0. -1.
         13    1    3    3    0    0  0.96622291643E+01 -0.35507586462E+02  0.82747738636E+02  0.90561225798E+02  0.00000000000E+00 0.  1.
         -2    1    1    2    0  502  0.15752131899E+03  0.67895796692E+01 -0.48196633823E+03  0.50710020264E+03  0.00000000000E+00 0.  1.
<scales pt_clust_5="13000.00000" pt_clust_6="13000.00000" pt_clust_7="13000.00000" pt_clust_8="13000.00000" pt_clust_9="153.46257"></scales>
<clustering>
<clus scale="   83.385">  5  6 -1 -1</clus>
<clus scale="   92.012">  7  8 -1 -1</clus>
<clus scale="   93.341">  1  7  2 -1</clus>
<clus scale="  153.463">  2  9  1 -1</clus>
<clus scale="  153.463">  2  5  1 -1</clus>
</clustering>
</event>
<event>
 9    2  0.3745229E-005  0.1311308E+03  0.7546771E-02  0.1228292E+00
          4   -1    0    0  502    0 -0.00000000000E+00  0.00000000000E+00  0.13097041894E+03  0.13097041894E+03  0.00000000000E+00 0. -1.
         21   -1    0    0  501  502  0.00000000000E+00 -0.00000000000E+00 -0.39610524668E+03  0.39610524668E+03  0.00000000000E+00 0. -1.
         23    2    1    2    0    0 -0.71804083873E+02 -0.31937870227E+02 -0.19960296876E+01  0.12029145418E+03  0.91050512345E+02 0.  0.
         24    2    1    2    0    0  0.79910261823E+02  0.86767040002E+02 -0.55606729758E+01  0.14331042052E+03  0.81195975096E+02 0.  0.
        -13    1    4    4    0    0  0.23618020620E+02 -0.13068788035E+02  0.73437219515E+01  0.27973815807E+02  0.00000000000E+00 0.  1.
         14    1    4    4    0    0  0.56292241203E+02  0.99835828037E+02 -0.12904394927E+02  0.11533660472E+03  0.00000000000E+00 0. -1.
        -11    1    3    3    0    0 -0.43478648785E+02 -0.18668122088E+02  0.44035710428E+02  0.64637724862E+02  0.00000000000E+00 0. -1.
         11    1    3    3    0    0 -0.28325435089E+02 -0.13269748139E+02 -0.46031740116E+02  0.55653729316E+02  0.00000000000E+00 0.  1.
          3    1    1    2  501    0 -0.81061779492E+01 -0.54829169775E+02 -0.25757812508E+03  0.26347379092E+03  0.00000000000E+00 0. -1.
<scales pt_clust_5="13000.00000" pt_clust_6="13000.00000" pt_clust_7="13000.00000" pt_clust_8="13000.00000" pt_clust_9="55.42516"></scales>
<clustering>
<clus scale="   55.425">  2  9  1 -1</clus>
<clus scale="   81.196">  5  6 -1 -1</clus>
<clus scale="   91.051">  7  8 -1 -1</clus>
<clus scale="  124.490">  2  5  1 -1</clus>
<clus scale="   55.425">  2  5  1 -1</clus>
</clustering>
</event>
<event>
 9    2  0.3745229E-005  0.2113459E+03  0.7546771E-02  0.1140505E+00
          2   -1    0    0  502    0 -0.00000000000E+00  0.00000000000E+00  0.20929772811E+03  0.20929772811E+03  0.00000000000E+00 0. -1.
         21   -1    0    0  501  502  0.00000000000E+00 -0.00000000000E+00 -0.23352536323E+03  0.23352536323E+03  0.00000000000E+00 0. -1.
         24    2    1    2    0    0  0.36545349467E+02  0.72544427052E+02 -0.10177446454E+03  0.15239248500E+03  0.79165468410E+02 0.  0.
         23    2    1    2    0    0  0.29126403216E+02  0.17500682848E+02 -0.59738253564E+02  0.11360273827E+03  0.90456077402E+02 0.  0.
        -13    1    3    3    0    0  0.18622973309E+02  0.71584368360E+02 -0.32432023838E+02  0.80764924927E+02  0.00000000000E+00 0.  1.
         14    1    3    3    0    0  0.17922376158E+02  0.96005869264E+00 -0.69342440698E+02  0.71627560072E+02  0.00000000000E+00 0. -1.
        -11    1    4    4    0    0 -0.23155962870E+02 -0.90210687043E+01  0.59550727074E+01  0.25554670570E+02  0.00000000000E+00 0.  1.
         11    1    4    4    0    0  0.52282366086E+02  0.26521751553E+02 -0.65693326271E+02  0.88048067699E+02  0.00000000000E+00 0. -1.
          1    1    1    2  501    0 -0.65671752683E+02 -0.90045109900E+02  0.13728508298E+03  0.17682786807E+03  0.00000000000E+00 0. -1.
<scales pt_clust_5="13000.00000" pt_clust_6="13000.00000" pt_clust_7="13000.00000" pt_clust_8="13000.00000" pt_clust_9="111.44915"></scales>
<clustering>
<clus scale="   79.165">  5  6 -1 -1</clus>
<clus scale="   90.456">  7  8 -1 -1</clus>
<clus scale="   92.804">  5  7 -1 -1</clus>
<clus scale="  111.449">  2  9  1 -1</clus>
<clus scale="  111.449">  2  5  1 -1</clus>
</clustering>
</event>
<event>
 9    2  0.3745229E-005  0.1014814E+03  0.7546771E-02  0.1287282E+00
         -3   -1    0    0    0  501 -0.00000000000E+00  0.00000000000E+00  0.24325578387E+03  0.24325578387E+03  0.00000000000E+00 0.  1.
         21   -1    0    0  501  502  0.00000000000E+00 -0.00000000000E+00 -0.95873037520E+02  0.95873037520E+02  0.00000000000E+00 0. -1.
         23    2    1    2    0    0  0.26388255778E+02  0.89721828746E+01  0.19488376234E+03  0.22010248242E+03  0.98430593993E+02 0.  0.
         24    2    1    2    0    0 -0.50370230221E+01 -0.34534008706E+01 -0.53051712262E+02  0.96285575487E+02  0.80119475125E+02 0.  0.
        -11    1    4    4    0    0  0.33029326586E+02 -0.34259732810E+01 -0.29134969246E+01  0.33334099237E+02  0.00000000000E+00 0.  1.
         12    1    4    4    0    0 -0.38066349608E+02 -0.27427589561E-01 -0.50138215338E+02  0.62951476249E+02  0.00000000000E+00 0. -1.
        -13    1    3    3    0    0  0.32148072555E+02  0.39129664147E+02  0.17799985282E+03  0.18506371008E+03  0.00000000000E+00 0.  1.
         13    1    3    3    0    0 -0.57598167777E+01 -0.30157481272E+02  0.16883909517E+02  0.35038772333E+02  0.00000000000E+00 0. -1.
         -4    1    1    2    0  502 -0.21351232756E+02 -0.55187820040E+01  0.55506962758E+01  0.22740763491E+02  0.00000000000E+00 0.  1.
<scales pt_clust_5="13000.00000" pt_clust_6="13000.00000" pt_clust_7="13000.00000" pt_clust_8="13000.00000" pt_clust_9="22.05294"></scales>
<clustering>
<clus scale="   22.053">  2  9  1 -1</clus>
<clus scale="   80.119">  5  6 -1 -1</clus>
<clus scale="   83.839">  2  5  1 -1</clus>
<clus scale="   98.431">  7  8 -1 -1</clus>
<clus scale="   22.053">  2  5  1 -1</clus>
</clustering>
</event>
<event>
 9    2  0.3745229E-005  0.1337971E+03  0.7546771E-02  0.1242518E+00
         21   -1    0    0  501  502  0.00000000000E+00  0.00000000000E+00  0.12432320699E+03  0.12432320699E+03  0.00000000000E+00 0. -1.
          4   -1    0    0  502    0 -0.00000000000E+00 -0.00000000000E+00 -0.41289943272E+03  0.41289943272E+03  0.00000000000E+00 0. -1.
         24    2    1    2    0    0  0.59008943036E+01  0.33489682380E+02 -0.38020091425E+01  0.87674546139E+02  0.80721690937E+02 0.  0.
         23    2    1    2    0    0  0.54688406633E+02 -0.10455586097E+03 -0.31678481494E+03  0.35082553518E+03  0.93825301865E+02 0.  0.
        -11    1    3    3    0    0  0.28480533692E+02  0.46871974797E+01  0.27237577703E+02  0.39686222530E+02  0.00000000000E+00 0.  1.
         12    1    3    3    0    0 -0.22579639388E+02  0.28802484900E+02 -0.31039586845E+02  0.47988323609E+02  0.00000000000E+00 0. -1.
        -13    1    4    4    0    0 -0.20507660620E+02 -0.49389259334E+02 -0.78931980159E+02  0.95342123815E+02  0.00000000000E+00 0.  1.
         13    1    4    4    0    0  0.75196067253E+02 -0.55166601638E+02 -0.23785283478E+03  0.25548341136E+03  0.00000000000E+00 0. -1.
          3    1    1    2  501    0 -0.60589300936E+02  0.71066178592E+02  0.32010598354E+02  0.98722558388E+02  0.00000000000E+00 0. -1.
<scales pt_clust_5="13000.00000" pt_clust_6="13000.00000" pt_clust_7="13000.00000" pt_clust_8="13000.00000" pt_clust_9="95.38596"></scales>
<clustering>
<clus scale="   80.722">  5  6 -1 -1</clus>
<clus scale="   87.592">  2  5  1 -1</clus>
<clus scale="   93.825">  7  8 -1 -1</clus>
<clus scale="   95.386">  1  9  2 -1</clus>
<clus scale="   95.386">  1  5  2 -1</clus>
</clustering>
</event>
<event>
 9    2  0.3745229E-005  0.2364429E+03  0.7546771E-02  0.1122928E+00
         21   -1    0    0  501  502  0.00000000000E+00  0.00000000000E+00  0.46153404246E+03  0.46153404246E+03  0.00000000000E+00 0.  1.
         -1   -1    0    0    0  501 -0.00000000000E+00 -0.00000000000E+00 -0.63499285868E+03  0.63499285868E+03  0.00000000000E+00 0.  1.
         24    2    1    2    0    0 -0.76850041761E+01 -0.21944491610E+03 -0.57790303271E+03  0.62365017985E+03  0.82173603595E+02 0.  0.
         23    2    1    2    0    0  0.70770427887E+01  0.17968601529E+03  0.31034379051E+03  0.37071983225E+03  0.93716471832E+02 0.  0.
        -11    1    3    3    0    0 -0.28440643402E+02 -0.19837423967E+03 -0.45395254288E+03  0.49621983066E+03  0.00000000000E+00 0.  1.
         12    1    3    3    0    0  0.20755639226E+02 -0.21070676430E+02 -0.12395048983E+03  0.12743034919E+03  0.00000000000E+00 0. -1.
        -13    1    4    4    0    0 -0.15379425717E+02  0.74362998384E+02  0.21083666186E+03  0.22409480192E+03  0.00000000000E+00 0. -1.
         13    1    4    4    0    0  0.22456468505E+02  0.10532301690E+03  0.99507128650E+02  0.14662503033E+03  0.00000000000E+00 0.  1.
         -2    1    1    2    0  502  0.60796138739E+00  0.39758900809E+02  0.94100425971E+02  0.10215688904E+03  0.00000000000E+00 0.  1.
<scales pt_clust_5="13000.00000" pt_clust_6="13000.00000" pt_clust_7="13000.00000" pt_clust_8="13000.00000" pt_clust_9="39.76355"></scales>
<clustering>
<clus scale="   39.764">  1  9  2 -1</clus>
<clus scale="   82.174">  5  6 -1 -1</clus>
<clus scale="   93.716">  7  8 -1 -1</clus>
<clus scale="  232.110">  2  5  1 -1</clus>
<clus scale="   39.764">  1  5  2 -1</clus>
</clustering>
</event>
<event>
 9    2  0.3745229E-005  0.1519580E+03  0.7546771E-02  0.1206017E+00
         21   -1    0    0  501  502  0.00000000000E+00  0.00000000000E+00  0.88683133864E+03  0.88683133864E+03  0.00000000000E+00 0.  1.
         -3   -1    0    0    0  501 -0.00000000000E+00 -0.00000000000E+00 -0.71809293058E+02  0.71809293058E+02  0.00000000000E+00 0.  1.
         24    2    1    2    0    0 -0.14952336086E+02 -0.98509929970E+02  0.19073415316E+03  0.22970019286E+03  0.80342285023E+02 0.  0.
         23    2    1    2    0    0 -0.11421121419E+03  0.11399599397E+03  0.13952649618E+03  0.22702744620E+03  0.77682238009E+02 0.  0.
        -13    1    3    3    0    0 -0.42567485995E+02 -0.87641736571E+02  0.13405922714E+03  0.16572549965E+03  0.00000000000E+00 0.  1.
         14    1    3    3    0    0  0.27615149910E+02 -0.10868193399E+02  0.56674926021E+02  0.63974693214E+02  0.00000000000E+00 0. -1.
        -11    1    4    4    0    0 -0.32689671390E+02  0.83053836238E+02  0.89970650537E+02  0.12673307495E+03  0.00000000000E+00 0.  1.
         11    1    4    4    0    0 -0.81521542797E+02  0.30942157731E+02  0.49555845647E+02  0.10029437124E+03  0.00000000000E+00 0. -1.
         -4    1    1    2    0  502  0.12916355027E+03 -0.15486063999E+02  0.48476139624E+03  0.50191299264E+03  0.00000000000E+00 0.  1.
<scales pt_clust_5="13000.00000" pt_clust_6="13000.00000" pt_clust_7="13000.00000" pt_clust_8="13000.00000" pt_clust_9="130.60130"></scales>
<clustering>
<clus scale="   77.682">  7  8 -1 -1</clus>
<clus scale="   80.342">  5  6 -1 -1</clus>
<clus scale="  127.995">  2  5  1 -1</clus>
<clus scale="  130.601">  1  9  2 -1</clus>
<clus scale="  130.601">  1  5  2 -1</clus>
</clustering>
</event>
<event>
 9    2  0.3745229E-005  0.1183765E+03  0.7546771E-02  0.1249654E+00
          2   -1    0    0  502    0 -0.00000000000E+00  0.00000000000E+00  0.26981570916E+03  0.26981570916E+03  0.00000000000E+00 0. -1.
         21   -1    0    0  501  502  0.00000000000E+00 -0.00000000000E+00 -0.25106087410E+03  0.25106087410E+03  0.00000000000E+00 0. -1.
         24    2    1    2    0    0  0.62763327275E+02 -0.53208073407E+02  0.17455371115E+03  0.20889466228E+03  0.79985295693E+02 0.  0.
         23    2    1    2    0    0 -0.44359531073E+02  0.38053046318E+02  0.39168815638E+02  0.11556202540E+03  0.91676514245E+02 0.  0.
        -13    1    3    3    0    0  0.77046800181E+02 -0.28524387668E+02  0.15101447900E+03  0.17191632552E+03  0.00000000000E+00 0.  1.
         14    1    3    3    0    0 -0.14283472906E+02 -0.24683685739E+02  0.23539232143E+02  0.36978336764E+02  0.00000000000E+00 0. -1.
        -11    1    4    4    0    0 -0.61132243551E+02  0.33140057331E+01  0.45750950950E+02  0.76428288928E+02  0.00000000000E+00 0. -1.
         11    1    4    4    0    0  0.16772712479E+02  0.34739040585E+02 -0.65821353122E+01  0.39133736468E+02  0.00000000000E+00 0.  1.
          1    1    1    2  501    0 -0.18403796202E+02  0.15155027089E+02 -0.19496769173E+03  0.19641989558E+03  0.00000000000E+00 0. -1.
<scales pt_clust_5="13000.00000" pt_clust_6="13000.00000" pt_clust_7="13000.00000" pt_clust_8="13000.00000" pt_clust_9="23.84061"></scales>
<clustering>
<clus scale="   23.841">  2  9  1 -1</clus>
<clus scale="   79.985">  5  6 -1 -1</clus>
<clus scale="   91.677">  7  8 -1 -1</clus>
<clus scale="  109.572">  1  5  2 -1</clus>
<clus scale="   23.841">  2  5  1 -1</clus>
</clustering>
</event>
<event>
 9    2  0.3745229E-005  0.1523675E+03  0.7546771E-02  0.1229962E+00
         -1   -1    0    0    0  501 -0.00000000000E+00  0.00000000000E+00  0.21639577974E+03  0.21639577974E+03  0.00000000000E+00 0.  1.
         21   -1    0    0  501  502  0.00000000000E+00 -0.00000000000E+00 -0.21787550666E+03  0.21787550666E+03  0.00000000000E+00 0.  1.
         23    2    1    2    0    0 -0.62974016930E+01 -0.51866525160E+02 -0.97737121562E+02  0.12421528489E+03  0.56099005071E+02 0.  0.
         24    2    1    2    0    0 -0.24494336465E+02 -0.10676425797E+03  0.39394772613E+02  0.13875155241E+03  0.75508051814E+02 0.  0.
        -11    1    4    4    0    0 -0.45276349464E+02 -0.73952461006E+02  0.47798664620E+02  0.99013265016E+02  0.00000000000E+00 0.  1.
         12    1    4    4    0    0  0.20782012999E+02 -0.32811796966E+02 -0.84038920073E+01  0.39738287398E+02  0.00000000000E+00 0. -1.
        -11    1    3    3    0    0 -0.43151121845E+01 -0.29798381816E+02 -0.71347535835E+01  0.30942987262E+02  0.00000000000E+00 0. -1.
         11    1    3    3    0    0 -0.19822895084E+01 -0.22068143345E+02 -0.90602367978E+02  0.93272297632E+02  0.00000000000E+00 0.  1.
         -2    1    1    2    0  502  0.30791738158E+02  0.15863078313E+03  0.56862622024E+02  0.17130444909E+03  0.00000000000E+00 0.  1.
<scales pt_clust_5="13000.00000" pt_clust_6="13000.00000" pt_clust_7="13000.00000" pt_clust_8="13000.00000" pt_clust_9="132.34197"></scales>
<clustering>
<clus scale="   56.099">  7  8 -1 -1</clus>
<clus scale="   75.508">  5  6 -1 -1</clus>
<clus scale="   76.661">  1  7  2 -1</clus>
<clus scale="  132.342">  2  9  1 -1</clus>
<clus scale="  132.342">  2  5  1 -1</clus>
</clustering>
</event>
<event>
 9    2  0.3745229E-005  0.9124291E+02  0.7546771E-02  0.1302527E+00
         -1   -1    0    0    0  501 -0.00000000000E+00  0.00000000000E+00  0.21802474766E+03  0.21802474766E+03  0.00000000000E+00 0.  1.
         21   -1    0    0  501  502  0.00000000000E+00 -0.00000000000E+00 -0.10664149395E+03  0.10664149395E+03  0.00000000000E+00 0. -1.
         23    2    1    2    0    0 -0.10884719490E+02 -0.12666375680E+02  0.16330231085E+03  0.18724143506E+03  0.90071061305E+02 0.  0.
         24    2    1    2    0    0  0.55654126268E+01 -0.70290736766E+01 -0.69362727866E+02  0.11058291021E+03  0.85656350143E+02 0.  0.
        -11    1    4    4    0    0  0.38396499390E+02 -0.45434615446E+01 -0.59330328988E+01  0.39116941184E+02  0.00000000000E+00 0.  1.
         12    1    4    4    0    0 -0.32831086763E+02 -0.24856121321E+01 -0.63429694967E+02  0.71465969030E+02  0.00000000000E+00 0. -1.
        -11    1    3    3    0    0 -0.25282759174E+02 -0.39442475828E+02  0.14351249884E+03  0.15096610260E+03  0.00000000000E+00 0.  1.
         11    1    3    3    0    0  0.14398039683E+02  0.26776100149E+02  0.19789812006E+02  0.36275332460E+02  0.00000000000E+00 0. -1.
         -2    1    1    2    0  502  0.53193068636E+01  0.19695449356E+02  0.17443670731E+02  0.26841896345E+02  0.00000000000E+00 0.  1.
<scales pt_clust_5="13000.00000" pt_clust_6="13000.00000" pt_clust_7="13000.00000" pt_clust_8="13000.00000" pt_clust_9="20.40113"></scales>
<clustering>
<clus scale="   20.401">  2  9  1 -1</clus>
<clus scale="   85.656">  5  6 -1 -1</clus>
<clus scale="   86.888">  2  5  1 -1</clus>
<clus scale="   90.071">  7  8 -1 -1</clus>
<clus scale="   20.401">  2  5  1 -1</clus>
</clustering>
</event>
<event>
 9    2  0.3745229E-005  0.1350487E+03  0.7546771E-02  0.1233796E+00
          2   -1    0    0  502    0 -0.00000000000E+00  0.00000000000E+00  0.17189714345E+03  0.17189714345E+03  0.00000000000E+00 0. -1.
         21   -1    0    0  501  502  0.00000000000E+00 -0.00000000000E+00 -0.26262357677E+03  0.26262357677E+03  0.00000000000E+00 0. -1.
         23    2    1    2    0    0 -0.44913298731E+02 -0.11950963936E+02 -0.14638154191E+02  0.10279096123E+03  0.90507879269E+02 0.  0.
         24    2    1    2    0    0  0.33279000781E+02 -0.10250602656E+03 -0.14453939063E+03  0.19785924607E+03  0.81496432045E+02 0.  0.
        -11    1    4    4    0    0 -0.25009173347E+02 -0.18206239840E+02 -0.21230313600E+02  0.37518690491E+02  0.00000000000E+00 0.  1.
         12    1    4    4    0    0  0.58288174128E+02 -0.84299786724E+02 -0.12330907703E+03  0.16034055558E+03  0.00000000000E+00 0. -1.
        -11    1    3    3    0    0 -0.69652604650E+02 -0.19487294030E+02 -0.22524507008E+02  0.75753504071E+02  0.00000000000E+00 0. -1.
         11    1    3    3    0    0  0.24739305919E+02  0.75363300936E+01  0.78863528166E+01  0.27037457155E+02  0.00000000000E+00 0.  1.
          1    1    1    2  501    0  0.11634297950E+02  0.11445699050E+03  0.68451111512E+02  0.13387051292E+03  0.00000000000E+00 0. -1.
<scales pt_clust_5="13000.00000" pt_clust_6="13000.00000" pt_clust_7="13000.00000" pt_clust_8="13000.00000" pt_clust_9="107.68697"></scales>
<clustering>
<clus scale="   81.496">  5  6 -1 -1</clus>
<clus scale="   90.508">  7  8 -1 -1</clus>
<clus scale="  101.743">  1  7  2 -1</clus>
<clus scale="  107.687">  2  9  1 -1</clus>
<clus scale="  107.687">  2  5  1 -1</clus>
</clustering>
</event>
<event>
 9    2  0.3745229E-005  0.1163823E+03  0.7546771E-02  0.1253319E+00
         -1   -1    0    0    0  501 -0.00000000000E+00  0.00000000000E+00  0.10521813992E+04  0.10521813992E+04  0.00000000000E+00 0.  1.
         21   -1    0    0  501  502  0.00000000000E+00 -0.00000000000E+00 -0.52230104652E+02  0.52230104652E+02  0.00000000000E+00 0.  1.
         24    2    1    2    0    0 -0.64481315305E+02 -0.18670718319E+02  0.78860222078E+03  0.79541517209E+03  0.79280499606E+02 0.  0.
         23    2    1    2    0    0  0.10452511267E+03 -0.41234221335E+00  0.22341515174E+03  0.26302613328E+03  0.91338642191E+02 0.  0.
        -11    1    3    3    0    0 -0.73737296068E+02 -0.26015561932E+02  0.45983347162E+03  0.46643415389E+03  0.00000000000E+00 0.  1.
         12    1    3    3    0    0  0.92559807630E+01  0.73448436136E+01  0.32876874916E+03  0.32898101819E+03  0.00000000000E+00 0. -1.
        -11    1    4    4    0    0  0.42190785521E+02  0.44241392176E+02  0.83640298411E+02  0.10360049557E+03  0.00000000000E+00 0. -1.
         11    1    4    4    0    0  0.62334327154E+02 -0.44653734389E+02  0.13977485332E+03  0.15942563771E+03  0.00000000000E+00 0.  1.
         -2    1    1    2    0  502 -0.40043797370E+02  0.19083060532E+02 -0.12066078005E+02  0.45970198449E+02  0.00000000000E+00 0.  1.
<scales pt_clust_5="13000.00000" pt_clust_6="13000.00000" pt_clust_7="13000.00000" pt_clust_8="13000.00000" pt_clust_9="44.35841"></scales>
<clustering>
<clus scale="   44.358">  2  9  1 -1</clus>
<clus scale="   79.280">  5  6 -1 -1</clus>
<clus scale="   91.339">  7  8 -1 -1</clus>
<clus scale="  107.180">  1  5  2 -1</clus>
<clus scale="   44.358">  2  5  1 -1</clus>
</clustering>
</event>
<event>
 9    2  0.3745229E-005  0.9354105E+02  0.7546771E-02  0.1302733E+00
          2   -1    0    0  502    0 -0.00000000000E+00  0.00000000000E+00  0.20699401126E+04  0.20699401126E+04  0.00000000000E+00 0. -1.
         21   -1    0    0  501  502  0.00000000000E+00 -0.00000000000E+00 -0.15228280908E+02  0.15228280908E+02  0.00000000000E+00 0. -1.
         24    2    1    2    0    0  0.27856844970E+01  0.13460719463E+02  0.17431400178E+04  0.17450129442E+04  0.79649874558E+02 0.  0.
         23    2    1    2    0    0  0.14837437559E+02  0.22146486527E+02  0.22526822967E+03  0.24514620668E+03  0.92953057672E+02 0.  0.
        -11    1    3    3    0    0  0.12351646960E+02  0.18461494190E+02  0.13339323475E+03  0.13522997089E+03  0.00000000000E+00 0.  1.
         12    1    3    3    0    0 -0.95659624629E+01 -0.50007747273E+01  0.16097467831E+04  0.16097829733E+04  0.00000000000E+00 0. -1.
        -13    1    4    4    0    0 -0.12574529759E+02  0.53306965752E+02  0.13943487667E+03  0.14980599530E+03  0.00000000000E+00 0. -1.
         13    1    4    4    0    0  0.27411967319E+02 -0.31160479225E+02  0.85833352999E+02  0.95340211374E+02  0.00000000000E+00 0.  1.
          1    1    1    2  501    0 -0.17623122056E+02 -0.35607205990E+02  0.86303584231E+02  0.95009242711E+02  0.00000000000E+00 0. -1.
<scales pt_clust_5="13000.00000" pt_clust_6="13000.00000" pt_clust_7="13000.00000" pt_clust_8="13000.00000" pt_clust_9="39.72968"></scales>
<clustering>
<clus scale="   39.730">  2  9  1 -1</clus>
<clus scale="   79.650">  5  6 -1 -1</clus>
<clus scale="   80.335">  1  5  2 -1</clus>
<clus scale="   92.953">  7  8 -1 -1</clus>
<clus scale="   39.730">  2  5  1 -1</clus>
</clustering>
</event>
<event>
 9    2  0.3745229E-005  0.1375903E+03  0.7546771E-02  0.1218300E+00
         21   -1    0    0  501  502  0.00000000000E+00  0.00000000000E+00  0.14873189327E+03  0.14873189327E+03  0.00000000000E+00 0. -1.
          2   -1    0    0  502    0 -0.00000000000E+00 -0.00000000000E+00 -0.29099440238E+03  0.29099440238E+03  0.00000000000E+00 0. -1.
         23    2    1    2    0    0  0.18087432581E+02  0.85990564103E+02 -0.14586532733E+03  0.19299601199E+03  0.90825297119E+02 0.  0.
         24    2    1    2    0    0 -0.28136062962E+02 -0.14708717969E+03 -0.33388124994E+02  0.17460468981E+03  0.83341192359E+02 0.  0.
        -11    1    4    4    0    0 -0.55064440797E+02 -0.66236839169E+02 -0.15154921136E+02  0.87459036915E+02  0.00000000000E+00 0.  1.
         12    1    4    4    0    0  0.26928377835E+02 -0.80850340521E+02 -0.18233203857E+02  0.87145652893E+02  0.00000000000E+00 0. -1.
        -13    1    3    3    0    0  0.46991372756E+02  0.79054125450E+02 -0.13017609970E+03  0.15938494533E+03  0.00000000000E+00 0.  1.
         13    1    3    3    0    0 -0.28903940175E+02  0.69364386528E+01 -0.15689227628E+02  0.33611066665E+02  0.00000000000E+00 0. -1.
          1    1    1    2  501    0  0.10048630381E+02  0.61096615587E+02  0.36990943206E+02  0.72125593849E+02  0.00000000000E+00 0. -1.
<scales pt_clust_5="13000.00000" pt_clust_6="13000.00000" pt_clust_7="13000.00000" pt_clust_8="13000.00000" pt_clust_9="61.91746"></scales>
<clustering>
<clus scale="   61.917">  1  9  2 -1</clus>
<clus scale="   83.341">  5  6 -1 -1</clus>
<clus scale="   90.825">  7  8 -1 -1</clus>
<clus scale="  132.769">  1  5  2 -1</clus>
<clus scale="   61.917">  1  5  2 -1</clus>
</clustering>
</event>
<event>
 9    2  0.3745229E-005  0.1336799E+03  0.7546771E-02  0.1224257E+00
         21   -1    0    0  501  502  0.00000000000E+00  0.00000000000E+00  0.41482817362E+02  0.41482817362E+02  0.00000000000E+00 0. -1.
          2   -1    0    0  502    0 -0.00000000000E+00 -0.00000000000E+00 -0.23780744600E+04  0.23780744600E+04  0.00000000000E+00 0. -1.
         24    2    1    2    0    0 -0.24454155786E+02 -0.10429870761E+03 -0.21361877206E+04  0.21405317406E+04  0.84272942912E+02 0.  0.
         23    2    1    2    0    0  0.14372598814E+02  0.25866545580E+02 -0.16650549796E+03  0.19298865519E+03  0.92977902776E+02 0.  0.
        -13    1    3    3    0    0 -0.22408769582E+02 -0.79071972351E+01 -0.13887512256E+03  0.14089349306E+03  0.00000000000E+00 0.  1.
         14    1    3    3    0    0 -0.20453862035E+01 -0.96391510379E+02 -0.19973125980E+04  0.19996382476E+04  0.00000000000E+00 0. -1.
        -11    1    4    4    0    0 -0.38288149838E+02  0.75279042651E-01 -0.55150158701E+02  0.67138126946E+02  0.00000000000E+00 0.  1.
         11    1    4    4    0    0  0.52660748652E+02  0.25791266538E+02 -0.11135533926E+03  0.12585052825E+03  0.00000000000E+00 0. -1.
          1    1    1    2  501    0  0.10081556972E+02  0.78432162034E+02 -0.33898424116E+02  0.86036881567E+02  0.00000000000E+00 0. -1.
<scales pt_clust_5="13000.00000" pt_clust_6="13000.00000" pt_clust_7="13000.00000" pt_clust_8="13000.00000" pt_clust_9="79.07744"></scales>
<clustering>
<clus scale="   79.077">  1  9  2 -1</clus>
<clus scale="   84.273">  5  6 -1 -1</clus>
<clus scale="   92.978">  7  8 -1 -1</clus>
<clus scale="  127.779">  2  5  1 -1</clus>
<clus scale="   79.077">  1  5  2 -1</clus>
</clustering>
</event>
<event>
 9    2  0.3745229E-005  0.1836688E+03  0.7546771E-02  0.1193327E+00
          2   -1    0    0  502    0 -0.00000000000E+00  0.00000000000E+00  0.95165045030E+03  0.95165045030E+03  0.00000000000E+00 0. -1.
         21   -1    0    0  501  502  0.00000000000E+00 -0.00000000000E+00 -0.63355007818E+02  0.63355007818E+02  0.00000000000E+00 0.  1.
         23    2    1    2    0    0  0.41343717950E+01  0.27933958461E+02  0.23968516747E+03  0.25801130534E+03  0.91232971613E+02 0.  0.
         24    2    1    2    0    0  0.78364316886E+02 -0.15349284276E+03  0.16819527276E+03  0.25363578994E+03  0.79626912656E+02 0.  0.
        -11    1    4    4    0    0  0.77103927104E+02 -0.15982859733E+03  0.17114198447E+03  0.24653554500E+03  0.00000000000E+00 0.  1.
         12    1    4    4    0    0  0.12603897811E+01  0.63357545696E+01 -0.29467117057E+01  0.71002449425E+01  0.00000000000E+00 0. -1.
        -13    1    3    3    0    0 -0.31386528023E+02 -0.10819839828E+02  0.15357537455E+03  0.15712281420E+03  0.00000000000E+00 0. -1.
         13    1    3    3    0    0  0.35520899818E+02  0.38753798289E+02  0.86109792926E+02  0.10088849113E+03  0.00000000000E+00 0.  1.
          1    1    1    2  501    0 -0.82498688681E+02  0.12555888430E+03  0.48041500225E+03  0.50335836285E+03  0.00000000000E+00 0. -1.
<scales pt_clust_5="13000.00000" pt_clust_6="13000.00000" pt_clust_7="13000.00000" pt_clust_8="13000.00000" pt_clust_9="165.51077"></scales>
<clustering>
<clus scale="   79.627">  5  6 -1 -1</clus>
<clus scale="   91.233">  7  8 -1 -1</clus>
<clus scale="   95.503">  1  7  2 -1</clus>
<clus scale="  165.511">  2  9  1 -1</clus>
<clus scale="  165.511">  2  5  1 -1</clus>
</clustering>
</event>
<event>
 9    2  0.3745229E-005  0.9025503E+02  0.7546771E-02  0.1308498E+00
         -3   -1    0    0    0  501 -0.00000000000E+00  0.00000000000E+00  0.17359196161E+03  0.17359196161E+03  0.00000000000E+00 0.  1.
         21   -1    0    0  501  502  0.00000000000E+00 -0.00000000000E+00 -0.71681550362E+02  0.71681550362E+02  0.00000000000E+00 0.  1.
         24    2    1    2    0    0  0.11104744347E+01 -0.69530875608E+01  0.62524817816E+02  0.10173871746E+03  0.79948953757E+02 0.  0.
         23    2    1    2    0    0  0.31818289325E+02 -0.10806917290E+02  0.10819308651E+02  0.96462999549E+02  0.89771152636E+02 0.  0.
        -11    1    3    3    0    0  0.28613450434E+02 -0.10075315675E+02  0.67141729514E+02  0.73676681343E+02  0.00000000000E+00 0.  1.
         12    1    3    3    0    0 -0.27502976000E+02  0.31222281143E+01 -0.46169116978E+01  0.28062036114E+02  0.00000000000E+00 0. -1.
        -11    1    4    4    0    0  0.28685474188E+02  0.23243109755E+02  0.37850629178E+02  0.52875029169E+02  0.00000000000E+00 0. -1.
         11    1    4    4    0    0  0.31328151372E+01 -0.34050027045E+02 -0.27031320527E+02  0.43587970380E+02  0.00000000000E+00 0.  1.
         -4    1    1    2    0  502 -0.32928763759E+02  0.17760004850E+02  0.28566284783E+02  0.47071794966E+02  0.00000000000E+00 0.  1.
<scales pt_clust_5="13000.00000" pt_clust_6="13000.00000" pt_clust_7="13000.00000" pt_clust_8="13000.00000" pt_clust_9="37.41287"></scales>
<clustering>
<clus scale="   37.413">  2  9  1 -1</clus>
<clus scale="   79.949">  5  6 -1 -1</clus>
<clus scale="   80.492">  1  5  2 -1</clus>
<clus scale="   89.771">  7  8 -1 -1</clus>
<clus scale="   37.413">  2  5  1 -1</clus>
</clustering>
</event>
<event>
 9    2  0.3745229E-005  0.1650328E+03  0.7546771E-02  0.1185855E+00
          2   -1    0    0  502    0 -0.00000000000E+00  0.00000000000E+00  0.99451376063E+03  0.99451376063E+03  0.00000000000E+00 0. -1.
         21   -1    0    0  501  502  0.00000000000E+00 -0.00000000000E+00 -0.58385889108E+02  0.58385889108E+02  0.00000000000E+00 0.  1.
         24    2    1    2    0    0  0.10317847532E+03 -0.78068180206E+02  0.74648350781E+03  0.76178016182E+03  0.79567260705E+02 0.  0.
         23    2    1    2    0    0 -0.11144355533E+03  0.10460290760E+03  0.19107836372E+03  0.26329037256E+03  0.97208255318E+02 0.  0.
        -11    1    3    3    0    0  0.65644419684E+02 -0.12323591751E+02  0.22102928404E+03  0.23090042259E+03  0.00000000000E+00 0.  1.
         12    1    3    3    0    0  0.37534055638E+02 -0.65744588456E+02  0.52545422378E+03  0.53087973923E+03  0.00000000000E+00 0. -1.
        -11    1    4    4    0    0 -0.26718728367E+02  0.62667642433E+02  0.14033647752E+03  0.15599823966E+03  0.00000000000E+00 0. -1.
         11    1    4    4    0    0 -0.84724826964E+02  0.41935265163E+02  0.50741886192E+02  0.10729213290E+03  0.00000000000E+00 0.  1.
          1    1    1    2  501    0  0.82650800086E+01 -0.26534727390E+02 -0.14340000079E+01  0.27829115352E+02  0.00000000000E+00 0. -1.
<scales pt_clust_5="13000.00000" pt_clust_6="13000.00000" pt_clust_7="13000.00000" pt_clust_8="13000.00000" pt_clust_9="27.79214"></scales>
<clustering>
<clus scale="   27.792">  2  9  1 -1</clus>
<clus scale="   79.567">  5  6 -1 -1</clus>
<clus scale="   97.208">  7  8 -1 -1</clus>
<clus scale="  155.298">  1  5  2 -1</clus>
<clus scale="   27.792">  2  5  1 -1</clus>
</clustering>
</event>
<event>
 9    2  0.3745229E-005  0.9559378E+02  0.7546771E-02  0.1294285E+00
         21   -1    0    0  501  502  0.00000000000E+00  0.00000000000E+00  0.29341939052E+03  0.29341939052E+03  0.00000000000E+00 0.  1.
         -1   -1    0    0    0  501 -0.00000000000E+00 -0.00000000000E+00 -0.21263015898E+03  0.21263015898E+03  0.00000000000E+00 0.  1.
         23    2    1    2    0    0 -0.91499177379E+01 -0.30124712251E+02 -0.14772650909E+03  0.17624222578E+03  0.90812892135E+02 0.  0.
         24    2    1    2    0    0 -0.58225209280E+02  0.27491373509E+02  0.15042672883E+02  0.10593885146E+03  0.82769605696E+02 0.  0.
        -11    1    4    4    0    0 -0.33594324813E+02 -0.28041166786E+02  0.10611257059E+02  0.45027596769E+02  0.00000000000E+00 0.  1.
         12    1    4    4    0    0 -0.24630884466E+02  0.55532540296E+02  0.44314158240E+01  0.60911254687E+02  0.00000000000E+00 0. -1.
        -11    1    3    3    0    0 -0.26409253150E+02 -0.15842668297E+02 -0.15054556377E+03  0.15366328631E+03  0.00000000000E+00 0.  1.
         11    1    3    3    0    0  0.17259335412E+02 -0.14282043954E+02  0.28190546748E+01  0.22578939471E+02  0.00000000000E+00 0. -1.
         -2    1    1    2    0  502  0.67375127018E+02  0.26333387417E+01  0.21347306775E+03  0.22386847225E+03  0.00000000000E+00 0.  1.
<scales pt_clust_5="13000.00000" pt_clust_6="13000.00000" pt_clust_7="13000.00000" pt_clust_8="13000.00000" pt_clust_9="67.42657"></scales>
<clustering>
<clus scale="   67.427">  1  9  2 -1</clus>
<clus scale="   82.770">  5  6 -1 -1</clus>
<clus scale="   87.989">  1  5  2 -1</clus>
<clus scale="   90.813">  7  8 -1 -1</clus>
<clus scale="   67.427">  1  5  2 -1</clus>
</clustering>
</event>
<event>
 9    2  0.3745229E-005  0.9977815E+02  0.7546771E-02  0.1283981E+00
          2   -1    0    0  502    0 -0.00000000000E+00  0.00000000000E+00  0.10844401660E+03  0.10844401660E+03  0.00000000000E+00 0. -1.
         21   -1    0    0  501  502  0.00000000000E+00 -0.00000000000E+00 -0.24151215200E+03  0.24151215200E+03  0.00000000000E+00 0. -1.
         23    2    1    2    0    0  0.30312162964E+02 -0.28627317541E+02  0.36138340910E+02  0.10488281568E+03  0.89196831833E+02 0.  0.
         24    2    1    2    0    0 -0.50178619322E+02  0.17695226390E+02 -0.28081523709E+02  0.10213826642E+03  0.82538709829E+02 0.  0.
        -13    1    4    4    0    0  0.18977779342E+02  0.19407570459E+02 -0.17134528287E+02  0.32099874758E+02  0.00000000000E+00 0.  1.
         14    1    4    4    0    0 -0.69156398664E+02 -0.17123440685E+01 -0.10946995421E+02  0.70038391666E+02  0.00000000000E+00 0. -1.
        -11    1    3    3    0    0 -0.20280970799E+02  0.13795004848E+02 -0.76072869358E+01  0.25680551977E+02  0.00000000000E+00 0.  1.
         11    1    3    3    0    0  0.50593133763E+02 -0.42422322388E+02  0.43745627846E+02  0.79202263708E+02  0.00000000000E+00 0. -1.
          1    1    1    2  501    0  0.19866456358E+02  0.10932091150E+02 -0.14112495260E+03  0.14293508650E+03  0.00000000000E+00 0. -1.
<scales pt_clust_5="13000.00000" pt_clust_6="13000.00000" pt_clust_7="13000.00000" pt_clust_8="13000.00000" pt_clust_9="22.67569"></scales>
<clustering>
<clus scale="   22.676">  2  9  1 -1</clus>
<clus scale="   82.539">  5  6 -1 -1</clus>
<clus scale="   89.197">  7  8 -1 -1</clus>
<clus scale="   93.874">  2  5  1 -1</clus>
<clus scale="   22.676">  2  5  1 -1</clus>
</clustering>
</event>
<event>
 9    2  0.3745229E-005  0.1279034E+03  0.7546771E-02  0.1233240E+00
         -1   -1    0    0    0  501 -0.00000000000E+00  0.00000000000E+00  0.72297848081E+03  0.72297848081E+03  0.00000000000E+00 0.  1.
         21   -1    0    0  501  502  0.00000000000E+00 -0.00000000000E+00 -0.31470366262E+02  0.31470366262E+02  0.00000000000E+00 0.  1.
         24    2    1    2    0    0 -0.88261450170E+02 -0.21256493008E+02  0.48637184800E+03  0.50158937708E+03  0.82416057813E+02 0.  0.
         23    2    1    2    0    0  0.75933623262E+02  0.39128973622E+02  0.18202323744E+03  0.22114806836E+03  0.92070719833E+02 0.  0.
        -11    1    3    3    0    0 -0.21494239118E+02 -0.43071973199E+02  0.13657748765E+03  0.14481231758E+03  0.00000000000E+00 0.  1.
         12    1    3    3    0    0 -0.66767211052E+02  0.21815480190E+02  0.34979436035E+03  0.35677705949E+03  0.00000000000E+00 0. -1.
        -13    1    4    4    0    0 -0.10898868440E+02  0.37159235243E+02  0.57727359346E+02  0.69512891712E+02  0.00000000000E+00 0.  1.
         13    1    4    4    0    0  0.86832491702E+02  0.19697383799E+01  0.12429587810E+03  0.15163517665E+03  0.00000000000E+00 0. -1.
         -2    1    1    2    0  502  0.12327826908E+02 -0.17872480614E+02  0.23113029107E+02  0.31711401641E+02  0.00000000000E+00 0.  1.
<scales pt_clust_5="13000.00000" pt_clust_6="13000.00000" pt_clust_7="13000.00000" pt_clust_8="13000.00000" pt_clust_9="21.71177"></scales>
<clustering>
<clus scale="   21.712">  2  9  1 -1</clus>
<clus scale="   82.416">  5  6 -1 -1</clus>
<clus scale="   92.071">  7  8 -1 -1</clus>
<clus scale="  121.139">  1  5  2 -1</clus>
<clus scale="   21.712">  2  5  1 -1</clus>
</clustering>
</event>
<event>
 9    2  0.3745229E-005  0.9200851E+02  0.7546771E-02  0.1305451E+00
         -3   -1    0    0    0  501 -0.00000000000E+00  0.00000000000E+00  0.19279320869E+03  0.19279320869E+03  0.00000000000E+00 0.  1.
         21   -1    0    0  501  502  0.00000000000E+00 -0.00000000000E+00 -0.93477156136E+02  0.93477156136E+02  0.00000000000E+00 0.  1.
         23    2    1    2    0    0 -0.52699743348E+01 -0.37594252612E+01  0.95929048526E+02  0.13260164797E+03  0.91317625820E+02 0.  0.
         24    2    1    2    0    0 -0.28854216876E+02  0.35818285177E+02 -0.29458889464E+02  0.96475328739E+02  0.79524508816E+02 0.  0.
        -13    1    4    4    0    0  0.24668603925E+02  0.22562068908E+02  0.10712422473E+01  0.33447489188E+02  0.00000000000E+00 0.  1.
         14    1    4    4    0    0 -0.53522820800E+02  0.13256216268E+02 -0.30530131711E+02  0.63027839551E+02  0.00000000000E+00 0. -1.
        -13    1    3    3    0    0 -0.27765524171E+02  0.33316629969E+02  0.26756948679E+02  0.50959360942E+02  0.00000000000E+00 0.  1.
         13    1    3    3    0    0  0.22495549836E+02 -0.37076055230E+02  0.69172099847E+02  0.81642287028E+02  0.00000000000E+00 0. -1.
         -4    1    1    2    0  502  0.34124191210E+02 -0.32058859915E+02  0.32845893487E+02  0.57193388112E+02  0.00000000000E+00 0.  1.
<scales pt_clust_5="13000.00000" pt_clust_6="13000.00000" pt_clust_7="13000.00000" pt_clust_8="13000.00000" pt_clust_9="46.82129"></scales>
<clustering>
<clus scale="   46.821">  2  9  1 -1</clus>
<clus scale="   79.525">  5  6 -1 -1</clus>
<clus scale="   80.317">  2  5  1 -1</clus>
<clus scale="   91.318">  7  8 -1 -1</clus>
<clus scale="   46.821">  2  5  1 -1</clus>
</clustering>
</event>
<event>
 9    2  0.3745229E-005  0.1184995E+03  0.7546771E-02  0.1248699E+00
         21   -1    0    0  501  502  0.00000000000E+00  0.00000000000E+00  0.19366906203E+03  0.19366906203E+03  0.00000000000E+00 0. -1.
          2   -1    0    0  502    0 -0.00000000000E+00 -0.00000000000E+00 -0.35577107107E+03  0.35577107107E+03  0.00000000000E+00 0. -1.
         24    2    1    2    0    0 -0.85321800952E+02 -0.35873062812E+02 -0.25569913005E+03  0.28316049096E+03  0.78937520735E+02 0.  0.
         23    2    1    2    0    0 -0.21352191831E+02  0.76416276853E+02  0.57191669958E+00  0.11904927306E+03  0.88752683693E+02 0.  0.
        -13    1    3    3    0    0 -0.21374722412E+02  0.24204612692E+02 -0.90800490180E+02  0.96371526141E+02  0.00000000000E+00 0.  1.
         14    1    3    3    0    0 -0.63947078540E+02 -0.60077675504E+02 -0.16489863987E+03  0.18678896482E+03  0.00000000000E+00 0. -1.
        -13    1    4    4    0    0 -0.44427307509E+02  0.63560682114E+02 -0.25796182232E+02  0.81726305318E+02  0.00000000000E+00 0. -1.
         13    1    4    4    0    0  0.23075115677E+02  0.12855594740E+02  0.26368098931E+02  0.37322967739E+02  0.00000000000E+00 0.  1.
          1    1    1    2  501    0  0.10667399278E+03 -0.40543214041E+02  0.93025204311E+02  0.14723036908E+03  0.00000000000E+00 0. -1.
<scales pt_clust_5="13000.00000" pt_clust_6="13000.00000" pt_clust_7="13000.00000" pt_clust_8="13000.00000" pt_clust_9="114.11877"></scales>
<clustering>
<clus scale="   78.938">  5  6 -1 -1</clus>
<clus scale="   88.753">  7  8 -1 -1</clus>
<clus scale="  114.119">  1  9  2 -1</clus>
<clus scale="  111.338">  2  5  1 -1</clus>
<clus scale="  114.119">  1  5  2 -1</clus>
</clustering>
</event>
<event>
 9    2  0.3745229E-005  0.9905424E+02  0.7546771E-02  0.1288019E+00
         -3   -1    0    0    0  501 -0.00000000000E+00  0.00000000000E+00  0.16717445698E+03  0.16717445698E+03  0.00000000000E+00 0.  1.
         21   -1    0    0  501  502  0.00000000000E+00 -0.00000000000E+00 -0.21398791592E+03  0.21398791592E+03  0.00000000000E+00 0. -1.
         23    2    1    2    0    0  0.13456014583E+02  0.77656294301E+01 -0.43240126357E+02  0.10199568455E+03  0.91060649077E+02 0.  0.
         24    2    1    2    0    0 -0.90152271674E+01 -0.88326575618E+02 -0.98326708510E+02  0.15471593948E+03  0.79912590001E+02 0.  0.
        -13    1    4    4    0    0  0.24885099769E+02 -0.45420707577E+02 -0.13044528302E+02  0.53408506682E+02  0.00000000000E+00 0.  1.
         14    1    4    4    0    0 -0.33900326937E+02 -0.42905868041E+02 -0.85282180208E+02  0.10130743280E+03  0.00000000000E+00 0. -1.
        -13    1    3    3    0    0  0.12865630128E+02  0.49220275645E+02 -0.25382014637E+02  0.56854257890E+02  0.00000000000E+00 0. -1.
         13    1    3    3    0    0  0.59038445485E+00 -0.41454646215E+02 -0.17858111720E+02  0.45141426659E+02  0.00000000000E+00 0.  1.
         -4    1    1    2    0  502 -0.44407874152E+01  0.80560946188E+02  0.94753375929E+02  0.12445074887E+03  0.00000000000E+00 0.  1.
<scales pt_clust_5="13000.00000" pt_clust_6="13000.00000" pt_clust_7="13000.00000" pt_clust_8="13000.00000" pt_clust_9="80.68329"></scales>
<clustering>
<clus scale="   79.913">  5  6 -1 -1</clus>
<clus scale="   80.683">  2  9  1 -1</clus>
<clus scale="   88.914">  2  5  1 -1</clus>
<clus scale="   91.061">  7  8 -1 -1</clus>
<clus scale="   80.683">  2  5  1 -1</clus>
</clustering>
</event>
<event>
 9    2  0.3745229E-005  0.1023707E+03  0.7546771E-02  0.1279435E+00
          2   -1    0    0  502    0 -0.00000000000E+00  0.00000000000E+00  0.83968077678E+03  0.83968077678E+03  0.00000000000E+00 0. -1.
         21   -1    0    0  501  502  0.00000000000E+00 -0.00000000000E+00 -0.21702399346E+02  0.21702399346E+02  0.00000000000E+00 0. -1.
         24    2    1    2    0    0  0.57292046161E+02 -0.24766996861E+02  0.64732744746E+03  0.65466629922E+03  0.75228694095E+02 0.  0.
         23    2    1    2    0    0 -0.36033176381E+02  0.14811722118E+02  0.13811042938E+03  0.16659292872E+03  0.84622315506E+02 0.  0.
        -11    1    3    3    0    0  0.66001076771E+02 -0.18757763955E+02  0.32494687640E+03  0.33211213215E+03  0.00000000000E+00 0.  1.
         12    1    3    3    0    0 -0.87090306098E+01 -0.60092329056E+01  0.32238057106E+03  0.32255416707E+03  0.00000000000E+00 0. -1.
        -13    1    4    4    0    0 -0.13972401643E+02  0.41161009573E+02  0.29138521198E+02  0.52330776168E+02  0.00000000000E+00 0.  1.
         13    1    4    4    0    0 -0.22060774738E+02 -0.26349287455E+02  0.10897190818E+03  0.11426215255E+03  0.00000000000E+00 0. -1.
          1    1    1    2  501    0 -0.21258869780E+02  0.99552747429E+01  0.32540500590E+02  0.40123948188E+02  0.00000000000E+00 0. -1.
<scales pt_clust_5="13000.00000" pt_clust_6="13000.00000" pt_clust_7="13000.00000" pt_clust_8="13000.00000" pt_clust_9="23.47439"></scales>
<clustering>
<clus scale="   23.474">  2  9  1 -1</clus>
<clus scale="   75.229">  5  6 -1 -1</clus>
<clus scale="   84.622">  7  8 -1 -1</clus>
<clus scale="   94.753">  1  5  2 -1</clus>
<clus scale="   23.474">  2  5  1 -1</clus>
</clustering>
</event>
<event>
 9    2  0.3745229E-005  0.1435106E+03  0.7546771E-02  0.1210607E+00
         -1   -1    0    0    0  501 -0.00000000000E+00  0.00000000000E+00  0.32649567628E+03  0.32649567628E+03  0.00000000000E+00 0.  1.
         21   -1    0    0  501  502  0.00000000000E+00 -0.00000000000E+00 -0.23076096198E+03  0.23076096198E+03  0.00000000000E+00 0.  1.
         24    2    1    2    0    0  0.78751351807E+02  0.77666084953E+02  0.26950629926E+03  0.30241515997E+03  0.81163338267E+02 0.  0.
         23    2    1    2    0    0 -0.64216081418E+02 -0.10158842464E+03 -0.11394274936E+03  0.18878815141E+03  0.90631687882E+02 0.  0.
        -11    1    3    3    0    0  0.27960378262E+02  0.76984703597E+02  0.20167868785E+03  0.21767572321E+03  0.00000000000E+00 0.  1.
         12    1    3    3    0    0  0.50790973545E+02  0.68138135542E+00  0.67827611404E+02  0.84739436763E+02  0.00000000000E+00 0. -1.
        -13    1    4    4    0    0 -0.38393362259E+02 -0.36200413029E+01 -0.66597639053E+02  0.76957134120E+02  0.00000000000E+00 0. -1.
         13    1    4    4    0    0 -0.25822719159E+02 -0.97968383335E+02 -0.47345110303E+02  0.11183101729E+03  0.00000000000E+00 0.  1.
         -2    1    1    2    0  502 -0.14535270389E+02  0.23922339685E+02 -0.59828835609E+02  0.66053326878E+02  0.00000000000E+00 0.  1.
<scales pt_clust_5="13000.00000" pt_clust_6="13000.00000" pt_clust_7="13000.00000" pt_clust_8="13000.00000" pt_clust_9="27.99201"></scales>
<clustering>
<clus scale="   27.992">  2  9  1 -1</clus>
<clus scale="   81.163">  5  6 -1 -1</clus>
<clus scale="   90.632">  7  8 -1 -1</clus>
<clus scale="  137.727">  1  5  2 -1</clus>
<clus scale="   27.992">  2  5  1 -1</clus>
</clustering>
</event>
<event>
 9    2  0.3745229E-005  0.9306377E+02  0.7546771E-02  0.1298834E+00
          2   -1    0    0  502    0 -0.00000000000E+00  0.00000000000E+00  0.64780427813E+03  0.64780427813E+03  0.00000000000E+00 0. -1.
         21   -1    0    0  501  502  0.00000000000E+00 -0.00000000000E+00 -0.18415596749E+02  0.18415596749E+02  0.00000000000E+00 0.  1.
         23    2    1    2    0    0 -0.12119091907E+02 -0.31174216053E+01  0.29714371537E+03  0.31156151313E+03  0.92841791082E+02 0.  0.
         24    2    1    2    0    0 -0.13509179529E+02  0.10647935194E+02  0.18901234732E+03  0.20895626847E+03  0.87413833206E+02 0.  0.
        -13    1    4    4    0    0 -0.30281829674E+02 -0.20086344826E+02  0.33075513318E+02  0.49136951860E+02  0.00000000000E+00 0.  1.
         14    1    4    4    0    0  0.16772650144E+02  0.30734280020E+02  0.15593683401E+03  0.15981931661E+03  0.00000000000E+00 0. -1.
        -11    1    3    3    0    0  0.39417441781E+02  0.90455611072E+01  0.14086622624E+03  0.14655664635E+03  0.00000000000E+00 0. -1.
         11    1    3    3    0    0 -0.51536533689E+02 -0.12162982713E+02  0.15627748913E+03  0.16500486678E+03  0.00000000000E+00 0.  1.
          1    1    1    2  501    0  0.25628271437E+02 -0.75305135887E+01  0.14323261868E+03  0.14570209328E+03  0.00000000000E+00 0. -1.
<scales pt_clust_5="13000.00000" pt_clust_6="13000.00000" pt_clust_7="13000.00000" pt_clust_8="13000.00000" pt_clust_9="26.71175"></scales>
<clustering>
<clus scale="   26.712">  2  9  1 -1</clus>
<clus scale="   87.414">  5  6 -1 -1</clus>
<clus scale="   87.650">  2  5  1 -1</clus>
<clus scale="   92.842">  7  8 -1 -1</clus>
<clus scale="   26.712">  2  5  1 -1</clus>
</clustering>
</event>
<event>
 9    2  0.3745229E-005  0.1230167E+03  0.7546771E-02  0.1241558E+00
          2   -1    0    0  502    0 -0.00000000000E+00  0.00000000000E+00  0.28296875207E+03  0.28296875207E+03  0.00000000000E+00 0. -1.
         21   -1    0    0  501  502  0.00000000000E+00 -0.00000000000E+00 -0.15337771416E+03  0.15337771416E+03  0.00000000000E+00 0. -1.
         24    2    1    2    0    0 -0.41740386530E+02 -0.62291332524E+02  0.98976658103E+02  0.14839908684E+03  0.81261553955E+02 0.  0.
         23    2    1    2    0    0  0.20838798428E+02  0.11776412982E+03 -0.73577103505E+02  0.16807255792E+03  0.92369631232E+02 0.  0.
        -11    1    3    3    0    0  0.70902096709E+01 -0.46283523258E+02  0.13614010525E+02  0.48762453598E+02  0.00000000000E+00 0.  1.
         12    1    3    3    0    0 -0.48830596201E+02 -0.16007809266E+02  0.85362647578E+02  0.99636633245E+02  0.00000000000E+00 0. -1.
        -13    1    4    4    0    0  0.41207290718E+02  0.16031885268E+02 -0.69211036124E+01  0.44754483896E+02  0.00000000000E+00 0.  1.
         13    1    4    4    0    0 -0.20368492290E+02  0.10173224456E+03 -0.66655999893E+02  0.12331807403E+03  0.00000000000E+00 0. -1.
          1    1    1    2  501    0  0.20901588102E+02 -0.55472797301E+02  0.10419148331E+03  0.11987482146E+03  0.00000000000E+00 0. -1.
<scales pt_clust_5="13000.00000" pt_clust_6="13000.00000" pt_clust_7="13000.00000" pt_clust_8="13000.00000" pt_clust_9="59.27994"></scales>
<clustering>
<clus scale="   59.280">  2  9  1 -1</clus>
<clus scale="   81.262">  5  6 -1 -1</clus>
<clus scale="   92.370">  7  8 -1 -1</clus>
<clus scale="  114.910">  1  5  2 -1</clus>
<clus scale="   59.280">  2  5  1 -1</clus>
</clustering>
</event>
<event>
 9    2  0.3745229E-005  0.1109886E+03  0.7546771E-02  0.1263070E+00
         -3   -1    0    0    0  501 -0.00000000000E+00  0.00000000000E+00  0.29618047669E+03  0.29618047669E+03  0.00000000000E+00 0.  1.
         21   -1    0    0  501  502  0.00000000000E+00 -0.00000000000E+00 -0.17712274635E+03  0.17712274635E+03  0.00000000000E+00 0. -1.
         23    2    1    2    0    0  0.51561748546E+02  0.43482395235E+02  0.25475460989E+03  0.27808139780E+03  0.88769476351E+02 0.  0.
         24    2    1    2    0    0 -0.64258052820E+02 -0.10916337759E+02 -0.12011051865E+03  0.15695070182E+03  0.77192760866E+02 0.  0.
        -13    1    4    4    0    0 -0.28394569206E+02 -0.14091449311E+02 -0.14527904145E+00  0.31699236743E+02  0.00000000000E+00 0.  1.
         14    1    4    4    0    0 -0.35863483614E+02  0.31751115524E+01 -0.11996523961E+03  0.12525146508E+03  0.00000000000E+00 0. -1.
        -13    1    3    3    0    0  0.86782806657E+01 -0.24591449228E+02  0.32229311218E+02  0.41458176902E+02  0.00000000000E+00 0. -1.
         13    1    3    3    0    0  0.42883467880E+02  0.68073844463E+02  0.22252529867E+03  0.23662322089E+03  0.00000000000E+00 0.  1.
         -4    1    1    2    0  502  0.12696304274E+02 -0.32566057476E+02 -0.15586360896E+02  0.38271123419E+02  0.00000000000E+00 0.  1.
<scales pt_clust_5="13000.00000" pt_clust_6="13000.00000" pt_clust_7="13000.00000" pt_clust_8="13000.00000" pt_clust_9="34.95346"></scales>
<clustering>
<clus scale="   34.953">  2  9  1 -1</clus>
<clus scale="   77.193">  5  6 -1 -1</clus>
<clus scale="   88.769">  7  8 -1 -1</clus>
<clus scale="  101.967">  2  5  1 -1</clus>
<clus scale="   34.953">  2  5  1 -1</clus>
</clustering>
</event>
<event>
 9    2  0.3745229E-005  0.9976230E+02  0.7546771E-02  0.1283641E+00
         21   -1    0    0  501  502  0.00000000000E+00  0.00000000000E+00  0.20326069957E+03  0.20326069957E+03  0.00000000000E+00 0. -1.
          2   -1    0    0  502    0 -0.00000000000E+00 -0.00000000000E+00 -0.71561896311E+02  0.71561896311E+02  0.00000000000E+00 0. -1.
         23    2    1    2    0    0  0.34376842280E+02  0.19392646733E+02  0.42142308745E+02  0.10825717602E+03  0.91574013455E+02 0.  0.
         24    2    1    2    0    0 -0.20207501848E+02 -0.39216792751E+02  0.10095463215E+03  0.13966403486E+03  0.85836501074E+02 0.  0.
        -13    1    4    4    0    0 -0.40037693635E+02  0.46301415895E+01  0.18847092282E+02  0.44493460309E+02  0.00000000000E+00 0.  1.
         14    1    4    4    0    0  0.19830191788E+02 -0.43846934341E+02  0.82107539871E+02  0.95170574555E+02  0.00000000000E+00 0. -1.
        -13    1    3    3    0    0  0.57091580631E+02  0.92359674952E+01 -0.16859852303E+01  0.57858398013E+02  0.00000000000E+00 0.  1.
         13    1    3    3    0    0 -0.22714738350E+02  0.10156679238E+02  0.43828293976E+02  0.50398778004E+02  0.00000000000E+00 0. -1.
          1    1    1    2  501    0 -0.14169340433E+02  0.19824146018E+02 -0.11398137635E+02  0.26901385005E+02  0.00000000000E+00 0. -1.
<scales pt_clust_5="13000.00000" pt_clust_6="13000.00000" pt_clust_7="13000.00000" pt_clust_8="13000.00000" pt_clust_9="24.36735"></scales>
<clustering>
<clus scale="   24.367">  1  9  2 -1</clus>
<clus scale="   85.837">  5  6 -1 -1</clus>
<clus scale="   91.574">  7  8 -1 -1</clus>
<clus scale="   94.523">  1  5  2 -1</clus>
<clus scale="   24.367">  1  5  2 -1</clus>
</clustering>
</event>
<event>
 9    2  0.3745229E-005  0.1289870E+03  0.7546771E-02  0.1232780E+00
         -1   -1    0    0    0  501 -0.00000000000E+00  0.00000000000E+00  0.53997646491E+02  0.53997646491E+02  0.00000000000E+00 0.  1.
         21   -1    0    0  501  502  0.00000000000E+00 -0.00000000000E+00 -0.55020395496E+03  0.55020395496E+03  0.00000000000E+00 0.  1.
         24    2    1    2    0    0 -0.90977282129E+02 -0.23454299387E+02 -0.20430235465E+03  0.23812249628E+03  0.78331992796E+02 0.  0.
         23    2    1    2    0    0  0.53666741999E+02  0.84057200781E+02 -0.24685628949E+03  0.28185274277E+03  0.92505182260E+02 0.  0.
        -11    1    3    3    0    0 -0.87597649919E+02 -0.44412016182E+02 -0.18489024952E+03  0.20935658533E+03  0.00000000000E+00 0.  1.
         12    1    3    3    0    0 -0.33796322096E+01  0.20957716796E+02 -0.19412105123E+02  0.28765910945E+02  0.00000000000E+00 0. -1.
        -11    1    4    4    0    0  0.74380110742E+02  0.53565553334E+02 -0.21265606960E+03  0.23156915450E+03  0.00000000000E+00 0.  1.
         11    1    4    4    0    0 -0.20713368743E+02  0.30491647448E+02 -0.34200219896E+02  0.50283588274E+02  0.00000000000E+00 0. -1.
         -2    1    1    2    0  502  0.37310540130E+02 -0.60602901395E+02 -0.45047664327E+02  0.84226362403E+02  0.00000000000E+00 0.  1.
<scales pt_clust_5="13000.00000" pt_clust_6="13000.00000" pt_clust_7="13000.00000" pt_clust_8="13000.00000" pt_clust_9="71.16736"></scales>
<clustering>
<clus scale="   71.167">  2  9  1 -1</clus>
<clus scale="   78.332">  5  6 -1 -1</clus>
<clus scale="   92.505">  7  8 -1 -1</clus>
<clus scale="  119.232">  1  5  2 -1</clus>
<clus scale="   71.167">  2  5  1 -1</clus>
</clustering>
</event>
<event>
 9    2  0.3745229E-005  0.5070336E+03  0.7546771E-02  0.1049598E+00
          2   -1    0    0  502    0 -0.00000000000E+00  0.00000000000E+00  0.17148277962E+04  0.17148277962E+04  0.00000000000E+00 0. -1.
         21   -1    0    0  501  502  0.00000000000E+00 -0.00000000000E+00 -0.25775020078E+03  0.25775020078E+03  0.00000000000E+00 0.  1.
         23    2    1    2    0    0 -0.14890788024E+02  0.14012181093E+03  0.65724793322E+03  0.67792948351E+03  0.88077701048E+02 0.  0.
         24    2    1    2    0    0 -0.12000977466E+03  0.41323573599E+03  0.44377509764E+03  0.62295097030E+03  0.77236355355E+02 0.  0.
        -13    1    4    4    0    0 -0.10273031528E+03  0.34364546791E+03  0.40658005520E+03  0.54217438761E+03  0.00000000000E+00 0.  1.
         14    1    4    4    0    0 -0.17279459380E+02  0.69590268080E+02  0.37195042443E+02  0.80776582685E+02  0.00000000000E+00 0. -1.
        -13    1    3    3    0    0  0.33191472507E+02  0.92336759794E+02  0.40726995354E+03  0.41892310286E+03  0.00000000000E+00 0. -1.
         13    1    3    3    0    0 -0.48082260531E+02  0.47785051132E+02  0.24997797969E+03  0.25900638065E+03  0.00000000000E+00 0.  1.
          1    1    1    2  501    0  0.13490056269E+03 -0.55335754692E+03  0.35605456451E+03  0.67169754313E+03  0.00000000000E+00 0. -1.
<scales pt_clust_5="13000.00000" pt_clust_6="13000.00000" pt_clust_7="13000.00000" pt_clust_8="13000.00000" pt_clust_9="501.11639"></scales>
<clustering>
<clus scale="   77.236">  5  6 -1 -1</clus>
<clus scale="   88.078">  7  8 -1 -1</clus>
<clus scale="  166.173">  1  7  2 -1</clus>
<clus scale="  501.116">  2  9  1 -1</clus>
<clus scale="  501.116">  2  5  1 -1</clus>
</clustering>
</event>
<event>
 9    2  0.3745229E-005  0.1101882E+03  0.7546771E-02  0.1265357E+00
         21   -1    0    0  501  502  0.00000000000E+00  0.00000000000E+00  0.13760124816E+03  0.13760124816E+03  0.00000000000E+00 0.  1.
          2   -1    0    0  502    0 -0.00000000000E+00 -0.00000000000E+00 -0.14977383658E+03  0.14977383658E+03  0.00000000000E+00 0. -1.
         24    2    1    2    0    0  0.30773122134E+02 -0.53599771820E+02 -0.40259032549E+02  0.10752243173E+03  0.78232749138E+02 0.  0.
         23    2    1    2    0    0 -0.74981397050E+02  0.17572806228E+02  0.91918597473E+01  0.11977504371E+03  0.91271887167E+02 0.  0.
        -11    1    3    3    0    0 -0.25602969582E+02 -0.27332483805E+02 -0.13409180113E+02  0.39779175880E+02  0.00000000000E+00 0.  1.
         12    1    3    3    0    0  0.56376091717E+02 -0.26267288015E+02 -0.26849852436E+02  0.67743255847E+02  0.00000000000E+00 0. -1.
        -11    1    4    4    0    0 -0.59441636088E+02 -0.30138416628E+02 -0.70894873943E+01  0.67021586740E+02  0.00000000000E+00 0.  1.
         11    1    4    4    0    0 -0.15539760962E+02  0.47711222856E+02  0.16281347142E+02  0.52753456966E+02  0.00000000000E+00 0. -1.
          1    1    1    2  501    0  0.44208274916E+02  0.36026965592E+02  0.18894584385E+02  0.60077609306E+02  0.00000000000E+00 0. -1.
<scales pt_clust_5="13000.00000" pt_clust_6="13000.00000" pt_clust_7="13000.00000" pt_clust_8="13000.00000" pt_clust_9="57.02906"></scales>
<clustering>
<clus scale="   57.029">  1  9  2 -1</clus>
<clus scale="   78.233">  5  6 -1 -1</clus>
<clus scale="   91.272">  7  8 -1 -1</clus>
<clus scale="   99.656">  2  5  1 -1</clus>
<clus scale="   57.029">  1  5  2 -1</clus>
</clustering>
</event>
<event>
 9    2  0.3745229E-005  0.2640256E+03  0.7546771E-02  0.1105309E+00
          2   -1    0    0  502    0 -0.00000000000E+00  0.00000000000E+00  0.25040109966E+03  0.25040109966E+03  0.00000000000E+00 0. -1.
         21   -1    0    0  501  502  0.00000000000E+00 -0.00000000000E+00 -0.44754453960E+03  0.44754453960E+03  0.00000000000E+00 0.  1.
         23    2    1    2    0    0 -0.86151839627E+02 -0.27761231921E+03  0.32711130748E+02  0.30659115066E+03  0.91855192213E+02 0.  0.
         24    2    1    2    0    0  0.30221245377E+02  0.17656344417E+03 -0.17700043424E+03  0.26434005533E+03  0.80365027479E+02 0.  0.
        -11    1    4    4    0    0  0.19679108331E+02  0.66092534647E+02 -0.12280114469E+03  0.14083895618E+03  0.00000000000E+00 0.  1.
         12    1    4    4    0    0  0.10542137046E+02  0.11047090952E+03 -0.54199289556E+02  0.12350109915E+03  0.00000000000E+00 0. -1.
        -13    1    3    3    0    0 -0.31514043440E+02 -0.27451608985E+02  0.28339176178E+02  0.50495887716E+02  0.00000000000E+00 0. -1.
         13    1    3    3    0    0 -0.54637796187E+02 -0.25016071023E+03  0.43719545696E+01  0.25609526294E+03  0.00000000000E+00 0.  1.
          1    1    1    2  501    0  0.55930594250E+02  0.10104887505E+03 -0.52854136440E+02  0.12701443327E+03  0.00000000000E+00 0. -1.
<scales pt_clust_5="13000.00000" pt_clust_6="13000.00000" pt_clust_7="13000.00000" pt_clust_8="13000.00000" pt_clust_9="115.49505"></scales>
<clustering>
<clus scale="   80.365">  5  6 -1 -1</clus>
<clus scale="   91.855">  7  8 -1 -1</clus>
<clus scale="  115.495">  2  9  1 -1</clus>
<clus scale="  260.251">  2  5  1 -1</clus>
<clus scale="  115.495">  2  5  1 -1</clus>
</clustering>
</event>
<event>
 9    2  0.3745229E-005  0.1025478E+03  0.7546771E-02  0.1280271E+00
          2   -1    0    0  502    0 -0.00000000000E+00  0.00000000000E+00  0.31145949801E+03  0.31145949801E+03  0.00000000000E+00 0. -1.
         21   -1    0    0  501  502  0.00000000000E+00 -0.00000000000E+00 -0.60040856583E+02  0.60040856583E+02  0.00000000000E+00 0. -1.
         24    2    1    2    0    0  0.26523793325E+02  0.43392726485E+02  0.16731602725E+03  0.19266297369E+03  0.80857455658E+02 0.  0.
         23    2    1    2    0    0 -0.20454774722E+02 -0.18142515059E+02  0.54886138651E+01  0.96045067187E+02  0.91907460998E+02 0.  0.
        -13    1    3    3    0    0  0.37339034694E+02  0.36551183043E+01  0.26459344944E+02  0.45909261991E+02  0.00000000000E+00 0.  1.
         14    1    3    3    0    0 -0.10815241369E+02  0.39737608181E+02  0.14085668230E+03  0.14675371170E+03  0.00000000000E+00 0. -1.
        -11    1    4    4    0    0 -0.38615664535E+02  0.13110977350E+02  0.31485161090E+02  0.51520701115E+02  0.00000000000E+00 0. -1.
         11    1    4    4    0    0  0.18160889813E+02 -0.31253492408E+02 -0.25996547225E+02  0.44524366072E+02  0.00000000000E+00 0.  1.
          1    1    1    2  501    0 -0.60690186030E+01 -0.25250211426E+02  0.78614000314E+02  0.82792313709E+02  0.00000000000E+00 0. -1.
<scales pt_clust_5="13000.00000" pt_clust_6="13000.00000" pt_clust_7="13000.00000" pt_clust_8="13000.00000" pt_clust_9="25.96934"></scales>
<clustering>
<clus scale="   25.969">  2  9  1 -1</clus>
<clus scale="   80.857">  5  6 -1 -1</clus>
<clus scale="   91.907">  7  8 -1 -1</clus>
<clus scale="   92.774">  1  5  2 -1</clus>
<clus scale="   25.969">  2  5  1 -1</clus>
</clustering>
</event>
<event>
 9    2  0.3745229E-005  0.1424937E+03  0.7546771E-02  0.1212112E+00
         21   -1    0    0  501  502  0.00000000000E+00  0.00000000000E+00  0.59989773961E+03  0.59989773961E+03  0.00000000000E+00 0.  1.
         -1   -1    0    0    0  501 -0.00000000000E+00 -0.00000000000E+00 -0.23113757280E+03  0.23113757280E+03  0.00000000000E+00 0.  1.
         23    2    1    2    0    0  0.98614857099E+02 -0.46671130344E+02 -0.18808273002E+03  0.23665317597E+03  0.93415886843E+02 0.  0.
         24    2    1    2    0    0 -0.65619170045E+02  0.75747570975E+02  0.22878572713E+03  0.26339020095E+03  0.83593773880E+02 0.  0.
        -11    1    4    4    0    0  0.14449853279E+02  0.40242251298E+02  0.69046452829E+02  0.81213605373E+02  0.00000000000E+00 0.  1.
         12    1    4    4    0    0 -0.80069023325E+02  0.35505319676E+02  0.15973927430E+03  0.18217659558E+03  0.00000000000E+00 0. -1.
        -11    1    3    3    0    0  0.72625102066E+02 -0.28180072897E+02 -0.44802164273E+02  0.89865209520E+02  0.00000000000E+00 0. -1.
         11    1    3    3    0    0  0.25989755034E+02 -0.18491057447E+02 -0.14328056575E+03  0.14678796645E+03  0.00000000000E+00 0.  1.
         -2    1    1    2    0  502 -0.32995687054E+02 -0.29076440631E+02  0.32805716971E+03  0.33099193549E+03  0.00000000000E+00 0.  1.
<scales pt_clust_5="13000.00000" pt_clust_6="13000.00000" pt_clust_7="13000.00000" pt_clust_8="13000.00000" pt_clust_9="43.97903"></scales>
<clustering>
<clus scale="   43.979">  1  9  2 -1</clus>
<clus scale="   83.594">  5  6 -1 -1</clus>
<clus scale="   93.416">  7  8 -1 -1</clus>
<clus scale="  136.257">  1  5  2 -1</clus>
<clus scale="   43.979">  1  5  2 -1</clus>
</clustering>
</event>
<event>
 9    2  0.3745229E-005  0.1064064E+03  0.7546771E-02  0.1273514E+00
         -1   -1    0    0    0  501 -0.00000000000E+00  0.00000000000E+00  0.72989245671E+03  0.72989245671E+03  0.00000000000E+00 0.  1.
         21   -1    0    0  501  502  0.00000000000E+00 -0.00000000000E+00 -0.17761760940E+03  0.17761760940E+03  0.00000000000E+00 0.  1.
         24    2    1    2    0    0 -0.12998336639E+02  0.52781112306E+02  0.55542917528E+03  0.56376466874E+03  0.79838777538E+02 0.  0.
         23    2    1    2    0    0 -0.11099013522E+02 -0.39415398498E+02  0.15365448736E+03  0.18453381124E+03  0.93628330471E+02 0.  0.
        -13    1    3    3    0    0 -0.32021705274E+02 -0.78249555288E+01  0.17769042218E+03  0.18072217814E+03  0.00000000000E+00 0.  1.
         14    1    3    3    0    0  0.19023368634E+02  0.60606067835E+02  0.37773875310E+03  0.38304249060E+03  0.00000000000E+00 0. -1.
        -11    1    4    4    0    0 -0.33766532732E+02 -0.49319252758E+02  0.14734278903E+03  0.15900460655E+03  0.00000000000E+00 0. -1.
         11    1    4    4    0    0  0.22667519210E+02  0.99038542600E+01  0.63116983251E+01  0.25529204690E+02  0.00000000000E+00 0.  1.
         -2    1    1    2    0  502  0.24097350161E+02 -0.13365713808E+02 -0.15680881533E+03  0.15921158612E+03  0.00000000000E+00 0.  1.
<scales pt_clust_5="13000.00000" pt_clust_6="13000.00000" pt_clust_7="13000.00000" pt_clust_8="13000.00000" pt_clust_9="27.55584"></scales>
<clustering>
<clus scale="   27.556">  2  9  1 -1</clus>
<clus scale="   79.839">  5  6 -1 -1</clus>
<clus scale="   93.628">  7  8 -1 -1</clus>
<clus scale="   94.500">  1  5  2 -1</clus>
<clus scale="   27.556">  2  5  1 -1</clus>
</clustering>
</event>
<event>
 9    2  0.3745229E-005  0.1070134E+03  0.7546771E-02  0.1274434E+00
         21   -1    0    0  501  502  0.00000000000E+00  0.00000000000E+00  0.12066529057E+03  0.12066529057E+03  0.00000000000E+00 0.  1.
          4   -1    0    0  502    0 -0.00000000000E+00 -0.00000000000E+00 -0.37493375129E+03  0.37493375129E+03  0.00000000000E+00 0. -1.
         23    2    1    2    0    0 -0.38188824548E+02  0.40850224980E+02 -0.34052999207E+03  0.35718784150E+03  0.92170230625E+02 0.  0.
         24    2    1    2    0    0  0.36536265036E+02 -0.20471527329E+02  0.54012882379E+02  0.10022746519E+03  0.73308739055E+02 0.  0.
        -13    1    4    4    0    0  0.39253177033E+02  0.40400856893E+01  0.62697066464E+02  0.74081416986E+02  0.00000000000E+00 0.  1.
         14    1    4    4    0    0 -0.27169119966E+01 -0.24511613018E+02 -0.86841840846E+01  0.26146048205E+02  0.00000000000E+00 0. -1.
        -13    1    3    3    0    0  0.16642564289E+02 -0.17807353201E+02 -0.47939056637E+02  0.53779456351E+02  0.00000000000E+00 0.  1.
         13    1    3    3    0    0 -0.54831388838E+02  0.58657578182E+02 -0.29259093543E+03  0.30340838515E+03  0.00000000000E+00 0. -1.
          3    1    1    2  501    0  0.16525595125E+01 -0.20378697652E+02  0.32248648973E+02  0.38183735170E+02  0.00000000000E+00 0. -1.
<scales pt_clust_5="13000.00000" pt_clust_6="13000.00000" pt_clust_7="13000.00000" pt_clust_8="13000.00000" pt_clust_9="20.44559"></scales>
<clustering>
<clus scale="   20.446">  1  9  2 -1</clus>
<clus scale="   73.309">  5  6 -1 -1</clus>
<clus scale="   91.273">  1  5  2 -1</clus>
<clus scale="   92.170">  7  8 -1 -1</clus>
<clus scale="   20.446">  1  5  2 -1</clus>
</clustering>
</event>
<event>
 9    2  0.3745229E-005  0.3589875E+03  0.7546771E-02  0.1103188E+00
         -3   -1    0    0    0  501 -0.00000000000E+00  0.00000000000E+00  0.27291929959E+03  0.27291929959E+03  0.00000000000E+00 0.  1.
         21   -1    0    0  501  502  0.00000000000E+00 -0.00000000000E+00 -0.87568240890E+03  0.87568240890E+03  0.00000000000E+00 0. -1.
         23    2    1    2    0    0 -0.18509746590E+02 -0.59185783512E+02  0.31734002940E+01  0.10939075466E+03  0.90059419541E+02 0.  0.
         24    2    1    2    0    0  0.43432776957E+02 -0.33687898556E+03 -0.53350617128E+03  0.63580717019E+03  0.65177188056E+02 0.  0.
        -13    1    4    4    0    0  0.20722901666E+02 -0.18887366674E+03 -0.23813049043E+03  0.30464541866E+03  0.00000000000E+00 0.  1.
         14    1    4    4    0    0  0.22709875290E+02 -0.14800531882E+03 -0.29537568085E+03  0.33116175152E+03  0.00000000000E+00 0. -1.
        -13    1    3    3    0    0  0.12990541115E+02  0.16721323092E+02  0.15562792385E+02  0.26278457170E+02  0.00000000000E+00 0.  1.
         13    1    3    3    0    0 -0.31500287705E+02 -0.75907106604E+02 -0.12389392091E+02  0.83112297495E+02  0.00000000000E+00 0. -1.
         -4    1    1    2    0  502 -0.24923030367E+02  0.39606476907E+03 -0.72430338320E+02  0.40340378364E+03  0.00000000000E+00 0.  1.
<scales pt_clust_5="13000.00000" pt_clust_6="13000.00000" pt_clust_7="13000.00000" pt_clust_8="13000.00000" pt_clust_9="353.02141"></scales>
<clustering>
<clus scale="   65.177">  5  6 -1 -1</clus>
<clus scale="   90.059">  7  8 -1 -1</clus>
<clus scale="  109.345">  1  7  2 -1</clus>
<clus scale="  353.021">  2  9  1 -1</clus>
<clus scale="  353.021">  2  5  1 -1</clus>
</clustering>
</event>
<event>
 9    2  0.3745229E-005  0.1056252E+03  0.7546771E-02  0.1272576E+00
         21   -1    0    0  501  502  0.00000000000E+00  0.00000000000E+00  0.62108039673E+02  0.62108039673E+02  0.00000000000E+00 0.  1.
         -1   -1    0    0    0  501 -0.00000000000E+00 -0.00000000000E+00 -0.42685557741E+03  0.42685557741E+03  0.00000000000E+00 0.  1.
         24    2    1    2    0    0  0.50354538907E+02 -0.20615866681E+02 -0.35109178032E+03  0.36490112407E+03  0.83227390873E+02 0.  0.
         23    2    1    2    0    0 -0.30258084256E+02  0.29975081766E+02 -0.12458600012E+02  0.10186124119E+03  0.91686632355E+02 0.  0.
        -13    1    3    3    0    0  0.28783488632E+02  0.27686877472E+02 -0.21896977358E+03  0.22258215145E+03  0.00000000000E+00 0.  1.
         14    1    3    3    0    0  0.21571050276E+02 -0.48302744154E+02 -0.13212200674E+03  0.14231897262E+03  0.00000000000E+00 0. -1.
        -11    1    4    4    0    0  0.16049889674E+02  0.14604764666E+02 -0.40237133673E+02  0.45715697914E+02  0.00000000000E+00 0.  1.
         11    1    4    4    0    0 -0.46307973930E+02  0.15370317100E+02  0.27778533661E+02  0.56145543275E+02  0.00000000000E+00 0. -1.
         -2    1    1    2    0  502 -0.20096454651E+02 -0.93592150848E+01 -0.11971574001E+01  0.22201251820E+02  0.00000000000E+00 0.  1.
<scales pt_clust_5="13000.00000" pt_clust_6="13000.00000" pt_clust_7="13000.00000" pt_clust_8="13000.00000" pt_clust_9="22.16895"></scales>
<clustering>
<clus scale="   22.169">  1  9  2 -1</clus>
<clus scale="   83.227">  5  6 -1 -1</clus>
<clus scale="   91.687">  7  8 -1 -1</clus>
<clus scale="   98.372">  2  5  1 -1</clus>
<clus scale="   22.169">  1  5  2 -1</clus>
</clustering>
</event>
<event>
 9    2  0.3745229E-005  0.1101979E+03  0.7546771E-02  0.1268080E+00
         21   -1    0    0  501  502  0.00000000000E+00  0.00000000000E+00  0.56642580184E+02  0.56642580184E+02  0.00000000000E+00 0.  1.
         -1   -1    0    0    0  501 -0.00000000000E+00 -0.00000000000E+00 -0.77831148912E+03  0.77831148912E+03  0.00000000000E+00 0.  1.
         24    2    1    2    0    0 -0.56076613347E+02 -0.25027828892E+02 -0.46644249992E+03  0.47665185944E+03  0.76533721979E+02 0.  0.
         23    2    1    2    0    0 -0.96275417508E+01  0.20270575422E+02 -0.33078107954E+01  0.97912794581E+02  0.95249083683E+02 0.  0.
        -13    1    3    3    0    0 -0.74834234336E+02 -0.16332275228E+02 -0.39075042761E+03  0.39818689396E+03  0.00000000000E+00 0.  1.
         14    1    3    3    0    0  0.18757620989E+02 -0.86955536638E+01 -0.75692072301E+02  0.78464965481E+02  0.00000000000E+00 0. -1.
        -11    1    4    4    0    0  0.10688477022E+01  0.49441924202E+02  0.25413269916E+02  0.55601084450E+02  0.00000000000E+00 0.  1.
         11    1    4    4    0    0 -0.10696389453E+02 -0.29171348780E+02 -0.28721080711E+02  0.42311710131E+02  0.00000000000E+00 0. -1.
         -2    1    1    2    0  502  0.65704155098E+02  0.47572534705E+01 -0.25191859823E+03  0.26038941528E+03  0.00000000000E+00 0.  1.
<scales pt_clust_5="13000.00000" pt_clust_6="13000.00000" pt_clust_7="13000.00000" pt_clust_8="13000.00000" pt_clust_9="65.87619"></scales>
<clustering>
<clus scale="   65.876">  1  9  2 -1</clus>
<clus scale="   76.534">  5  6 -1 -1</clus>
<clus scale="   94.491">  2  5  1 -1</clus>
<clus scale="   95.249">  7  8 -1 -1</clus>
<clus scale="   65.876">  1  5  2 -1</clus>
</clustering>
</event>
<event>
 9    2  0.3745229E-005  0.9085404E+02  0.7546771E-02  0.1301877E+00
         21   -1    0    0  501  502  0.00000000000E+00  0.00000000000E+00  0.59406218171E+02  0.59406218171E+02  0.00000000000E+00 0. -1.
         -3   -1    0    0    0  501 -0.00000000000E+00 -0.00000000000E+00 -0.35175014492E+03  0.35175014492E+03  0.00000000000E+00 0.  1.
         24    2    1    2    0    0 -0.15253042236E+02 -0.32428039637E+02 -0.13216435792E+03  0.16257604386E+03  0.87631726442E+02 0.  0.
         23    2    1    2    0    0  0.16541320338E+02 -0.51391678203E+02 -0.71823256010E+02  0.12678441301E+03  0.89448238723E+02 0.  0.
        -13    1    3    3    0    0 -0.53988680197E+00 -0.40465913431E+02 -0.13877408705E+03  0.14455458784E+03  0.00000000000E+00 0.  1.
         14    1    3    3    0    0 -0.14713155434E+02  0.80378737942E+01  0.66097291293E+01  0.18021456021E+02  0.00000000000E+00 0. -1.
        -13    1    4    4    0    0 -0.36175757667E+02 -0.20297436679E+02 -0.40732836944E+02  0.58136351658E+02  0.00000000000E+00 0. -1.
         13    1    4    4    0    0  0.52717078005E+02 -0.31094241524E+02 -0.31090419066E+02  0.68648061350E+02  0.00000000000E+00 0.  1.
         -4    1    1    2    0  502 -0.12882781020E+01  0.83819717840E+02 -0.88356312818E+02  0.12179590623E+03  0.00000000000E+00 0.  1.
<scales pt_clust_5="13000.00000" pt_clust_6="13000.00000" pt_clust_7="13000.00000" pt_clust_8="13000.00000" pt_clust_9="83.82966"></scales>
<clustering>
<clus scale="   83.830">  1  9  2 -1</clus>
<clus scale="   87.632">  5  6 -1 -1</clus>
<clus scale="   89.066">  2  5  1 -1</clus>
<clus scale="   89.448">  7  8 -1 -1</clus>
<clus scale="   83.830">  1  5  2 -1</clus>
</clustering>
</event>
<event>
 9    2  0.3745229E-005  0.3782184E+03  0.7546771E-02  0.1051594E+00
         21   -1    0    0  501  502  0.00000000000E+00  0.00000000000E+00  0.23438001426E+03  0.23438001426E+03  0.00000000000E+00 0.  1.
         -1   -1    0    0    0  501 -0.00000000000E+00 -0.00000000000E+00 -0.55700955839E+03  0.55700955839E+03  0.00000000000E+00 0.  1.
         24    2    1    2    0    0 -0.47225564351E+02 -0.20463615890E+03  0.46349651623E+02  0.22987541501E+03  0.81167756927E+02 0.  0.
         23    2    1    2    0    0 -0.40442441192E+02 -0.76246702093E+02 -0.81217412108E+02  0.14994678171E+03  0.91861954514E+02 0.  0.
        -11    1    3    3    0    0 -0.69077263045E+02 -0.17230695769E+03  0.32451435166E+02  0.18845278343E+03  0.00000000000E+00 0.  1.
         12    1    3    3    0    0  0.21851698694E+02 -0.32329201211E+02  0.13898216457E+02  0.41422631585E+02  0.00000000000E+00 0. -1.
        -11    1    4    4    0    0 -0.12666915066E+02 -0.90528041873E+02 -0.44264564719E+02  0.10156342251E+03  0.00000000000E+00 0.  1.
         11    1    4    4    0    0 -0.27775526125E+02  0.14281339780E+02 -0.36952847389E+02  0.48383359201E+02  0.00000000000E+00 0. -1.
         -2    1    1    2    0  502  0.87668005543E+02  0.28088286099E+03 -0.28776178365E+03  0.41156737592E+03  0.00000000000E+00 0.  1.
<scales pt_clust_5="13000.00000" pt_clust_6="13000.00000" pt_clust_7="13000.00000" pt_clust_8="13000.00000" pt_clust_9="294.24641"></scales>
<clustering>
<clus scale="   81.168">  5  6 -1 -1</clus>
<clus scale="   91.862">  7  8 -1 -1</clus>
<clus scale="  125.923">  5  7 -1 -1</clus>
<clus scale="  294.246">  1  9  2 -1</clus>
<clus scale="  294.246">  1  5  2 -1</clus>
</clustering>
</event>
<event>
 9    2  0.3745229E-005  0.1466689E+03  0.7546771E-02  0.1205073E+00
          2   -1    0    0  502    0 -0.00000000000E+00  0.00000000000E+00  0.17112196475E+03  0.17112196475E+03  0.00000000000E+00 0. -1.
         21   -1    0    0  501  502  0.00000000000E+00 -0.00000000000E+00 -0.21617374013E+03  0.21617374013E+03  0.00000000000E+00 0.  1.
         23    2    1    2    0    0  0.10401793049E+03 -0.74809449151E+02  0.79440541864E+02  0.17249900083E+03  0.83838666803E+02 0.  0.
         24    2    1    2    0    0 -0.77574089333E+02  0.53716713384E+02 -0.13051917523E+03  0.18043825161E+03  0.81360204696E+02 0.  0.
        -11    1    4    4    0    0 -0.25154030305E+02  0.28643826732E+02 -0.11373725982E+03  0.11995565148E+03  0.00000000000E+00 0.  1.
         12    1    4    4    0    0 -0.52420059028E+02  0.25072886652E+02 -0.16781915412E+02  0.60482600130E+02  0.00000000000E+00 0. -1.
        -13    1    3    3    0    0 -0.11383481605E+02 -0.19340323898E+02  0.12595118283E+01  0.22477058348E+02  0.00000000000E+00 0. -1.
         13    1    3    3    0    0  0.11540141209E+03 -0.55469125253E+02  0.78181030035E+02  0.15002194248E+03  0.00000000000E+00 0.  1.
          1    1    1    2  501    0 -0.26443841153E+02  0.21092735767E+02  0.60268579900E+01  0.34358452443E+02  0.00000000000E+00 0. -1.
<scales pt_clust_5="13000.00000" pt_clust_6="13000.00000" pt_clust_7="13000.00000" pt_clust_8="13000.00000" pt_clust_9="33.82575"></scales>
<clustering>
<clus scale="   33.826">  2  9  1 -1</clus>
<clus scale="   81.360">  5  6 -1 -1</clus>
<clus scale="   83.839">  7  8 -1 -1</clus>
<clus scale="  145.266">  2  5  1 -1</clus>
<clus scale="   33.826">  2  5  1 -1</clus>
</clustering>
</event>
<event>
 9    2  0.3745229E-005  0.1280515E+03  0.7546771E-02  0.1234565E+00
          2   -1    0    0  502    0 -0.00000000000E+00  0.00000000000E+00  0.25181663715E+03  0.25181663715E+03  0.00000000000E+00 0. -1.
         21   -1    0    0  501  502  0.00000000000E+00 -0.00000000000E+00 -0.26668144378E+03  0.26668144378E+03  0.00000000000E+00 0.  1.
         23    2    1    2    0    0  0.59261607621E+02  0.65168095693E+02  0.21252997955E+03  0.24836253044E+03  0.93574224475E+02 0.  0.
         24    2    1    2    0    0 -0.70880316023E+02 -0.41989384542E+02 -0.21020420665E+03  0.23902666013E+03  0.78490815654E+02 0.  0.
        -13    1    4    4    0    0 -0.71248112895E+02 -0.22585581056E+01 -0.15872819439E+03  0.17400009876E+03  0.00000000000E+00 0.  1.
         14    1    4    4    0    0  0.36779687172E+00 -0.39730826436E+02 -0.51476012266E+02  0.65026561363E+02  0.00000000000E+00 0. -1.
        -11    1    3    3    0    0  0.46145172615E+02 -0.35065227962E+01  0.14073639198E+03  0.14814993987E+03  0.00000000000E+00 0. -1.
         11    1    3    3    0    0  0.13116435007E+02  0.68674618490E+02  0.71793587571E+02  0.10021259057E+03  0.00000000000E+00 0.  1.
          1    1    1    2  501    0  0.11618708401E+02 -0.23178711151E+02 -0.17190579522E+02  0.31108890367E+02  0.00000000000E+00 0. -1.
<scales pt_clust_5="13000.00000" pt_clust_6="13000.00000" pt_clust_7="13000.00000" pt_clust_8="13000.00000" pt_clust_9="25.92773"></scales>
<clustering>
<clus scale="   25.928">  2  9  1 -1</clus>
<clus scale="   78.491">  5  6 -1 -1</clus>
<clus scale="   93.574">  7  8 -1 -1</clus>
<clus scale="  117.481">  2  5  1 -1</clus>
<clus scale="   25.928">  2  5  1 -1</clus>
</clustering>
</event>
<event>
 9    2  0.3745229E-005  0.9663681E+02  0.7546771E-02  0.1292992E+00
          2   -1    0    0  502    0 -0.00000000000E+00  0.00000000000E+00  0.13735030828E+03  0.13735030828E+03  0.00000000000E+00 0. -1.
         21   -1    0    0  501  502  0.00000000000E+00 -0.00000000000E+00 -0.42948650008E+03  0.42948650008E+03  0.00000000000E+00 0.  1.
         23    2    1    2    0    0 -0.30716321346E+02 -0.18581051649E+02  0.10658812744E+03  0.14477749251E+03  0.91163290586E+02 0.  0.
         24    2    1    2    0    0 -0.28687123981E+01  0.45402491671E+01 -0.14945353368E+03  0.17014460179E+03  0.81141748892E+02 0.  0.
        -13    1    4    4    0    0 -0.38270492219E+02  0.66982073986E+01 -0.11206888433E+03  0.11861252628E+03  0.00000000000E+00 0.  1.
         14    1    4    4    0    0  0.35401779821E+02 -0.21579582315E+01 -0.37384649358E+02  0.51532075505E+02  0.00000000000E+00 0. -1.
        -11    1    3    3    0    0  0.91079940459E+01 -0.37356385274E+02  0.11730951164E+02  0.40200376758E+02  0.00000000000E+00 0. -1.
         11    1    3    3    0    0 -0.39824315392E+02  0.18775333625E+02  0.94857176272E+02  0.10457711575E+03  0.00000000000E+00 0.  1.
          1    1    1    2  501    0  0.33585033744E+02  0.14040802482E+02 -0.24927078556E+03  0.25191471406E+03  0.00000000000E+00 0. -1.
<scales pt_clust_5="13000.00000" pt_clust_6="13000.00000" pt_clust_7="13000.00000" pt_clust_8="13000.00000" pt_clust_9="36.40190"></scales>
<clustering>
<clus scale="   36.402">  2  9  1 -1</clus>
<clus scale="   81.142">  5  6 -1 -1</clus>
<clus scale="   87.246">  2  5  1 -1</clus>
<clus scale="   91.163">  7  8 -1 -1</clus>
<clus scale="   36.402">  2  5  1 -1</clus>
</clustering>
</event>
<event>
 9    2  0.3745229E-005  0.2650439E+03  0.7546771E-02  0.1145938E+00
         21   -1    0    0  501  502  0.00000000000E+00  0.00000000000E+00  0.97065691822E+02  0.97065691822E+02  0.00000000000E+00 0.  1.
          2   -1    0    0  502    0 -0.00000000000E+00 -0.00000000000E+00 -0.13982813748E+04  0.13982813748E+04  0.00000000000E+00 0. -1.
         23    2    1    2    0    0  0.10256515513E+02 -0.15523044039E+02 -0.65025448916E+02  0.11435292665E+03  0.92206951045E+02 0.  0.
         24    2    1    2    0    0  0.24007222947E+03 -0.66335545478E+02 -0.25660794269E+03  0.36662400298E+03  0.80811158593E+02 0.  0.
        -11    1    4    4    0    0  0.20192414965E+03 -0.52858860876E+02 -0.24991643167E+03  0.32561579231E+03  0.00000000000E+00 0.  1.
         12    1    4    4    0    0  0.38148079825E+02 -0.13476684602E+02 -0.66915110104E+01  0.41008210663E+02  0.00000000000E+00 0. -1.
        -13    1    3    3    0    0 -0.27124144117E+02 -0.90387111157E+01  0.99931020426E+01  0.30286623799E+02  0.00000000000E+00 0.  1.
         13    1    3    3    0    0  0.37380659630E+02 -0.64843329234E+01 -0.75018550959E+02  0.84066302855E+02  0.00000000000E+00 0. -1.
          1    1    1    2  501    0 -0.25032874498E+03  0.81858589517E+02 -0.97958229139E+03  0.10143701370E+04  0.00000000000E+00 0. -1.
<scales pt_clust_5="13000.00000" pt_clust_6="13000.00000" pt_clust_7="13000.00000" pt_clust_8="13000.00000" pt_clust_9="252.42404"></scales>
<clustering>
<clus scale="   80.811">  5  6 -1 -1</clus>
<clus scale="   92.207">  7  8 -1 -1</clus>
<clus scale="   94.065">  2  7  1 -1</clus>
<clus scale="  252.424">  1  9  2 -1</clus>
<clus scale="  252.424">  1  5  2 -1</clus>
</clustering>
</event>
<event>
 9    2  0.3745229E-005  0.1146846E+03  0.7546771E-02  0.1257123E+00
         21   -1    0    0  501  502  0.00000000000E+00  0.00000000000E+00  0.13049895981E+03  0.13049895981E+03  0.00000000000E+00 0. -1.
          4   -1    0    0  502    0 -0.00000000000E+00 -0.00000000000E+00 -0.35683555015E+03  0.35683555015E+03  0.00000000000E+00 0. -1.
         24    2    1    2    0    0  0.46109011618E+02  0.60299450069E+02 -0.25075913095E+03  0.27344454560E+03  0.78292484530E+02 0.  0.
         23    2    1    2    0    0  0.35785701408E+01 -0.56955849784E+02 -0.53919314720E+02  0.12105957204E+03  0.92148534950E+02 0.  0.
        -13    1    3    3    0    0  0.41539697340E+02  0.23297141538E+02 -0.49236589618E+02  0.68502153369E+02  0.00000000000E+00 0.  1.
         14    1    3    3    0    0  0.45693142779E+01  0.37002308531E+02 -0.20152254133E+03  0.20494239223E+03  0.00000000000E+00 0. -1.
        -11    1    4    4    0    0 -0.40865089651E+02 -0.68969653563E+01 -0.21154580736E+02  0.46529990000E+02  0.00000000000E+00 0.  1.
         11    1    4    4    0    0  0.44443659792E+02 -0.50058884428E+02 -0.32764733984E+02  0.74529582039E+02  0.00000000000E+00 0. -1.
          3    1    1    2  501    0 -0.49687581759E+02 -0.33436002842E+01  0.78341855319E+02  0.92830392323E+02  0.00000000000E+00 0. -1.
<scales pt_clust_5="13000.00000" pt_clust_6="13000.00000" pt_clust_7="13000.00000" pt_clust_8="13000.00000" pt_clust_9="49.79995"></scales>
<clustering>
<clus scale="   49.800">  1  9  2 -1</clus>
<clus scale="   78.292">  5  6 -1 -1</clus>
<clus scale="   92.149">  7  8 -1 -1</clus>
<clus scale="  103.879">  2  5  1 -1</clus>
<clus scale="   49.800">  1  5  2 -1</clus>
</clustering>
</event>
<event>
 9    2  0.3745229E-005  0.1346830E+03  0.7546771E-02  0.1223359E+00
         21   -1    0    0  501  502  0.00000000000E+00  0.00000000000E+00  0.12876925512E+03  0.12876925512E+03  0.00000000000E+00 0. -1.
          2   -1    0    0  502    0 -0.00000000000E+00 -0.00000000000E+00 -0.45430898142E+03  0.45430898142E+03  0.00000000000E+00 0. -1.
         23    2    1    2    0    0 -0.24910990748E+02  0.98742955800E+02 -0.39506659133E+03  0.41807627605E+03  0.91320491814E+02 0.  0.
         24    2    1    2    0    0  0.19053310911E+02 -0.79039932825E+02  0.26224530228E+02  0.11706853034E+03  0.80043582959E+02 0.  0.
        -11    1    4    4    0    0  0.42647537250E+02 -0.25990580046E+02  0.31050547717E+02  0.58808666013E+02  0.00000000000E+00 0.  1.
         12    1    4    4    0    0 -0.23594226339E+02 -0.53049352779E+02 -0.48260174887E+01  0.58259864329E+02  0.00000000000E+00 0. -1.
        -13    1    3    3    0    0 -0.54119398865E+02  0.42376727571E+02 -0.15135549776E+03  0.16623231658E+03  0.00000000000E+00 0.  1.
         13    1    3    3    0    0  0.29208408117E+02  0.56366228229E+02 -0.24371109357E+03  0.25184395946E+03  0.00000000000E+00 0. -1.
          1    1    1    2  501    0  0.58576798374E+01 -0.19703022974E+02  0.43302334796E+02  0.47933430153E+02  0.00000000000E+00 0. -1.
<scales pt_clust_5="13000.00000" pt_clust_6="13000.00000" pt_clust_7="13000.00000" pt_clust_8="13000.00000" pt_clust_9="20.55533"></scales>
<clustering>
<clus scale="   20.555">  1  9  2 -1</clus>
<clus scale="   80.044">  5  6 -1 -1</clus>
<clus scale="   91.320">  7  8 -1 -1</clus>
<clus scale="  127.307">  1  5  2 -1</clus>
<clus scale="   20.555">  1  5  2 -1</clus>
</clustering>
</event>
<event>
 9    2  0.3745229E-005  0.9100797E+02  0.7546771E-02  0.1304274E+00
         21   -1    0    0  501  502  0.00000000000E+00  0.00000000000E+00  0.50993477492E+02  0.50993477492E+02  0.00000000000E+00 0.  1.
          2   -1    0    0  502    0 -0.00000000000E+00 -0.00000000000E+00 -0.30858513470E+03  0.30858513470E+03  0.00000000000E+00 0. -1.
         23    2    1    2    0    0 -0.10081584617E+02 -0.24908371842E+02 -0.20842108250E+03  0.22738119174E+03  0.86837741733E+02 0.  0.
         24    2    1    2    0    0 -0.21326102870E+02  0.33969573211E+02 -0.39765355032E+02  0.98182624250E+02  0.80310707107E+02 0.  0.
        -13    1    4    4    0    0 -0.35338278749E+02  0.48593085012E+02 -0.81468674800E+01  0.60633763743E+02  0.00000000000E+00 0.  1.
         14    1    4    4    0    0  0.14012175879E+02 -0.14623511801E+02 -0.31618487552E+02  0.37548860507E+02  0.00000000000E+00 0. -1.
        -13    1    3    3    0    0  0.17368434375E+02  0.26246772890E+02 -0.55375554836E+02  0.63694643991E+02  0.00000000000E+00 0.  1.
         13    1    3    3    0    0 -0.27450018993E+02 -0.51155144731E+02 -0.15304552766E+03  0.16368654775E+03  0.00000000000E+00 0. -1.
          1    1    1    2  501    0  0.31407687487E+02 -0.90612013690E+01 -0.94052196732E+01  0.34014796202E+02  0.00000000000E+00 0. -1.
<scales pt_clust_5="13000.00000" pt_clust_6="13000.00000" pt_clust_7="13000.00000" pt_clust_8="13000.00000" pt_clust_9="32.68866"></scales>
<clustering>
<clus scale="   32.689">  1  9  2 -1</clus>
<clus scale="   80.311">  5  6 -1 -1</clus>
<clus scale="   84.803">  1  5  2 -1</clus>
<clus scale="   86.838">  7  8 -1 -1</clus>
<clus scale="   32.689">  1  5  2 -1</clus>
</clustering>
</event>
<event>
 9    2  0.3745229E-005  0.1071989E+03  0.7546771E-02  0.1274402E+00
         -1   -1    0    0    0  501 -0.00000000000E+00  0.00000000000E+00  0.67531805980E+02  0.67531805980E+02  0.00000000000E+00 0.  1.
         21   -1    0    0  501  502  0.00000000000E+00 -0.00000000000E+00 -0.41821995607E+03  0.41821995607E+03  0.00000000000E+00 0.  1.
         23    2    1    2    0    0  0.16278353683E+02 -0.50706584907E+02 -0.11591850326E+02  0.11266269047E+03  0.98602070359E+02 0.  0.
         24    2    1    2    0    0  0.37775329465E+02  0.13834984334E+02 -0.18851692947E+03  0.20890788402E+03  0.80532533795E+02 0.  0.
        -11    1    4    4    0    0  0.59340858133E+02 -0.45463702755E+01 -0.10472981166E+03  0.12045887421E+03  0.00000000000E+00 0.  1.
         12    1    4    4    0    0 -0.21565528667E+02  0.18381354610E+02 -0.83787117814E+02  0.88449009805E+02  0.00000000000E+00 0. -1.
        -13    1    3    3    0    0 -0.30219238525E+01 -0.30175540525E+02  0.42182627482E+02  0.51952568088E+02  0.00000000000E+00 0.  1.
         13    1    3    3    0    0  0.19300277536E+02 -0.20531044383E+02 -0.53774477808E+02  0.60710122384E+02  0.00000000000E+00 0. -1.
         -2    1    1    2    0  502 -0.54053683148E+02  0.36871600573E+02 -0.15057937029E+03  0.16418118756E+03  0.00000000000E+00 0.  1.
<scales pt_clust_5="13000.00000" pt_clust_6="13000.00000" pt_clust_7="13000.00000" pt_clust_8="13000.00000" pt_clust_9="65.43176"></scales>
<clustering>
<clus scale="   65.432">  2  9  1 -1</clus>
<clus scale="   80.533">  5  6 -1 -1</clus>
<clus scale="   90.856">  2  5  1 -1</clus>
<clus scale="   98.602">  7  8 -1 -1</clus>
<clus scale="   65.432">  2  5  1 -1</clus>
</clustering>
</event>
<event>
 9    2  0.3745229E-005  0.1174114E+03  0.7546771E-02  0.1250734E+00
         21   -1    0    0  501  502  0.00000000000E+00  0.00000000000E+00  0.73999139537E+02  0.73999139537E+02  0.00000000000E+00 0. -1.
         -3   -1    0    0    0  501 -0.00000000000E+00 -0.00000000000E+00 -0.34119738830E+03  0.34119738830E+03  0.00000000000E+00 0.  1.
         24    2    1    2    0    0  0.16615734788E+02  0.79365892080E+02 -0.22857803047E+03  0.25540685120E+03  0.80060702957E+02 0.  0.
         23    2    1    2    0    0 -0.27298191286E+02 -0.56522998902E+02 -0.61400350573E+02  0.12580663568E+03  0.90095870489E+02 0.  0.
        -11    1    3    3    0    0  0.27113731904E+02  0.34214547329E+02 -0.33861446680E+02  0.55248414257E+02  0.00000000000E+00 0.  1.
         12    1    3    3    0    0 -0.10497997116E+02  0.45151344751E+02 -0.19471658379E+03  0.20015843695E+03  0.00000000000E+00 0. -1.
        -11    1    4    4    0    0 -0.44037212398E+02 -0.18301516586E+02 -0.68515523359E+02  0.83478132025E+02  0.00000000000E+00 0.  1.
         11    1    4    4    0    0  0.16739021112E+02 -0.38221482316E+02  0.71151727865E+01  0.42328503659E+02  0.00000000000E+00 0. -1.
         -4    1    1    2    0  502  0.10682456498E+02 -0.22842893178E+02  0.22780132281E+02  0.33983040952E+02  0.00000000000E+00 0.  1.
<scales pt_clust_5="13000.00000" pt_clust_6="13000.00000" pt_clust_7="13000.00000" pt_clust_8="13000.00000" pt_clust_9="25.21731"></scales>
<clustering>
<clus scale="   25.217">  1  9  2 -1</clus>
<clus scale="   80.061">  5  6 -1 -1</clus>
<clus scale="   90.096">  7  8 -1 -1</clus>
<clus scale="  109.899">  2  5  1 -1</clus>
<clus scale="   25.217">  1  5  2 -1</clus>
</clustering>
</event>
<event>
 9    2  0.3745229E-005  0.1788007E+03  0.7546771E-02  0.1170400E+00
         21   -1    0    0  501  502  0.00000000000E+00  0.00000000000E+00  0.20174905465E+03  0.20174905465E+03  0.00000000000E+00 0. -1.
          2   -1    0    0  502    0 -0.00000000000E+00 -0.00000000000E+00 -0.74465033510E+03  0.74465033510E+03  0.00000000000E+00 0. -1.
         24    2    1    2    0    0 -0.12366361532E+03  0.99542739719E+02 -0.61021484095E+03  0.63546722404E+03  0.79088519574E+02 0.  0.
         23    2    1    2    0    0  0.43707074113E+02 -0.14156637560E+03 -0.31878696731E+02  0.17677502520E+03  0.91004457044E+02 0.  0.
        -11    1    3    3    0    0 -0.27845234730E+02  0.16880942828E+02 -0.41012847945E+02  0.52367709750E+02  0.00000000000E+00 0.  1.
         12    1    3    3    0    0 -0.95818380595E+02  0.82661796891E+02 -0.56920199301E+03  0.58309951429E+03  0.00000000000E+00 0. -1.
        -13    1    4    4    0    0  0.37105791333E+02 -0.19215304243E+02  0.16656522753E+02  0.44983412696E+02  0.00000000000E+00 0.  1.
         13    1    4    4    0    0  0.66012827798E+01 -0.12235107135E+03 -0.48535219483E+02  0.13179161250E+03  0.00000000000E+00 0. -1.
          1    1    1    2  501    0  0.79956541212E+02  0.42023635878E+02  0.99192257235E+02  0.13415714051E+03  0.00000000000E+00 0. -1.
<scales pt_clust_5="13000.00000" pt_clust_6="13000.00000" pt_clust_7="13000.00000" pt_clust_8="13000.00000" pt_clust_9="90.32737"></scales>
<clustering>
<clus scale="   79.089">  5  6 -1 -1</clus>
<clus scale="   90.327">  1  9  2 -1</clus>
<clus scale="   91.004">  7  8 -1 -1</clus>
<clus scale="  173.040">  2  5  1 -1</clus>
<clus scale="   90.327">  1  5  2 -1</clus>
</clustering>
</event>
<event>
 9    2  0.3745229E-005  0.9586572E+02  0.7546771E-02  0.1290428E+00
         21   -1    0    0  501  502  0.00000000000E+00  0.00000000000E+00  0.18112297075E+03  0.18112297075E+03  0.00000000000E+00 0. -1.
         -3   -1    0    0    0  501 -0.00000000000E+00 -0.00000000000E+00 -0.11683001476E+03  0.11683001476E+03  0.00000000000E+00 0.  1.
         23    2    1    2    0    0 -0.11078511015E+02  0.40762227094E+02 -0.43603279280E+01  0.10011217623E+03  0.90659488232E+02 0.  0.
         24    2    1    2    0    0  0.33678847929E+02  0.10842565126E+02  0.95992133615E+02  0.13522098405E+03  0.88421709980E+02 0.  0.
        -11    1    4    4    0    0 -0.76955835591E+01  0.23005191300E+02 -0.55636741150E+01  0.24888055423E+02  0.00000000000E+00 0.  1.
         12    1    4    4    0    0  0.41374431488E+02 -0.12162626174E+02  0.10155580773E+03  0.11033292863E+03  0.00000000000E+00 0. -1.
        -11    1    3    3    0    0 -0.68533587761E+01 -0.28255729477E+02 -0.99723710728E+01  0.30737647269E+02  0.00000000000E+00 0.  1.
         11    1    3    3    0    0 -0.42251522386E+01  0.69017956571E+02  0.56120431448E+01  0.69374528964E+02  0.00000000000E+00 0. -1.
         -4    1    1    2    0  502 -0.22600336914E+02 -0.51604792219E+02 -0.27338849701E+02  0.62619825228E+02  0.00000000000E+00 0.  1.
<scales pt_clust_5="13000.00000" pt_clust_6="13000.00000" pt_clust_7="13000.00000" pt_clust_8="13000.00000" pt_clust_9="56.33678"></scales>
<clustering>
<clus scale="   56.337">  1  9  2 -1</clus>
<clus scale="   88.422">  5  6 -1 -1</clus>
<clus scale="   90.659">  7  8 -1 -1</clus>
<clus scale="   93.752">  1  5  2 -1</clus>
<clus scale="   56.337">  1  5  2 -1</clus>
</clustering>
</event>
<event>
 9    2  0.3745229E-005  0.2776791E+03  0.7546771E-02  0.1139432E+00
         21   -1    0    0  501  502  0.00000000000E+00  0.00000000000E+00  0.82353969568E+03  0.82353969568E+03  0.00000000000E+00 0. -1.
          4   -1    0    0  502    0 -0.00000000000E+00 -0.00000000000E+00 -0.13318761395E+03  0.13318761395E+03  0.00000000000E+00 0. -1.
         23    2    1    2    0    0 -0.19840894099E+02 -0.89867378128E+01  0.42297655220E+02  0.10456328669E+03  0.93112656239E+02 0.  0.
         24    2    1    2    0    0  0.24472642362E+03 -0.12291961496E+03  0.26964212534E+03  0.39263311324E+03  0.80334498806E+02 0.  0.
        -11    1    4    4    0    0  0.36956598094E+02 -0.31067555341E+02  0.93308763905E+02  0.10505954768E+03  0.00000000000E+00 0.  1.
         12    1    4    4    0    0  0.20776982553E+03 -0.91852059620E+02  0.17633336143E+03  0.28757356556E+03  0.00000000000E+00 0. -1.
        -13    1    3    3    0    0  0.24266678946E+02  0.47473293373E+01 -0.16546282015E+02  0.29752114067E+02  0.00000000000E+00 0.  1.
         13    1    3    3    0    0 -0.44107573045E+02 -0.13734067150E+02  0.58843937235E+02  0.74811172626E+02  0.00000000000E+00 0. -1.
          3    1    1    2  501    0 -0.22488552952E+03  0.13190635277E+03  0.37841230117E+03  0.45953090969E+03  0.00000000000E+00 0. -1.
<scales pt_clust_5="13000.00000" pt_clust_6="13000.00000" pt_clust_7="13000.00000" pt_clust_8="13000.00000" pt_clust_9="265.80458"></scales>
<clustering>
<clus scale="   80.334">  5  6 -1 -1</clus>
<clus scale="   93.113">  7  8 -1 -1</clus>
<clus scale="   95.626">  2  7  1 -1</clus>
<clus scale="  265.805">  1  9  2 -1</clus>
<clus scale="  265.805">  1  5  2 -1</clus>
</clustering>
</event>
<event>
 9    2  0.3745229E-005  0.1038035E+03  0.7546771E-02  0.1276617E+00
         21   -1    0    0  501  502  0.00000000000E+00  0.00000000000E+00  0.24969013174E+02  0.24969013174E+02  0.00000000000E+00 0.  1.
          2   -1    0    0  502    0 -0.00000000000E+00 -0.00000000000E+00 -0.65350305182E+03  0.65350305182E+03  0.00000000000E+00 0. -1.
         24    2    1    2    0    0 -0.23410493314E+02 -0.49048880659E+02 -0.24305650683E+03  0.26195756817E+03  0.81187795398E+02 0.  0.
         23    2    1    2    0    0  0.49725054832E+02  0.21856325050E+02 -0.18899147497E+03  0.21641786575E+03  0.90380501120E+02 0.  0.
        -11    1    3    3    0    0 -0.31790890855E+02 -0.68189478184E+02 -0.16860697777E+03  0.18463146706E+03  0.00000000000E+00 0.  1.
         12    1    3    3    0    0  0.83803975405E+01  0.19140597525E+02 -0.74449529058E+02  0.77326101115E+02  0.00000000000E+00 0. -1.
        -13    1    4    4    0    0  0.49895336751E+02  0.52824182265E+02 -0.11285744643E+03  0.13422645818E+03  0.00000000000E+00 0.  1.
         13    1    4    4    0    0 -0.17028191935E+00 -0.30967857215E+02 -0.76134028547E+02  0.82191407575E+02  0.00000000000E+00 0. -1.
          1    1    1    2  501    0 -0.26314561518E+02  0.27192555609E+02 -0.19648605685E+03  0.20009663107E+03  0.00000000000E+00 0. -1.
<scales pt_clust_5="13000.00000" pt_clust_6="13000.00000" pt_clust_7="13000.00000" pt_clust_8="13000.00000" pt_clust_9="37.84036"></scales>
<clustering>
<clus scale="   37.840">  1  9  2 -1</clus>
<clus scale="   81.188">  5  6 -1 -1</clus>
<clus scale="   90.381">  7  8 -1 -1</clus>
<clus scale="   95.906">  2  5  1 -1</clus>
<clus scale="   37.840">  1  5  2 -1</clus>
</clustering>
</event>
<event>
 9    2  0.3745229E-005  0.1381637E+03  0.7546771E-02  0.1217469E+00
         -1   -1    0    0    0  501 -0.00000000000E+00  0.00000000000E+00  0.23599982599E+03  0.23599982599E+03  0.00000000000E+00 0.  1.
         21   -1    0    0  501  502  0.00000000000E+00 -0.00000000000E+00 -0.26501945812E+03  0.26501945812E+03  0.00000000000E+00 0. -1.
         24    2    1    2    0    0 -0.82982311307E+02  0.56026163295E+02  0.17092646042E+03  0.21531002096E+03  0.84365604912E+02 0.  0.
         23    2    1    2    0    0  0.98356667849E+02 -0.92546328315E+02 -0.17268747527E+03  0.23761429972E+03  0.91655519849E+02 0.  0.
        -11    1    3    3    0    0 -0.93832979547E+02  0.39131554899E+02  0.16596266140E+03  0.19462659536E+03  0.00000000000E+00 0.  1.
         12    1    3    3    0    0  0.10850668240E+02  0.16894608396E+02  0.49637990130E+01  0.20683425605E+02  0.00000000000E+00 0. -1.
        -13    1    4    4    0    0  0.10089527374E+02 -0.68574734149E+02 -0.54527378901E+02  0.88190292980E+02  0.00000000000E+00 0.  1.
         13    1    4    4    0    0  0.88267140475E+02 -0.23971594167E+02 -0.11816009637E+03  0.14942400674E+03  0.00000000000E+00 0. -1.
         -2    1    1    2    0  502 -0.15374356542E+02  0.36520165021E+02 -0.27258617276E+02  0.48094963437E+02  0.00000000000E+00 0.  1.
<scales pt_clust_5="13000.00000" pt_clust_6="13000.00000" pt_clust_7="13000.00000" pt_clust_8="13000.00000" pt_clust_9="39.62440"></scales>
<clustering>
<clus scale="   39.624">  2  9  1 -1</clus>
<clus scale="   84.366">  5  6 -1 -1</clus>
<clus scale="   91.656">  7  8 -1 -1</clus>
<clus scale="  133.439">  1  5  2 -1</clus>
<clus scale="   39.624">  2  5  1 -1</clus>
</clustering>
</event>
<event>
 9    2  0.3745229E-005  0.1408201E+03  0.7546771E-02  0.1215000E+00
         21   -1    0    0  501  502  0.00000000000E+00  0.00000000000E+00  0.14207402722E+03  0.14207402722E+03  0.00000000000E+00 0.  1.
          2   -1    0    0  502    0 -0.00000000000E+00 -0.00000000000E+00 -0.19942588592E+03  0.19942588592E+03  0.00000000000E+00 0. -1.
         24    2    1    2    0    0  0.99752754085E+02  0.33438830419E+02 -0.68269699357E+02  0.14905711780E+03  0.80551258156E+02 0.  0.
         23    2    1    2    0    0 -0.89691779270E+02 -0.60970000299E+02 -0.25951940036E+02  0.14534110473E+03  0.93212538464E+02 0.  0.
        -11    1    3    3    0    0  0.47386337218E+02  0.31831709039E+02  0.68260185995E+01  0.57491887995E+02  0.00000000000E+00 0.  1.
         12    1    3    3    0    0  0.52366416867E+02  0.16071213792E+01 -0.75095717957E+02  0.91565229809E+02  0.00000000000E+00 0. -1.
        -11    1    4    4    0    0 -0.33485077349E+02 -0.21808411489E+02 -0.57418792597E+02  0.69955521298E+02  0.00000000000E+00 0. -1.
         11    1    4    4    0    0 -0.56206701921E+02 -0.39161588810E+02  0.31466852561E+02  0.75385583430E+02  0.00000000000E+00 0.  1.
          1    1    1    2  501    0 -0.10060974815E+02  0.27531169881E+02  0.36869780691E+02  0.47101690600E+02  0.00000000000E+00 0. -1.
<scales pt_clust_5="13000.00000" pt_clust_6="13000.00000" pt_clust_7="13000.00000" pt_clust_8="13000.00000" pt_clust_9="29.31192"></scales>
<clustering>
<clus scale="   29.312">  1  9  2 -1</clus>
<clus scale="   80.551">  5  6 -1 -1</clus>
<clus scale="   93.213">  7  8 -1 -1</clus>
<clus scale="  132.779">  2  5  1 -1</clus>
<clus scale="   29.312">  1  5  2 -1</clus>
</clustering>
</event>
<event>
 9    2  0.3745229E-005  0.2790678E+03  0.7546771E-02  0.1129035E+00
          2   -1    0    0  502    0 -0.00000000000E+00  0.00000000000E+00  0.99845969765E+03  0.99845969765E+03  0.00000000000E+00 0. -1.
         21   -1    0    0  501  502  0.00000000000E+00 -0.00000000000E+00 -0.12705022653E+03  0.12705022653E+03  0.00000000000E+00 0. -1.
         24    2    1    2    0    0  0.79623644618E+02 -0.43651924489E+02  0.70046046707E+02  0.14013774958E+03  0.80540206756E+02 0.  0.
         23    2    1    2    0    0  0.27335507415E+02  0.27351127809E+03  0.26756312251E+03  0.39442518463E+03  0.91790808540E+02 0.  0.
        -11    1    3    3    0    0  0.78250491323E+02 -0.63281913894E+02  0.51290504281E+02  0.11295333482E+03  0.00000000000E+00 0.  1.
         12    1    3    3    0    0  0.13731532958E+01  0.19629989405E+02  0.18755542426E+02  0.27184414757E+02  0.00000000000E+00 0. -1.
        -11    1    4    4    0    0  0.14484800850E+01  0.10898583303E+03  0.48654270878E+02  0.11936183633E+03  0.00000000000E+00 0.  1.
         11    1    4    4    0    0  0.25887027330E+02  0.16452544506E+03  0.21890885163E+03  0.27506334830E+03  0.00000000000E+00 0. -1.
          1    1    1    2  501    0 -0.10695915203E+03 -0.22985935360E+03  0.53380030190E+03  0.59094698997E+03  0.00000000000E+00 0. -1.
<scales pt_clust_5="13000.00000" pt_clust_6="13000.00000" pt_clust_7="13000.00000" pt_clust_8="13000.00000" pt_clust_9="263.54005"></scales>
<clustering>
<clus scale="   80.540">  5  6 -1 -1</clus>
<clus scale="   91.791">  7  8 -1 -1</clus>
<clus scale="  121.376">  1  5  2 -1</clus>
<clus scale="  263.540">  2  9  1 -1</clus>
<clus scale="  263.540">  2  5  1 -1</clus>
</clustering>
</event>
<event>
 9    2  0.3745229E-005  0.9290872E+02  0.7546771E-02  0.1302461E+00
         -3   -1    0    0    0  501 -0.00000000000E+00  0.00000000000E+00  0.22048371911E+03  0.22048371911E+03  0.00000000000E+00 0.  1.
         21   -1    0    0  501  502  0.00000000000E+00 -0.00000000000E+00 -0.67287156472E+02  0.67287156472E+02  0.00000000000E+00 0. -1.
         24    2    1    2    0    0 -0.67113101630E+01  0.16287224265E+02  0.10252858959E+03  0.13122386768E+03  0.79982975738E+02 0.  0.
         23    2    1    2    0    0  0.41833626449E+02  0.87160823274E+01  0.52813077620E+02  0.11338054041E+03  0.90773913566E+02 0.  0.
        -11    1    3    3    0    0 -0.29037772655E+02  0.26772999484E+02  0.98639193717E+02  0.10625288833E+03  0.00000000000E+00 0.  1.
         12    1    3    3    0    0  0.22326462492E+02 -0.10485775219E+02  0.38893958720E+01  0.24970979348E+02  0.00000000000E+00 0. -1.
        -13    1    4    4    0    0  0.18232150623E+02  0.49186674419E+02  0.19807740696E+02  0.56072157513E+02  0.00000000000E+00 0. -1.
         13    1    4    4    0    0  0.23601475826E+02 -0.40470592091E+02  0.33005336924E+02  0.57308382902E+02  0.00000000000E+00 0.  1.
         -4    1    1    2    0  502 -0.35122316286E+02 -0.25003306593E+02 -0.21451045680E+01  0.43166467489E+02  0.00000000000E+00 0.  1.
<scales pt_clust_5="13000.00000" pt_clust_6="13000.00000" pt_clust_7="13000.00000" pt_clust_8="13000.00000" pt_clust_9="43.11314"></scales>
<clustering>
<clus scale="   43.113">  2  9  1 -1</clus>
<clus scale="   79.983">  5  6 -1 -1</clus>
<clus scale="   82.398">  1  5  2 -1</clus>
<clus scale="   90.774">  7  8 -1 -1</clus>
<clus scale="   43.113">  2  5  1 -1</clus>
</clustering>
</event>
<event>
 9    2  0.3745229E-005  0.1088014E+03  0.7546771E-02  0.1266065E+00
         21   -1    0    0  501  502  0.00000000000E+00  0.00000000000E+00  0.18214885775E+03  0.18214885775E+03  0.00000000000E+00 0.  1.
          4   -1    0    0  502    0 -0.00000000000E+00 -0.00000000000E+00 -0.17005323027E+03  0.17005323027E+03  0.00000000000E+00 0. -1.
         23    2    1    2    0    0  0.47663780116E+02 -0.44312267202E+02  0.46002814433E+02  0.12119126277E+03  0.91299782462E+02 0.  0.
         24    2    1    2    0    0 -0.64904406617E+02 -0.77822925940E+01  0.60450355696E+02  0.12185759250E+03  0.83197844147E+02 0.  0.
        -13    1    4    4    0    0 -0.50611875388E+02 -0.20423211406E+02  0.78489570407E+02  0.95599592871E+02  0.00000000000E+00 0.  1.
         14    1    4    4    0    0 -0.14292531229E+02  0.12640918812E+02 -0.18039214711E+02  0.26257999633E+02  0.00000000000E+00 0. -1.
        -11    1    3    3    0    0  0.73579384063E+02 -0.20440746723E+02  0.36825116765E+02  0.84781124730E+02  0.00000000000E+00 0. -1.
         11    1    3    3    0    0 -0.25915603947E+02 -0.23871520480E+02  0.91776976687E+01  0.36410138045E+02  0.00000000000E+00 0.  1.
          3    1    1    2  501    0  0.17240626501E+02  0.52094559796E+02 -0.94357542648E+02  0.10915323274E+03  0.00000000000E+00 0. -1.
<scales pt_clust_5="13000.00000" pt_clust_6="13000.00000" pt_clust_7="13000.00000" pt_clust_8="13000.00000" pt_clust_9="54.87336"></scales>
<clustering>
<clus scale="   54.873">  1  9  2 -1</clus>
<clus scale="   83.198">  5  6 -1 -1</clus>
<clus scale="   91.300">  7  8 -1 -1</clus>
<clus scale="  102.098">  1  5  2 -1</clus>
<clus scale="   54.873">  1  5  2 -1</clus>
</clustering>
</event>
<event>
 9    2  0.3745229E-005  0.1058711E+03  0.7546771E-02  0.1273431E+00
         21   -1    0    0  501  502  0.00000000000E+00  0.00000000000E+00  0.88001867291E+02  0.88001867291E+02  0.00000000000E+00 0.  1.
          2   -1    0    0  502    0 -0.00000000000E+00 -0.00000000000E+00 -0.42235883207E+03  0.42235883207E+03  0.00000000000E+00 0. -1.
         23    2    1    2    0    0 -0.39459417912E+02 -0.35377484979E+02 -0.34510944435E+03  0.36106877404E+03  0.91986514764E+02 0.  0.
         24    2    1    2    0    0  0.61445604896E+01  0.61830781122E+02  0.24413712303E+02  0.10461211017E+03  0.80541064861E+02 0.  0.
        -13    1    4    4    0    0  0.10569050637E+02  0.62480213708E+02  0.48698592846E+02  0.79918926930E+02  0.00000000000E+00 0.  1.
         14    1    4    4    0    0 -0.44244901473E+01 -0.64943258590E+00 -0.24284880543E+02  0.24693183245E+02  0.00000000000E+00 0. -1.
        -11    1    3    3    0    0 -0.36994387291E+02  0.22656066606E+02 -0.20228930712E+03  0.20688848644E+03  0.00000000000E+00 0.  1.
         11    1    3    3    0    0 -0.24650306207E+01 -0.58033551585E+02 -0.14282013723E+03  0.15418028760E+03  0.00000000000E+00 0. -1.
          1    1    1    2  501    0  0.33314857422E+02 -0.26453296143E+02 -0.13661232728E+02  0.44679815147E+02  0.00000000000E+00 0. -1.
<scales pt_clust_5="13000.00000" pt_clust_6="13000.00000" pt_clust_7="13000.00000" pt_clust_8="13000.00000" pt_clust_9="42.54006"></scales>
<clustering>
<clus scale="   42.540">  1  9  2 -1</clus>
<clus scale="   80.541">  5  6 -1 -1</clus>
<clus scale="   91.987">  7  8 -1 -1</clus>
<clus scale="   96.094">  1  5  2 -1</clus>
<clus scale="   42.540">  1  5  2 -1</clus>
</clustering>
</event>
<event>
 9    2  0.3745229E-005  0.9685235E+02  0.7546771E-02  0.1292263E+00
         21   -1    0    0  501  502  0.00000000000E+00  0.00000000000E+00  0.63727239970E+02  0.63727239970E+02  0.00000000000E+00 0.  1.
          2   -1    0    0  502    0 -0.00000000000E+00 -0.00000000000E+00 -0.23616066535E+03  0.23616066535E+03  0.00000000000E+00 0. -1.
         23    2    1    2    0    0  0.24442829287E+02 -0.21681657853E+02 -0.10460429210E+03  0.14286401501E+03  0.91654365236E+02 0.  0.
         24    2    1    2    0    0 -0.39761922450E+02 -0.19947900642E+02 -0.62485656869E+02  0.11234450473E+03  0.82084719725E+02 0.  0.
        -13    1    4    4    0    0  0.19007691730E+02 -0.68403673232E+01  0.60764686375E+01  0.21095175778E+02  0.00000000000E+00 0.  1.
         14    1    4    4    0    0 -0.58769614180E+02 -0.13107533319E+02 -0.68562125506E+02  0.91249328954E+02  0.00000000000E+00 0. -1.
        -11    1    3    3    0    0  0.55102607854E+02 -0.33432533626E+02 -0.68004766309E+02  0.93694609972E+02  0.00000000000E+00 0. -1.
         11    1    3    3    0    0 -0.30659778567E+02  0.11750875774E+02 -0.36599525791E+02  0.49169405033E+02  0.00000000000E+00 0.  1.
          1    1    1    2  501    0  0.15319093163E+02  0.41629558495E+02 -0.53434764108E+01  0.44679385582E+02  0.00000000000E+00 0. -1.
<scales pt_clust_5="13000.00000" pt_clust_6="13000.00000" pt_clust_7="13000.00000" pt_clust_8="13000.00000" pt_clust_9="44.35871"></scales>
<clustering>
<clus scale="   44.359">  1  9  2 -1</clus>
<clus scale="   82.085">  5  6 -1 -1</clus>
<clus scale="   87.851">  1  5  2 -1</clus>
<clus scale="   91.654">  7  8 -1 -1</clus>
<clus scale="   44.359">  1  5  2 -1</clus>
</clustering>
</event>
<event>
 9    2  0.3745229E-005  0.1018509E+03  0.7546771E-02  0.1281758E+00
         21   -1    0    0  501  502  0.00000000000E+00  0.00000000000E+00  0.23889066099E+03  0.23889066099E+03  0.00000000000E+00 0. -1.
          2   -1    0    0  502    0 -0.00000000000E+00 -0.00000000000E+00 -0.20562762096E+03  0.20562762096E+03  0.00000000000E+00 0. -1.
         23    2    1    2    0    0 -0.25512789876E+02  0.44797958322E+02 -0.14825565939E+03  0.18146912172E+03  0.91068886461E+02 0.  0.
         24    2    1    2    0    0  0.51061035209E+02  0.96188522472E+01  0.29885205246E+02  0.99933806374E+02  0.79961794180E+02 0.  0.
        -13    1    4    4    0    0 -0.19547862997E+02 -0.79110704686E+01  0.14445142637E+02  0.25561027552E+02  0.00000000000E+00 0.  1.
         14    1    4    4    0    0  0.70608898206E+02  0.17529922716E+02  0.15440062609E+02  0.74372778822E+02  0.00000000000E+00 0. -1.
        -11    1    3    3    0    0 -0.15563270439E+02  0.67693507357E+02 -0.13797251028E+03  0.15447019104E+03  0.00000000000E+00 0. -1.
         11    1    3    3    0    0 -0.99495194367E+01 -0.22895549035E+02 -0.10283149103E+02  0.26998930685E+02  0.00000000000E+00 0.  1.
          1    1    1    2  501    0 -0.25548245334E+02 -0.54416810569E+02  0.15163349416E+03  0.16311535386E+03  0.00000000000E+00 0. -1.
<scales pt_clust_5="13000.00000" pt_clust_6="13000.00000" pt_clust_7="13000.00000" pt_clust_8="13000.00000" pt_clust_9="60.11574"></scales>
<clustering>
<clus scale="   60.116">  1  9  2 -1</clus>
<clus scale="   79.962">  5  6 -1 -1</clus>
<clus scale="   91.069">  7  8 -1 -1</clus>
<clus scale="   92.054">  1  5  2 -1</clus>
<clus scale="   60.116">  1  5  2 -1</clus>
</clustering>
</event>
<event>
 9    2  0.3745229E-005  0.9301602E+02  0.7546771E-02  0.1303289E+00
          2   -1    0    0  502    0 -0.00000000000E+00  0.00000000000E+00  0.17337772618E+03  0.17337772618E+03  0.00000000000E+00 0. -1.
         21   -1    0    0  501  502  0.00000000000E+00 -0.00000000000E+00 -0.71181005469E+02  0.71181005469E+02  0.00000000000E+00 0.  1.
         23    2    1    2    0    0  0.17524188373E+02 -0.56007410612E+01  0.10054104481E+03  0.13782339984E+03  0.92457138032E+02 0.  0.
         24    2    1    2    0    0  0.74290660770E+01 -0.19166334378E+01 -0.34580012026E+00  0.80597586439E+02  0.80230834818E+02 0.  0.
        -11    1    4    4    0    0 -0.33516527302E+02 -0.99882215711E+01 -0.12484191927E+02  0.37134582542E+02  0.00000000000E+00 0.  1.
         12    1    4    4    0    0  0.40945593379E+02  0.80715881333E+01  0.12138391807E+02  0.43463003897E+02  0.00000000000E+00 0. -1.
        -13    1    3    3    0    0 -0.11013060963E+02 -0.37494478833E+02  0.82677682946E+02  0.91447923498E+02  0.00000000000E+00 0.  1.
         13    1    3    3    0    0  0.28537249336E+02  0.31893737772E+02  0.17863361862E+02  0.46375476339E+02  0.00000000000E+00 0. -1.
          1    1    1    2  501    0 -0.24953254450E+02  0.75173744990E+01  0.20014760255E+01  0.26137745375E+02  0.00000000000E+00 0. -1.
<scales pt_clust_5="13000.00000" pt_clust_6="13000.00000" pt_clust_7="13000.00000" pt_clust_8="13000.00000" pt_clust_9="26.06100"></scales>
<clustering>
<clus scale="   26.061">  2  9  1 -1</clus>
<clus scale="   80.231">  5  6 -1 -1</clus>
<clus scale="   80.874">  2  5  1 -1</clus>
<clus scale="   92.457">  7  8 -1 -1</clus>
<clus scale="   26.061">  2  5  1 -1</clus>
</clustering>
</event>
<event>
 9    2  0.3745229E-005  0.1034378E+03  0.7546771E-02  0.1277403E+00
         -1   -1    0    0    0  501 -0.00000000000E+00  0.00000000000E+00  0.64692736276E+02  0.64692736276E+02  0.00000000000E+00 0.  1.
         21   -1    0    0  501  502  0.00000000000E+00 -0.00000000000E+00 -0.31269827429E+03  0.31269827429E+03  0.00000000000E+00 0.  1.
         23    2    1    2    0    0  0.60280641023E+01  0.14429684259E+02 -0.83507224074E+02  0.12451563396E+03  0.91028200488E+02 0.  0.
         24    2    1    2    0    0 -0.27870090781E+01 -0.81844979869E+02 -0.65447195358E+02  0.13301524723E+03  0.81874003612E+02 0.  0.
        -13    1    4    4    0    0  0.12533508406E+00 -0.72159118269E+02 -0.56625263394E+01  0.72381062874E+02  0.00000000000E+00 0.  1.
         14    1    4    4    0    0 -0.29123441621E+01 -0.96858616000E+01 -0.59784669019E+02  0.60634184361E+02  0.00000000000E+00 0. -1.
        -11    1    3    3    0    0 -0.26819418584E+02  0.38395036032E+02 -0.64295282809E+02  0.79544600046E+02  0.00000000000E+00 0.  1.
         11    1    3    3    0    0  0.32847482686E+02 -0.23965351773E+02 -0.19211941266E+02  0.44971033918E+02  0.00000000000E+00 0. -1.
         -2    1    1    2    0  502 -0.32410550242E+01  0.67415295610E+02 -0.99051118586E+02  0.11986012937E+03  0.00000000000E+00 0.  1.
<scales pt_clust_5="13000.00000" pt_clust_6="13000.00000" pt_clust_7="13000.00000" pt_clust_8="13000.00000" pt_clust_9="67.49316"></scales>
<clustering>
<clus scale="   67.493">  2  9  1 -1</clus>
<clus scale="   81.874">  5  6 -1 -1</clus>
<clus scale="   91.028">  7  8 -1 -1</clus>
<clus scale="   95.481">  2  5  1 -1</clus>
<clus scale="   67.493">  2  5  1 -1</clus>
</clustering>
</event>
<event>
 9    2  0.3745229E-005  0.1725893E+03  0.7546771E-02  0.1207320E+00
         21   -1    0    0  501  502  0.00000000000E+00  0.00000000000E+00  0.12586786549E+04  0.12586786549E+04  0.00000000000E+00 0. -1.
         -3   -1    0    0    0  501 -0.00000000000E+00 -0.00000000000E+00 -0.33014477672E+02  0.33014477672E+02  0.00000000000E+00 0.  1.
         24    2    1    2    0    0 -0.19376572223E+02  0.22482017609E+02  0.31470520305E+03  0.32596943505E+03  0.79597833463E+02 0.  0.
         23    2    1    2    0    0 -0.12259961613E+03 -0.73659620685E+02  0.48490292478E+03  0.51372796486E+03  0.91264285599E+02 0.  0.
        -11    1    3    3    0    0  0.11253640753E+02 -0.17640971574E+02  0.28555317494E+02  0.35401334233E+02  0.00000000000E+00 0.  1.
         12    1    3    3    0    0 -0.30630212976E+02  0.40122989183E+02  0.28614988556E+03  0.29056810082E+03  0.00000000000E+00 0. -1.
        -13    1    4    4    0    0 -0.81810735369E+02  0.34421348614E+01  0.25556748460E+03  0.26836464726E+03  0.00000000000E+00 0.  1.
         13    1    4    4    0    0 -0.40788880760E+02 -0.77101755546E+02  0.22933544018E+03  0.24536331760E+03  0.00000000000E+00 0. -1.
         -4    1    1    2    0  502  0.14197618835E+03  0.51177603076E+02  0.42605604939E+03  0.45199573265E+03  0.00000000000E+00 0.  1.
<scales pt_clust_5="13000.00000" pt_clust_6="13000.00000" pt_clust_7="13000.00000" pt_clust_8="13000.00000" pt_clust_9="146.48522"></scales>
<clustering>
<clus scale="   79.598">  5  6 -1 -1</clus>
<clus scale="   84.951">  2  5  1 -1</clus>
<clus scale="   91.264">  7  8 -1 -1</clus>
<clus scale="  146.485">  1  9  2 -1</clus>
<clus scale="  146.485">  1  5  2 -1</clus>
</clustering>
</event>
<event>
 9    2  0.3745229E-005  0.2625278E+03  0.7546771E-02  0.1105659E+00
         21   -1    0    0  501  502  0.00000000000E+00  0.00000000000E+00  0.80166360697E+03  0.80166360697E+03  0.00000000000E+00 0.  1.
          4   -1    0    0  502    0 -0.00000000000E+00 -0.00000000000E+00 -0.33338954873E+03  0.33338954873E+03  0.00000000000E+00 0. -1.
         23    2    1    2    0    0 -0.19366971443E+03  0.16269348815E+03 -0.23895032193E+03  0.35973645348E+03  0.91301315665E+02 0.  0.
         24    2    1    2    0    0  0.18870085158E+03 -0.64690564702E+02  0.48514741726E+03  0.53252576322E+03  0.91775767315E+02 0.  0.
        -11    1    4    4    0    0  0.17943515537E+03 -0.30774477161E+02  0.37412456405E+03  0.41606878379E+03  0.00000000000E+00 0.  1.
         12    1    4    4    0    0  0.92656962183E+01 -0.33916087541E+02  0.11102285322E+03  0.11645697942E+03  0.00000000000E+00 0. -1.
        -11    1    3    3    0    0 -0.15228076175E+03  0.11827793059E+03 -0.12258699054E+03  0.22848778855E+03  0.00000000000E+00 0. -1.
         11    1    3    3    0    0 -0.41388952681E+02  0.44415557557E+02 -0.11636333139E+03  0.13124866494E+03  0.00000000000E+00 0.  1.
          3    1    1    2  501    0  0.49688628445E+01 -0.98002923448E+02  0.22207696292E+03  0.24279093900E+03  0.00000000000E+00 0. -1.
<scales pt_clust_5="13000.00000" pt_clust_6="13000.00000" pt_clust_7="13000.00000" pt_clust_8="13000.00000" pt_clust_9="98.12881"></scales>
<clustering>
<clus scale="   91.301">  7  8 -1 -1</clus>
<clus scale="   91.776">  5  6 -1 -1</clus>
<clus scale="   98.129">  1  9  2 -1</clus>
<clus scale="  262.362">  2  7  1 -1</clus>
<clus scale="   98.129">  1  5  2 -1</clus>
</clustering>
</event>
<event>
 9    2  0.3745229E-005  0.1410643E+03  0.7546771E-02  0.1228781E+00
         21   -1    0    0  501  502  0.00000000000E+00  0.00000000000E+00  0.32894123000E+03  0.32894123000E+03  0.00000000000E+00 0. -1.
          2   -1    0    0  502    0 -0.00000000000E+00 -0.00000000000E+00 -0.29961443738E+03  0.29961443738E+03  0.00000000000E+00 0. -1.
         24    2    1    2    0    0 -0.18654693734E+01 -0.57134389411E+02  0.44124553157E+02  0.10838131064E+03  0.80819019264E+02 0.  0.
         23    2    1    2    0    0  0.10619603835E+03  0.84642180851E+02 -0.22860658312E+03  0.28068373308E+03  0.89891550363E+02 0.  0.
        -13    1    3    3    0    0  0.26612698994E+02 -0.60038252526E+02  0.45219151466E+02  0.79734554451E+02  0.00000000000E+00 0.  1.
         14    1    3    3    0    0 -0.28478168367E+02  0.29038631152E+01 -0.10945983096E+01  0.28646756187E+02  0.00000000000E+00 0. -1.
        -13    1    4    4    0    0 -0.73896003927E+01  0.33869324470E+02 -0.27705758394E+02  0.44377318330E+02  0.00000000000E+00 0.  1.
         13    1    4    4    0    0  0.11358563875E+03  0.50772856381E+02 -0.20090082473E+03  0.23630641475E+03  0.00000000000E+00 0. -1.
          1    1    1    2  501    0 -0.10433056898E+03 -0.27507791440E+02  0.21380882258E+03  0.23949062367E+03  0.00000000000E+00 0. -1.
<scales pt_clust_5="13000.00000" pt_clust_6="13000.00000" pt_clust_7="13000.00000" pt_clust_8="13000.00000" pt_clust_9="108.71366"></scales>
<clustering>
<clus scale="   80.819">  5  6 -1 -1</clus>
<clus scale="   89.892">  7  8 -1 -1</clus>
<clus scale="   98.993">  2  5  1 -1</clus>
<clus scale="  108.714">  1  9  2 -1</clus>
<clus scale="  108.714">  1  5  2 -1</clus>
</clustering>
</event>
<event>
 9    2  0.3745229E-005  0.1808191E+03  0.7546771E-02  0.1172434E+00
          2   -1    0    0  502    0 -0.00000000000E+00  0.00000000000E+00  0.39169987208E+03  0.39169987208E+03  0.00000000000E+00 0. -1.
         21   -1    0    0  501  502  0.00000000000E+00 -0.00000000000E+00 -0.19238785465E+03  0.19238785465E+03  0.00000000000E+00 0. -1.
         24    2    1    2    0    0  0.10498015969E+03  0.78739625571E+02  0.70804806418E+02  0.16890071323E+03  0.79330749113E+02 0.  0.
         23    2    1    2    0    0 -0.13121755014E+03 -0.91818308378E+02 -0.73533364633E+02  0.21103058620E+03  0.11609524270E+03 0.  0.
        -11    1    3    3    0    0  0.30728065190E+02  0.72203057221E+02  0.30737052721E+02  0.84274918406E+02  0.00000000000E+00 0.  1.
         12    1    3    3    0    0  0.74252094505E+02  0.65365683504E+01  0.40067753697E+02  0.84625794829E+02  0.00000000000E+00 0. -1.
        -11    1    4    4    0    0 -0.14064507288E+03 -0.56270184166E+02 -0.30679561277E+02  0.15455939193E+03  0.00000000000E+00 0. -1.
         11    1    4    4    0    0  0.94275227436E+01 -0.35548124212E+02 -0.42853803356E+02  0.56471194269E+02  0.00000000000E+00 0.  1.
          1    1    1    2  501    0  0.26237390446E+02  0.13078682807E+02  0.20204057564E+03  0.20415642730E+03  0.00000000000E+00 0. -1.
<scales pt_clust_5="13000.00000" pt_clust_6="13000.00000" pt_clust_7="13000.00000" pt_clust_8="13000.00000" pt_clust_9="29.31644"></scales>
<clustering>
<clus scale="   29.316">  2  9  1 -1</clus>
<clus scale="   79.331">  5  6 -1 -1</clus>
<clus scale="  116.095">  7  8 -1 -1</clus>
<clus scale="  159.721">  1  5  2 -1</clus>
<clus scale="   29.316">  2  5  1 -1</clus>
</clustering>
</event>
<event>
 9    2  0.3745229E-005  0.1453928E+03  0.7546771E-02  0.1218556E+00
         -1   -1    0    0    0  501 -0.00000000000E+00  0.00000000000E+00  0.61697039714E+03  0.61697039714E+03  0.00000000000E+00 0.  1.
         21   -1    0    0  501  502  0.00000000000E+00 -0.00000000000E+00 -0.47200994496E+03  0.47200994496E+03  0.00000000000E+00 0.  1.
         23    2    1    2    0    0 -0.45387387367E+02 -0.41352073593E+02  0.38522007464E+02  0.11835939078E+03  0.93568111045E+02 0.  0.
         24    2    1    2    0    0 -0.38820219837E+02  0.12622315622E+03  0.51857580242E+03  0.54149250506E+03  0.82788740430E+02 0.  0.
        -11    1    4    4    0    0  0.51836801638E+00  0.11052418162E+03  0.41792326776E+03  0.43229124576E+03  0.00000000000E+00 0.  1.
         12    1    4    4    0    0 -0.39338587853E+02  0.15698974605E+02  0.10065253466E+03  0.10920125929E+03  0.00000000000E+00 0. -1.
        -13    1    3    3    0    0 -0.24477189401E+02  0.13411278520E+02 -0.20916028688E+02  0.34878008094E+02  0.00000000000E+00 0.  1.
         13    1    3    3    0    0 -0.20910197966E+02 -0.54763352114E+02  0.59438036152E+02  0.83481382687E+02  0.00000000000E+00 0. -1.
         -2    1    1    2    0  502  0.84207607204E+02 -0.84871082631E+02 -0.41213735771E+03  0.42912844627E+03  0.00000000000E+00 0.  1.
<scales pt_clust_5="13000.00000" pt_clust_6="13000.00000" pt_clust_7="13000.00000" pt_clust_8="13000.00000" pt_clust_9="119.52031"></scales>
<clustering>
<clus scale="   82.789">  5  6 -1 -1</clus>
<clus scale="   93.568">  7  8 -1 -1</clus>
<clus scale="  111.915">  1  7  2 -1</clus>
<clus scale="  119.520">  2  9  1 -1</clus>
<clus scale="  119.520">  2  5  1 -1</clus>
</clustering>
</event>
<event>
 9    2  0.3745229E-005  0.2421917E+03  0.7546771E-02  0.1140598E+00
         21   -1    0    0  501  502  0.00000000000E+00  0.00000000000E+00  0.23905495215E+03  0.23905495215E+03  0.00000000000E+00 0.  1.
          2   -1    0    0  502    0 -0.00000000000E+00 -0.00000000000E+00 -0.12110580377E+04  0.12110580377E+04  0.00000000000E+00 0. -1.
         23    2    1    2    0    0  0.10684034909E+03 -0.10601581509E+02 -0.56135137542E+03  0.57857675039E+03  0.90046852685E+02 0.  0.
         24    2    1    2    0    0  0.87946738531E+02  0.20604237160E+03  0.12478626775E+03  0.26918008229E+03  0.81842631724E+02 0.  0.
        -13    1    4    4    0    0  0.53594772342E+02  0.19089687422E+03  0.11885445545E+03  0.23117179281E+03  0.00000000000E+00 0.  1.
         14    1    4    4    0    0  0.34351966189E+02  0.15145497377E+02  0.59318123051E+01  0.38008289478E+02  0.00000000000E+00 0. -1.
        -13    1    3    3    0    0  0.67764156765E+01 -0.23144577378E+02 -0.34090903625E+02  0.41758603681E+02  0.00000000000E+00 0. -1.
         13    1    3    3    0    0  0.10006393342E+03  0.12542995869E+02 -0.52726047180E+03  0.53681814671E+03  0.00000000000E+00 0.  1.
          1    1    1    2  501    0 -0.19478708762E+03 -0.19544079009E+03 -0.53543797789E+03  0.60235615719E+03  0.00000000000E+00 0. -1.
<scales pt_clust_5="13000.00000" pt_clust_6="13000.00000" pt_clust_7="13000.00000" pt_clust_8="13000.00000" pt_clust_9="227.94444"></scales>
<clustering>
<clus scale="   81.843">  5  6 -1 -1</clus>
<clus scale="   90.047">  7  8 -1 -1</clus>
<clus scale="  140.127">  2  7  1 -1</clus>
<clus scale="  227.944">  1  9  2 -1</clus>
<clus scale="  227.944">  1  5  2 -1</clus>
</clustering>
</event>
<event>
 9    2  0.3745229E-005  0.9557328E+02  0.7546771E-02  0.1296881E+00
         21   -1    0    0  501  502  0.00000000000E+00  0.00000000000E+00  0.75498189421E+02  0.75498189421E+02  0.00000000000E+00 0.  1.
          2   -1    0    0  502    0 -0.00000000000E+00 -0.00000000000E+00 -0.35581457213E+03  0.35581457213E+03  0.00000000000E+00 0. -1.
         24    2    1    2    0    0 -0.18187295759E+02 -0.17729592709E+01 -0.22042120720E+03  0.23524588392E+03  0.80132366773E+02 0.  0.
         23    2    1    2    0    0  0.43652264908E+02 -0.25028876510E+02 -0.97475395775E+02  0.14334993529E+03  0.92281017952E+02 0.  0.
        -13    1    3    3    0    0  0.28488361768E+02 -0.15461017376E+02 -0.10784515586E+03  0.11261086740E+03  0.00000000000E+00 0.  1.
         14    1    3    3    0    0 -0.46675657527E+02  0.13688058105E+02 -0.11257605134E+03  0.12263501651E+03  0.00000000000E+00 0. -1.
        -13    1    4    4    0    0 -0.28825850301E+02 -0.83141144432E+01 -0.35929475509E+02  0.46807919788E+02  0.00000000000E+00 0. -1.
         13    1    4    4    0    0  0.72478115208E+02 -0.16714762067E+02 -0.61545920266E+02  0.96542015498E+02  0.00000000000E+00 0.  1.
          1    1    1    2  501    0 -0.25464969149E+02  0.26801835781E+02  0.37580220267E+02  0.52716942346E+02  0.00000000000E+00 0. -1.
<scales pt_clust_5="13000.00000" pt_clust_6="13000.00000" pt_clust_7="13000.00000" pt_clust_8="13000.00000" pt_clust_9="36.97030"></scales>
<clustering>
<clus scale="   36.970">  1  9  2 -1</clus>
<clus scale="   80.132">  5  6 -1 -1</clus>
<clus scale="   83.903">  2  5  1 -1</clus>
<clus scale="   92.281">  7  8 -1 -1</clus>
<clus scale="   36.970">  1  5  2 -1</clus>
</clustering>
</event>
<event>
 9    2  0.3745229E-005  0.2404652E+03  0.7546771E-02  0.1150619E+00
         -3   -1    0    0    0  501 -0.00000000000E+00  0.00000000000E+00  0.70860909146E+02  0.70860909146E+02  0.00000000000E+00 0.  1.
         21   -1    0    0  501  502  0.00000000000E+00 -0.00000000000E+00 -0.15161172090E+04  0.15161172090E+04  0.00000000000E+00 0.  1.
         23    2    1    2    0    0  0.42816464185E+02  0.50814589439E+02 -0.14300378327E+03  0.18207337596E+03  0.91023404133E+02 0.  0.
         24    2    1    2    0    0 -0.21838267551E+03  0.91698747453E+02 -0.37523112366E+03  0.45070234820E+03  0.78959212624E+02 0.  0.
        -13    1    4    4    0    0 -0.12603965572E+03  0.17909938088E+02 -0.15340732377E+03  0.19935036414E+03  0.00000000000E+00 0.  1.
         14    1    4    4    0    0 -0.92343019792E+02  0.73788809365E+02 -0.22182379989E+03  0.25135198406E+03  0.00000000000E+00 0. -1.
        -11    1    3    3    0    0  0.31029933626E+02 -0.21528566175E+02 -0.63940916222E+02  0.74261542602E+02  0.00000000000E+00 0. -1.
         11    1    3    3    0    0  0.11786530559E+02  0.72343155614E+02 -0.79062867044E+02  0.10781183336E+03  0.00000000000E+00 0.  1.
         -4    1    1    2    0  502  0.17556621133E+03 -0.14251333689E+03 -0.92702139293E+03  0.95420239399E+03  0.00000000000E+00 0.  1.
<scales pt_clust_5="13000.00000" pt_clust_6="13000.00000" pt_clust_7="13000.00000" pt_clust_8="13000.00000" pt_clust_9="227.13200"></scales>
<clustering>
<clus scale="   78.959">  5  6 -1 -1</clus>
<clus scale="   91.023">  7  8 -1 -1</clus>
<clus scale="  112.697">  1  7  2 -1</clus>
<clus scale="  227.132">  2  9  1 -1</clus>
<clus scale="  227.132">  2  5  1 -1</clus>
</clustering>
</event>
<event>
 9    2  0.3745229E-005  0.1009724E+03  0.7546771E-02  0.1289355E+00
         -3   -1    0    0    0  501 -0.00000000000E+00  0.00000000000E+00  0.28835314733E+03  0.28835314733E+03  0.00000000000E+00 0.  1.
         21   -1    0    0  501  502  0.00000000000E+00 -0.00000000000E+00 -0.59640651578E+02  0.59640651578E+02  0.00000000000E+00 0.  1.
         24    2    1    2    0    0 -0.10579612594E+02 -0.83101080350E+01  0.13281664005E+03  0.15467720720E+03  0.78126771697E+02 0.  0.
         23    2    1    2    0    0  0.35651632855E+02  0.29773560721E+02  0.11261073942E+03  0.15632100632E+03  0.97967211565E+02 0.  0.
        -13    1    3    3    0    0  0.26854062711E+02 -0.26435795845E+02  0.62496742973E+02  0.72978317795E+02  0.00000000000E+00 0.  1.
         14    1    3    3    0    0 -0.37433675305E+02  0.18125687810E+02  0.70319897075E+02  0.81698889405E+02  0.00000000000E+00 0. -1.
        -11    1    4    4    0    0  0.31140431093E+02  0.64367655527E+02  0.60799377100E+02  0.93858860969E+02  0.00000000000E+00 0.  1.
         11    1    4    4    0    0  0.45112017615E+01 -0.34594094806E+02  0.51811362315E+02  0.62462145350E+02  0.00000000000E+00 0. -1.
         -4    1    1    2    0  502 -0.25072020261E+02 -0.21463452686E+02 -0.16714883708E+02  0.36995585392E+02  0.00000000000E+00 0.  1.
<scales pt_clust_5="13000.00000" pt_clust_6="13000.00000" pt_clust_7="13000.00000" pt_clust_8="13000.00000" pt_clust_9="33.00433"></scales>
<clustering>
<clus scale="   33.004">  2  9  1 -1</clus>
<clus scale="   78.127">  5  6 -1 -1</clus>
<clus scale="   81.864">  1  5  2 -1</clus>
<clus scale="   97.967">  7  8 -1 -1</clus>
<clus scale="   33.004">  2  5  1 -1</clus>
</clustering>
</event>
<event>
 9    2  0.3745229E-005  0.1018420E+03  0.7546771E-02  0.1282374E+00
         -1   -1    0    0    0  501 -0.00000000000E+00  0.00000000000E+00  0.18018818849E+03  0.18018818849E+03  0.00000000000E+00 0.  1.
         21   -1    0    0  501  502  0.00000000000E+00 -0.00000000000E+00 -0.66803337676E+02  0.66803337676E+02  0.00000000000E+00 0.  1.
         24    2    1    2    0    0 -0.27339833222E+01  0.49630574420E+01  0.56348567490E+02  0.11524060593E+03  0.10036498191E+03 0.  0.
         23    2    1    2    0    0  0.92316555040E+01 -0.28156064371E+02  0.40189176188E+02  0.10235771808E+03  0.89352924645E+02 0.  0.
        -11    1    3    3    0    0  0.23988863745E+02  0.30752611745E+02 -0.90448668527E+01  0.40037461574E+02  0.00000000000E+00 0.  1.
         12    1    3    3    0    0 -0.26722847067E+02 -0.25789554303E+02  0.65393434343E+02  0.75203144360E+02  0.00000000000E+00 0. -1.
        -13    1    4    4    0    0 -0.39683883804E+02 -0.19917252406E+02  0.16283859976E+02  0.47293463321E+02  0.00000000000E+00 0.  1.
         13    1    4    4    0    0  0.48915539308E+02 -0.82388119654E+01  0.23905316212E+02  0.55064254754E+02  0.00000000000E+00 0. -1.
         -2    1    1    2    0  502 -0.64976721818E+01  0.23193006929E+02  0.16847107137E+02  0.29393202158E+02  0.00000000000E+00 0.  1.
<scales pt_clust_5="13000.00000" pt_clust_6="13000.00000" pt_clust_7="13000.00000" pt_clust_8="13000.00000" pt_clust_9="24.08601"></scales>
<clustering>
<clus scale="   24.086">  2  9  1 -1</clus>
<clus scale="   89.353">  7  8 -1 -1</clus>
<clus scale="   91.009">  2  7  1 -1</clus>
<clus scale="  100.365">  5  6 -1 -1</clus>
<clus scale="   24.086">  2  5  1 -1</clus>
</clustering>
</event>
<event>
 9    2  0.3745229E-005  0.1182992E+03  0.7546771E-02  0.1249676E+00
          4   -1    0    0  502    0 -0.00000000000E+00  0.00000000000E+00  0.29428650810E+03  0.29428650810E+03  0.00000000000E+00 0. -1.
         21   -1    0    0  501  502  0.00000000000E+00 -0.00000000000E+00 -0.15154327501E+03  0.15154327501E+03  0.00000000000E+00 0.  1.
         24    2    1    2    0    0  0.73579504937E+02 -0.57984154842E+02  0.22723251862E+02  0.12647944568E+03  0.81881611150E+02 0.  0.
         23    2    1    2    0    0 -0.63023678563E+02 -0.37801366702E+02 -0.46173371579E+02  0.12723963465E+03  0.93043092164E+02 0.  0.
        -11    1    3    3    0    0  0.54809271800E+02 -0.24685223694E+01 -0.14883464077E+02  0.56847756164E+02  0.00000000000E+00 0.  1.
         12    1    3    3    0    0  0.18770233136E+02 -0.55515632472E+02  0.37606715940E+02  0.69631689514E+02  0.00000000000E+00 0. -1.
        -11    1    4    4    0    0 -0.13639340966E+02  0.20313363788E+02 -0.44704030090E+02  0.50961894359E+02  0.00000000000E+00 0. -1.
         11    1    4    4    0    0 -0.49384337598E+02 -0.58114730490E+02 -0.14693414883E+01  0.76277740294E+02  0.00000000000E+00 0.  1.
          3    1    1    2  501    0 -0.10555826373E+02  0.95785521544E+02  0.16619335280E+03  0.19211070278E+03  0.00000000000E+00 0. -1.
<scales pt_clust_5="13000.00000" pt_clust_6="13000.00000" pt_clust_7="13000.00000" pt_clust_8="13000.00000" pt_clust_9="96.36545"></scales>
<clustering>
<clus scale="   81.882">  5  6 -1 -1</clus>
<clus scale="   93.043">  7  8 -1 -1</clus>
<clus scale="   96.365">  2  9  1 -1</clus>
<clus scale="  109.737">  1  5  2 -1</clus>
<clus scale="   96.365">  2  5  1 -1</clus>
</clustering>
</event>
<event>
 9    2  0.3745229E-005  0.1328792E+03  0.7546771E-02  0.1243630E+00
         21   -1    0    0  501  502  0.00000000000E+00  0.00000000000E+00  0.58676346648E+02  0.58676346648E+02  0.00000000000E+00 0.  1.
          2   -1    0    0  502    0 -0.00000000000E+00 -0.00000000000E+00 -0.56561651363E+03  0.56561651363E+03  0.00000000000E+00 0. -1.
         24    2    1    2    0    0 -0.33031599781E+02 -0.16087415686E+02 -0.29610760526E+02  0.92311601499E+02  0.79339417094E+02 0.  0.
         23    2    1    2    0    0 -0.74013399728E+02  0.40371540214E+02 -0.23659001654E+03  0.26739893798E+03  0.91757896149E+02 0.  0.
        -13    1    3    3    0    0 -0.33886126346E+02 -0.39902293902E+02  0.24002390236E+01  0.52404425049E+02  0.00000000000E+00 0.  1.
         14    1    3    3    0    0  0.85452656524E+00  0.23814878215E+02 -0.32010999549E+02  0.39907176450E+02  0.00000000000E+00 0. -1.
        -13    1    4    4    0    0  0.19668047805E+02 -0.47208383811E+01 -0.31003292702E+02  0.37017868359E+02  0.00000000000E+00 0.  1.
         13    1    4    4    0    0 -0.93681447533E+02  0.45092378596E+02 -0.20558672384E+03  0.23038106962E+03  0.00000000000E+00 0. -1.
          1    1    1    2  501    0  0.10704499951E+03 -0.24284124528E+02 -0.24073938992E+03  0.26458232080E+03  0.00000000000E+00 0. -1.
<scales pt_clust_5="13000.00000" pt_clust_6="13000.00000" pt_clust_7="13000.00000" pt_clust_8="13000.00000" pt_clust_9="96.11125"></scales>
<clustering>
<clus scale="   79.339">  5  6 -1 -1</clus>
<clus scale="   87.434">  2  5  1 -1</clus>
<clus scale="   91.758">  7  8 -1 -1</clus>
<clus scale="   96.111">  1  9  2 -1</clus>
<clus scale="   96.111">  1  5  2 -1</clus>
</clustering>
</event>
<event>
 9    2  0.3745229E-005  0.1921525E+03  0.7546771E-02  0.1186796E+00
         -3   -1    0    0    0  501 -0.00000000000E+00  0.00000000000E+00  0.10914474600E+03  0.10914474600E+03  0.00000000000E+00 0.  1.
         21   -1    0    0  501  502  0.00000000000E+00 -0.00000000000E+00 -0.66916901271E+03  0.66916901271E+03  0.00000000000E+00 0. -1.
         23    2    1    2    0    0 -0.39597224970E+02 -0.20638509540E+02 -0.27600322888E+03  0.29233716246E+03  0.85377666287E+02 0.  0.
         24    2    1    2    0    0  0.58280411696E+00  0.18685009287E+03 -0.76583581453E+02  0.21731563189E+03  0.80297833401E+02 0.  0.
        -11    1    4    4    0    0  0.16899974837E+02  0.15337613243E+02 -0.32086886380E+02  0.39375370564E+02  0.00000000000E+00 0.  1.
         12    1    4    4    0    0 -0.16317170720E+02  0.17151247962E+03 -0.44496695073E+02  0.17794026132E+03  0.00000000000E+00 0. -1.
        -13    1    3    3    0    0 -0.10847416697E+02 -0.47470039462E+02 -0.20943247549E+03  0.21501868032E+03  0.00000000000E+00 0. -1.
         13    1    3    3    0    0 -0.28749808274E+02  0.26831529922E+02 -0.66570753396E+02  0.77318482147E+02  0.00000000000E+00 0.  1.
         -4    1    1    2    0  502  0.39014420853E+02 -0.16621158333E+03 -0.20743745637E+03  0.26866096436E+03  0.00000000000E+00 0.  1.
<scales pt_clust_5="13000.00000" pt_clust_6="13000.00000" pt_clust_7="13000.00000" pt_clust_8="13000.00000" pt_clust_9="174.57046"></scales>
<clustering>
<clus scale="   80.298">  5  6 -1 -1</clus>
<clus scale="   85.378">  7  8 -1 -1</clus>
<clus scale="   96.350">  1  7  2 -1</clus>
<clus scale="  174.570">  2  9  1 -1</clus>
<clus scale="  174.570">  2  5  1 -1</clus>
</clustering>
</event>
<event>
 9    2  0.3745229E-005  0.9323382E+02  0.7546771E-02  0.1301912E+00
          2   -1    0    0  502    0 -0.00000000000E+00  0.00000000000E+00  0.33003174763E+03  0.33003174763E+03  0.00000000000E+00 0. -1.
         21   -1    0    0  501  502  0.00000000000E+00 -0.00000000000E+00 -0.64449309457E+02  0.64449309457E+02  0.00000000000E+00 0. -1.
         24    2    1    2    0    0  0.87827625578E+01 -0.13307578398E+02  0.16156083346E+03  0.18119156610E+03  0.80462737677E+02 0.  0.
         23    2    1    2    0    0  0.57754671380E+02  0.31812674874E+02  0.41774856451E+02  0.12031462138E+03  0.91557747552E+02 0.  0.
        -13    1    3    3    0    0 -0.22832678177E+02  0.48410620027E+01  0.10145785438E+02  0.25450030180E+02  0.00000000000E+00 0.  1.
         14    1    3    3    0    0  0.31615440734E+02 -0.18148640401E+02  0.15141504803E+03  0.15574153592E+03  0.00000000000E+00 0. -1.
        -13    1    4    4    0    0  0.66576631365E+02  0.68802444104E+01  0.58608292983E+02  0.88964698693E+02  0.00000000000E+00 0.  1.
         13    1    4    4    0    0 -0.88219599851E+01  0.24932430464E+02 -0.16833436533E+02  0.31349922684E+02  0.00000000000E+00 0. -1.
          1    1    1    2  501    0 -0.66537433938E+02 -0.18505096476E+02  0.62246748258E+02  0.92974869611E+02  0.00000000000E+00 0. -1.
<scales pt_clust_5="13000.00000" pt_clust_6="13000.00000" pt_clust_7="13000.00000" pt_clust_8="13000.00000" pt_clust_9="69.06279"></scales>
<clustering>
<clus scale="   69.063">  2  9  1 -1</clus>
<clus scale="   80.463">  5  6 -1 -1</clus>
<clus scale="   82.365">  1  5  2 -1</clus>
<clus scale="   91.558">  7  8 -1 -1</clus>
<clus scale="   69.063">  2  5  1 -1</clus>
</clustering>
</event>
<event>
 9    2  0.3745229E-005  0.1848946E+03  0.7546771E-02  0.1164183E+00
         21   -1    0    0  501  502  0.00000000000E+00  0.00000000000E+00  0.14023447792E+03  0.14023447792E+03  0.00000000000E+00 0. -1.
          2   -1    0    0  502    0 -0.00000000000E+00 -0.00000000000E+00 -0.14968133359E+04  0.14968133359E+04  0.00000000000E+00 0. -1.
         24    2    1    2    0    0 -0.12438055241E+03  0.11720077055E+03 -0.95722876650E+03  0.97576739353E+03  0.81415922505E+02 0.  0.
         23    2    1    2    0    0  0.17769167480E+03  0.86266338902E+01 -0.46765576388E+03  0.50850517246E+03  0.90701967019E+02 0.  0.
        -11    1    3    3    0    0 -0.16773118116E+02  0.66612359654E+02 -0.28982005921E+03  0.29784930867E+03  0.00000000000E+00 0.  1.
         12    1    3    3    0    0 -0.10760743430E+03  0.50588410897E+02 -0.66740870728E+03  0.67791808487E+03  0.00000000000E+00 0. -1.
        -11    1    4    4    0    0  0.13206469689E+03 -0.20948769674E+02 -0.39969921242E+03  0.42147288824E+03  0.00000000000E+00 0.  1.
         11    1    4    4    0    0  0.45626977909E+02  0.29575403564E+02 -0.67956551459E+02  0.87032284212E+02  0.00000000000E+00 0. -1.
          1    1    1    2  501    0 -0.53311122382E+02 -0.12582740444E+03  0.68305672372E+02  0.15277524785E+03  0.00000000000E+00 0. -1.
<scales pt_clust_5="13000.00000" pt_clust_6="13000.00000" pt_clust_7="13000.00000" pt_clust_8="13000.00000" pt_clust_9="136.65508"></scales>
<clustering>
<clus scale="   81.416">  5  6 -1 -1</clus>
<clus scale="   90.702">  7  8 -1 -1</clus>
<clus scale="  136.655">  1  9  2 -1</clus>
<clus scale="  180.521">  2  5  1 -1</clus>
<clus scale="  136.655">  1  5  2 -1</clus>
</clustering>
</event>
<event>
 9    2  0.3745229E-005  0.9165987E+02  0.7546771E-02  0.1304579E+00
          2   -1    0    0  502    0 -0.00000000000E+00  0.00000000000E+00  0.22496406777E+03  0.22496406777E+03  0.00000000000E+00 0. -1.
         21   -1    0    0  501  502  0.00000000000E+00 -0.00000000000E+00 -0.80017974579E+02  0.80017974579E+02  0.00000000000E+00 0. -1.
         23    2    1    2    0    0 -0.12605556040E+02 -0.15685570098E+02  0.14022640192E+03  0.16757876803E+03  0.89522413661E+02 0.  0.
         24    2    1    2    0    0 -0.25231516200E+02  0.32253228773E+02 -0.15618193976E+02  0.91362412837E+02  0.80163971460E+02 0.  0.
        -13    1    4    4    0    0  0.10288573368E+02  0.28233267208E+02  0.23665020575E+02  0.38249252515E+02  0.00000000000E+00 0.  1.
         14    1    4    4    0    0 -0.35520089568E+02  0.40199615650E+01 -0.39283214551E+02  0.53113160322E+02  0.00000000000E+00 0. -1.
        -13    1    3    3    0    0  0.25116812764E+02 -0.28429034271E+02  0.24412155081E+02  0.45111169223E+02  0.00000000000E+00 0.  1.
         13    1    3    3    0    0 -0.37722368804E+02  0.12743464173E+02  0.11581424684E+03  0.12246759881E+03  0.00000000000E+00 0. -1.
          1    1    1    2  501    0  0.37837072240E+02 -0.16567658674E+02  0.20337885253E+02  0.46040861485E+02  0.00000000000E+00 0. -1.
<scales pt_clust_5="13000.00000" pt_clust_6="13000.00000" pt_clust_7="13000.00000" pt_clust_8="13000.00000" pt_clust_9="41.30534"></scales>
<clustering>
<clus scale="   41.305">  2  9  1 -1</clus>
<clus scale="   80.164">  5  6 -1 -1</clus>
<clus scale="   82.544">  2  5  1 -1</clus>
<clus scale="   89.522">  7  8 -1 -1</clus>
<clus scale="   41.305">  2  5  1 -1</clus>
</clustering>
</event>
<event>
 9    2  0.3745229E-005  0.1197319E+03  0.7546771E-02  0.1246115E+00
         -3   -1    0    0    0  501 -0.00000000000E+00  0.00000000000E+00  0.20440093998E+03  0.20440093998E+03  0.00000000000E+00 0.  1.
         21   -1    0    0  501  502  0.00000000000E+00 -0.00000000000E+00 -0.12916501684E+03  0.12916501684E+03  0.00000000000E+00 0.  1.
         23    2    1    2    0    0 -0.21080195540E+02 -0.50332588302E+02  0.36201947808E+02  0.11218893587E+03  0.91093535545E+02 0.  0.
         24    2    1    2    0    0 -0.88078525848E+01  0.10797105311E+03  0.65377351866E+02  0.15130947115E+03  0.82976089003E+02 0.  0.
        -13    1    4    4    0    0  0.35696238451E+02  0.54400904992E+02  0.43659804518E+02  0.78357248765E+02  0.00000000000E+00 0.  1.
         14    1    4    4    0    0 -0.44504091036E+02  0.53570148118E+02  0.21717547349E+02  0.72952222387E+02  0.00000000000E+00 0. -1.
        -11    1    3    3    0    0 -0.49132750802E+02 -0.17297865089E+02 -0.50794065685E+01  0.52335874017E+02  0.00000000000E+00 0.  1.
         11    1    3    3    0    0  0.28052555262E+02 -0.33034723213E+02  0.41281354377E+02  0.59853061857E+02  0.00000000000E+00 0. -1.
         -4    1    1    2    0  502  0.29888048125E+02 -0.57638464809E+02 -0.26343376532E+02  0.70067549788E+02  0.00000000000E+00 0.  1.
<scales pt_clust_5="13000.00000" pt_clust_6="13000.00000" pt_clust_7="13000.00000" pt_clust_8="13000.00000" pt_clust_9="64.92679"></scales>
<clustering>
<clus scale="   64.927">  2  9  1 -1</clus>
<clus scale="   82.976">  5  6 -1 -1</clus>
<clus scale="   91.094">  7  8 -1 -1</clus>
<clus scale="  113.678">  2  5  1 -1</clus>
<clus scale="   64.927">  2  5  1 -1</clus>
</clustering>
</event>
<event>
 9    2  0.3745229E-005  0.9659055E+02  0.7546771E-02  0.1302454E+00
         21   -1    0    0  501  502  0.00000000000E+00  0.00000000000E+00  0.86304306964E+02  0.86304306964E+02  0.00000000000E+00 0. -1.
         -1   -1    0    0    0  501 -0.00000000000E+00 -0.00000000000E+00 -0.24769070333E+03  0.24769070333E+03  0.00000000000E+00 0.  1.
         23    2    1    2    0    0 -0.50915575181E+01  0.19508807422E+02 -0.19659356128E+03  0.21934339823E+03  0.95162915486E+02 0.  0.
         24    2    1    2    0    0  0.19438795824E+02  0.38876653530E+01  0.57201693122E+01  0.74368599586E+02  0.71449195534E+02 0.  0.
        -11    1    4    4    0    0  0.13935031664E+02  0.31906031734E+02 -0.16171269771E+02  0.38388669351E+02  0.00000000000E+00 0.  1.
         12    1    4    4    0    0  0.55037641604E+01 -0.28018366381E+02  0.21891439083E+02  0.35979930235E+02  0.00000000000E+00 0. -1.
        -11    1    3    3    0    0 -0.26232410187E+02 -0.23966802656E+02 -0.14219798847E+03  0.14657017056E+03  0.00000000000E+00 0. -1.
         11    1    3    3    0    0  0.21140852668E+02  0.43475610078E+02 -0.54395572806E+02  0.72773227661E+02  0.00000000000E+00 0.  1.
         -2    1    1    2    0  502 -0.14347238306E+02 -0.23396472775E+02  0.29486995599E+02  0.40283012484E+02  0.00000000000E+00 0.  1.
<scales pt_clust_5="13000.00000" pt_clust_6="13000.00000" pt_clust_7="13000.00000" pt_clust_8="13000.00000" pt_clust_9="27.44519"></scales>
<clustering>
<clus scale="   27.445">  1  9  2 -1</clus>
<clus scale="   71.449">  5  6 -1 -1</clus>
<clus scale="   73.340">  1  5  2 -1</clus>
<clus scale="   95.163">  7  8 -1 -1</clus>
<clus scale="   27.445">  1  5  2 -1</clus>
</clustering>
</event>
<event>
 9    2  0.3745229E-005  0.1075902E+03  0.7546771E-02  0.1269156E+00
         21   -1    0    0  501  502  0.00000000000E+00  0.00000000000E+00  0.31480676047E+02  0.31480676047E+02  0.00000000000E+00 0.  1.
          2   -1    0    0  502    0 -0.00000000000E+00 -0.00000000000E+00 -0.10446445395E+04  0.10446445395E+04  0.00000000000E+00 0. -1.
         24    2    1    2    0    0 -0.11346436014E+02  0.56180592563E+02 -0.83979984056E+03  0.84550198478E+03  0.79528821683E+02 0.  0.
         23    2    1    2    0    0  0.37634255053E+02 -0.72421805568E+02 -0.13563092960E+03  0.18185220699E+03  0.89516596503E+02 0.  0.
        -13    1    3    3    0    0  0.14956542948E+02  0.14946921339E+02 -0.51302265349E+02  0.55489017512E+02  0.00000000000E+00 0.  1.
         14    1    3    3    0    0 -0.26302978962E+02  0.41233671224E+02 -0.78849757521E+03  0.79001296727E+03  0.00000000000E+00 0. -1.
        -13    1    4    4    0    0 -0.14868740396E+02 -0.39357909228E+02 -0.10404270312E+03  0.11222748563E+03  0.00000000000E+00 0. -1.
         13    1    4    4    0    0  0.52502995448E+02 -0.33063896339E+02 -0.31588226482E+02  0.69624721360E+02  0.00000000000E+00 0.  1.
          1    1    1    2  501    0 -0.26287819039E+02  0.16241213005E+02 -0.37733093283E+02  0.48771023758E+02  0.00000000000E+00 0. -1.
<scales pt_clust_5="13000.00000" pt_clust_6="13000.00000" pt_clust_7="13000.00000" pt_clust_8="13000.00000" pt_clust_9="30.90027"></scales>
<clustering>
<clus scale="   30.900">  1  9  2 -1</clus>
<clus scale="   79.529">  5  6 -1 -1</clus>
<clus scale="   89.517">  7  8 -1 -1</clus>
<clus scale="   99.435">  2  5  1 -1</clus>
<clus scale="   30.900">  1  5  2 -1</clus>
</clustering>
</event>
<event>
 9    2  0.3745229E-005  0.1159028E+03  0.7546771E-02  0.1254055E+00
         21   -1    0    0  501  502  0.00000000000E+00  0.00000000000E+00  0.25445073606E+03  0.25445073606E+03  0.00000000000E+00 0.  1.
          2   -1    0    0  502    0 -0.00000000000E+00 -0.00000000000E+00 -0.23896091928E+03  0.23896091928E+03  0.00000000000E+00 0. -1.
         23    2    1    2    0    0  0.63683315376E+02  0.26884449677E+02 -0.20175722541E+03  0.23221535953E+03  0.91867605309E+02 0.  0.
         24    2    1    2    0    0 -0.81915419468E+02 -0.40993846756E+02  0.18703829836E+03  0.22319559964E+03  0.80264059382E+02 0.  0.
        -13    1    4    4    0    0 -0.37174977790E+02  0.14665535624E+02  0.11506003523E+03  0.12180258049E+03  0.00000000000E+00 0.  1.
         14    1    4    4    0    0 -0.44740441678E+02 -0.55659382380E+02  0.71978263132E+02  0.10139301915E+03  0.00000000000E+00 0. -1.
        -11    1    3    3    0    0  0.85020609451E+02  0.18295121202E+02 -0.18270950711E+03  0.20235112918E+03  0.00000000000E+00 0. -1.
         11    1    3    3    0    0 -0.21337294076E+02  0.85893284749E+01 -0.19047718300E+02  0.29864230352E+02  0.00000000000E+00 0.  1.
          1    1    1    2  501    0  0.18232104093E+02  0.14109397079E+02  0.30208743834E+02  0.38000696172E+02  0.00000000000E+00 0. -1.
<scales pt_clust_5="13000.00000" pt_clust_6="13000.00000" pt_clust_7="13000.00000" pt_clust_8="13000.00000" pt_clust_9="23.05395"></scales>
<clustering>
<clus scale="   23.054">  1  9  2 -1</clus>
<clus scale="   80.264">  5  6 -1 -1</clus>
<clus scale="   91.868">  7  8 -1 -1</clus>
<clus scale="  106.940">  1  5  2 -1</clus>
<clus scale="   23.054">  1  5  2 -1</clus>
</clustering>
</event>
<event>
 9    2  0.3745229E-005  0.1531245E+03  0.7546771E-02  0.1198846E+00
          4   -1    0    0  502    0 -0.00000000000E+00  0.00000000000E+00  0.37796658940E+03  0.37796658940E+03  0.00000000000E+00 0. -1.
         21   -1    0    0  501  502  0.00000000000E+00 -0.00000000000E+00 -0.77176125026E+03  0.77176125026E+03  0.00000000000E+00 0.  1.
         23    2    1    2    0    0  0.12201576620E+03 -0.18466122910E+02  0.35331462973E+03  0.38539436632E+03  0.92025785046E+02 0.  0.
         24    2    1    2    0    0 -0.86097201772E+02  0.30175973617E+02 -0.50766031275E+03  0.52192250647E+03  0.79754574033E+02 0.  0.
        -13    1    4    4    0    0 -0.77850973333E+02  0.43359238888E+02 -0.28239529883E+03  0.29612143192E+03  0.00000000000E+00 0.  1.
         14    1    4    4    0    0 -0.82462284389E+01 -0.13183265271E+02 -0.22526501393E+03  0.22580107455E+03  0.00000000000E+00 0. -1.
        -11    1    3    3    0    0  0.79891294010E+02 -0.33675662710E+02  0.31416719142E+03  0.32591056025E+03  0.00000000000E+00 0. -1.
         11    1    3    3    0    0  0.42124472189E+02  0.15209539800E+02  0.39147438304E+02  0.59483806064E+02  0.00000000000E+00 0.  1.
          3    1    1    2  501    0 -0.35918564427E+02 -0.11709850707E+02 -0.23944897784E+03  0.24241096687E+03  0.00000000000E+00 0. -1.
<scales pt_clust_5="13000.00000" pt_clust_6="13000.00000" pt_clust_7="13000.00000" pt_clust_8="13000.00000" pt_clust_9="37.77915"></scales>
<clustering>
<clus scale="   37.779">  2  9  1 -1</clus>
<clus scale="   79.755">  5  6 -1 -1</clus>
<clus scale="   92.026">  7  8 -1 -1</clus>
<clus scale="  146.079">  2  5  1 -1</clus>
<clus scale="   37.779">  2  5  1 -1</clus>
</clustering>
</event>
<event>
 9    2  0.3745229E-005  0.1024632E+03  0.7546771E-02  0.1281411E+00
         21   -1    0    0  501  502  0.00000000000E+00  0.00000000000E+00  0.58466145208E+02  0.58466145208E+02  0.00000000000E+00 0.  1.
         -1   -1    0    0    0  501 -0.00000000000E+00 -0.00000000000E+00 -0.35443545037E+03  0.35443545037E+03  0.00000000000E+00 0.  1.
         23    2    1    2    0    0 -0.38033580583E+02  0.43286541934E+02 -0.23579244813E+03  0.26027924002E+03  0.93951722833E+02 0.  0.
         24    2    1    2    0    0  0.19173420514E+02  0.42998185534E+01 -0.57221823136E+02  0.10134955997E+03  0.81309825785E+02 0.  0.
        -13    1    4    4    0    0 -0.25012743648E+02  0.18070849089E+02 -0.44817672404E+01  0.31181391393E+02  0.00000000000E+00 0.  1.
         14    1    4    4    0    0  0.44186164163E+02 -0.13771030536E+02 -0.52740055896E+02  0.70168168576E+02  0.00000000000E+00 0. -1.
        -11    1    3    3    0    0 -0.68637264471E+02  0.39974906286E+02 -0.16916569744E+03  0.18688525998E+03  0.00000000000E+00 0.  1.
         11    1    3    3    0    0  0.30603683888E+02  0.33116356473E+01 -0.66626750695E+02  0.73393980042E+02  0.00000000000E+00 0. -1.
         -2    1    1    2    0  502  0.18860160069E+02 -0.47586360487E+02 -0.29550338921E+01  0.51272795589E+02  0.00000000000E+00 0.  1.
<scales pt_clust_5="13000.00000" pt_clust_6="13000.00000" pt_clust_7="13000.00000" pt_clust_8="13000.00000" pt_clust_9="51.18757"></scales>
<clustering>
<clus scale="   51.188">  1  9  2 -1</clus>
<clus scale="   81.310">  5  6 -1 -1</clus>
<clus scale="   91.011">  1  5  2 -1</clus>
<clus scale="   93.952">  7  8 -1 -1</clus>
<clus scale="   51.188">  1  5  2 -1</clus>
</clustering>
</event>
<event>
 9    2  0.3745229E-005  0.1611860E+03  0.7546771E-02  0.1206235E+00
         21   -1    0    0  501  502  0.00000000000E+00  0.00000000000E+00  0.34332826005E+03  0.34332826005E+03  0.00000000000E+00 0. -1.
          2   -1    0    0  502    0 -0.00000000000E+00 -0.00000000000E+00 -0.21794702805E+03  0.21794702805E+03  0.00000000000E+00 0. -1.
         24    2    1    2    0    0  0.63627300357E+02 -0.34493710394E+02 -0.17171155424E+02  0.10811525011E+03  0.78458965843E+02 0.  0.
         23    2    1    2    0    0  0.11739520028E+03  0.36428870258E+02  0.20945381436E+03  0.26016083719E+03  0.93295579867E+02 0.  0.
        -13    1    3    3    0    0  0.10280922899E+02 -0.50046677085E+02 -0.60855246760E+01  0.51452899564E+02  0.00000000000E+00 0.  1.
         14    1    3    3    0    0  0.53346377458E+02  0.15552966692E+02 -0.11085630748E+02  0.56662350550E+02  0.00000000000E+00 0. -1.
        -13    1    4    4    0    0  0.36049057703E+02 -0.31746733725E+02  0.60175082457E+02  0.76996299990E+02  0.00000000000E+00 0.  1.
         13    1    4    4    0    0  0.81346142575E+02  0.68175603983E+02  0.14927873190E+03  0.18316453720E+03  0.00000000000E+00 0. -1.
          1    1    1    2  501    0 -0.18102250063E+03 -0.19351598644E+01 -0.66901426935E+02  0.19299920079E+03  0.00000000000E+00 0. -1.
<scales pt_clust_5="13000.00000" pt_clust_6="13000.00000" pt_clust_7="13000.00000" pt_clust_8="13000.00000" pt_clust_9="131.44149"></scales>
<clustering>
<clus scale="   78.459">  5  6 -1 -1</clus>
<clus scale="   93.296">  7  8 -1 -1</clus>
<clus scale="  106.743">  2  5  1 -1</clus>
<clus scale="  131.441">  1  9  2 -1</clus>
<clus scale="  131.441">  1  5  2 -1</clus>
</clustering>
</event>
<event>
 9    2  0.3745229E-005  0.1070204E+03  0.7546771E-02  0.1277697E+00
          2   -1    0    0  502    0 -0.00000000000E+00  0.00000000000E+00  0.40658090135E+03  0.40658090135E+03  0.00000000000E+00 0. -1.
         21   -1    0    0  501  502  0.00000000000E+00 -0.00000000000E+00 -0.37074961695E+02  0.37074961695E+02  0.00000000000E+00 0. -1.
         24    2    1    2    0    0  0.15395560406E+02 -0.19237952899E+01  0.15809767914E+03  0.17803668574E+03  0.80383213734E+02 0.  0.
         23    2    1    2    0    0 -0.58053932352E+02 -0.29022828350E+00  0.15792341807E+03  0.19717016732E+03  0.10279068834E+03 0.  0.
        -11    1    3    3    0    0  0.45448058768E+02  0.12967398259E+02  0.10623921458E+03  0.11627747064E+03  0.00000000000E+00 0.  1.
         12    1    3    3    0    0 -0.30052498362E+02 -0.14891193549E+02  0.51858464557E+02  0.61759215097E+02  0.00000000000E+00 0. -1.
        -13    1    4    4    0    0 -0.24889051948E+02  0.45890908987E+02  0.11379387283E+03  0.12519778723E+03  0.00000000000E+00 0.  1.
         13    1    4    4    0    0 -0.33164880404E+02 -0.46181137271E+02  0.44129545247E+02  0.71972380088E+02  0.00000000000E+00 0. -1.
          1    1    1    2  501    0  0.42658371946E+02  0.22140235734E+01  0.53484842439E+02  0.68449009987E+02  0.00000000000E+00 0. -1.
<scales pt_clust_5="13000.00000" pt_clust_6="13000.00000" pt_clust_7="13000.00000" pt_clust_8="13000.00000" pt_clust_9="42.71579"></scales>
<clustering>
<clus scale="   42.716">  2  9  1 -1</clus>
<clus scale="   80.383">  5  6 -1 -1</clus>
<clus scale="   85.726">  1  5  2 -1</clus>
<clus scale="  102.791">  7  8 -1 -1</clus>
<clus scale="   42.716">  2  5  1 -1</clus>
</clustering>
</event>
<event>
 9    2  0.3745229E-005  0.5052456E+03  0.7546771E-02  0.1064618E+00
         21   -1    0    0  501  502  0.00000000000E+00  0.00000000000E+00  0.28222372582E+03  0.28222372582E+03  0.00000000000E+00 0.  1.
          2   -1    0    0  502    0 -0.00000000000E+00 -0.00000000000E+00 -0.12490257894E+04  0.12490257894E+04  0.00000000000E+00 0. -1.
         24    2    1    2    0    0 -0.10364917405E+02 -0.72624944133E+02  0.19785306957E+02  0.11181321724E+03  0.82030013739E+02 0.  0.
         23    2    1    2    0    0 -0.26831013809E+03  0.45720995949E+03 -0.60998231778E+03  0.81330365049E+03  0.91395419125E+02 0.  0.
        -11    1    3    3    0    0  0.18715291895E+02 -0.18720975441E+02  0.39430319345E+02  0.47491969382E+02  0.00000000000E+00 0.  1.
         12    1    3    3    0    0 -0.29080209301E+02 -0.53903968692E+02 -0.19645012387E+02  0.64321247853E+02  0.00000000000E+00 0. -1.
        -13    1    4    4    0    0 -0.26198127852E+03  0.38653503967E+03 -0.53265258849E+03  0.70835182445E+03  0.00000000000E+00 0.  1.
         13    1    4    4    0    0 -0.63288595648E+01  0.70674919822E+02 -0.77329729298E+02  0.10495182604E+03  0.00000000000E+00 0. -1.
          1    1    1    2  501    0  0.27867505549E+03 -0.38458501536E+03 -0.37660505274E+03  0.60613264748E+03  0.00000000000E+00 0. -1.
<scales pt_clust_5="13000.00000" pt_clust_6="13000.00000" pt_clust_7="13000.00000" pt_clust_8="13000.00000" pt_clust_9="496.91050"></scales>
<clustering>
<clus scale="   82.030">  5  6 -1 -1</clus>
<clus scale="   91.395">  7  8 -1 -1</clus>
<clus scale="  110.049">  2  5  1 -1</clus>
<clus scale="  496.910">  1  9  2 -1</clus>
<clus scale="  496.910">  1  5  2 -1</clus>
</clustering>
</event>
<event>
 9    2  0.3745229E-005  0.1063575E+03  0.7546771E-02  0.1277725E+00
         21   -1    0    0  501  502  0.00000000000E+00  0.00000000000E+00  0.19644324967E+03  0.19644324967E+03  0.00000000000E+00 0.  1.
          2   -1    0    0  502    0 -0.00000000000E+00 -0.00000000000E+00 -0.92173580246E+02  0.92173580246E+02  0.00000000000E+00 0. -1.
         24    2    1    2    0    0  0.18248973276E+02 -0.29514260744E+02  0.25097385485E+02  0.91384093867E+02  0.80728292691E+02 0.  0.
         23    2    1    2    0    0 -0.46473846326E+02 -0.35032489764E+01  0.99504736805E+02  0.14927225183E+03  0.10103920711E+03 0.  0.
        -13    1    3    3    0    0 -0.21835675180E+02 -0.40141765011E+02  0.73806317268E+01  0.46288570225E+02  0.00000000000E+00 0.  1.
         14    1    3    3    0    0  0.40084648456E+02  0.10627504267E+02  0.17716753759E+02  0.45095523642E+02  0.00000000000E+00 0. -1.
        -11    1    4    4    0    0 -0.77443195117E+02 -0.13729795323E+02  0.69691730075E+02  0.10508517017E+03  0.00000000000E+00 0.  1.
         11    1    4    4    0    0  0.30969348790E+02  0.10226546347E+02  0.29813006730E+02  0.44187081653E+02  0.00000000000E+00 0. -1.
          1    1    1    2  501    0  0.28224873051E+02  0.33017509720E+02 -0.20332452871E+02  0.47960484220E+02  0.00000000000E+00 0. -1.
<scales pt_clust_5="13000.00000" pt_clust_6="13000.00000" pt_clust_7="13000.00000" pt_clust_8="13000.00000" pt_clust_9="43.43733"></scales>
<clustering>
<clus scale="   43.437">  1  9  2 -1</clus>
<clus scale="   80.728">  5  6 -1 -1</clus>
<clus scale="   87.293">  2  5  1 -1</clus>
<clus scale="  101.039">  7  8 -1 -1</clus>
<clus scale="   43.437">  1  5  2 -1</clus>
</clustering>
</event>
<event>
 9    2  0.3745229E-005  0.9048358E+02  0.7546771E-02  0.1307321E+00
         21   -1    0    0  501  502  0.00000000000E+00  0.00000000000E+00  0.15937837566E+03  0.15937837566E+03  0.00000000000E+00 0.  1.
          4   -1    0    0  502    0 -0.00000000000E+00 -0.00000000000E+00 -0.16769901392E+03  0.16769901392E+03  0.00000000000E+00 0. -1.
         23    2    1    2    0    0  0.10310640791E+02 -0.66992413886E+01 -0.13364012823E+03  0.16154871048E+03  0.89928376151E+02 0.  0.
         24    2    1    2    0    0  0.45907504057E+01 -0.12127214667E+02  0.10933034669E+03  0.13668184895E+03  0.80997893794E+02 0.  0.
        -11    1    4    4    0    0  0.20752254727E+02 -0.31705270569E+02  0.10407231365E+03  0.11075615887E+03  0.00000000000E+00 0.  1.
         12    1    4    4    0    0 -0.16161504322E+02  0.19578055901E+02  0.52580330433E+01  0.25925690083E+02  0.00000000000E+00 0. -1.
        -13    1    3    3    0    0 -0.13523819742E+02  0.18472489465E+02  0.60323383927E+00  0.22901756668E+02  0.00000000000E+00 0.  1.
         13    1    3    3    0    0  0.23834460533E+02 -0.25171730853E+02 -0.13424336207E+03  0.13864695381E+03  0.00000000000E+00 0. -1.
          3    1    1    2  501    0 -0.14901391196E+02  0.18826456056E+02  0.15989143275E+02  0.28846830153E+02  0.00000000000E+00 0. -1.
<scales pt_clust_5="13000.00000" pt_clust_6="13000.00000" pt_clust_7="13000.00000" pt_clust_8="13000.00000" pt_clust_9="24.01014"></scales>
<clustering>
<clus scale="   24.010">  1  9  2 -1</clus>
<clus scale="   80.998">  5  6 -1 -1</clus>
<clus scale="   81.614">  1  5  2 -1</clus>
<clus scale="   89.928">  7  8 -1 -1</clus>
<clus scale="   24.010">  1  5  2 -1</clus>
</clustering>
</event>
<event>
 9    2  0.3745229E-005  0.1439287E+03  0.7546771E-02  0.1222932E+00
         21   -1    0    0  501  502  0.00000000000E+00  0.00000000000E+00  0.12408740860E+03  0.12408740860E+03  0.00000000000E+00 0.  1.
         -1   -1    0    0    0  501 -0.00000000000E+00 -0.00000000000E+00 -0.30050070407E+03  0.30050070407E+03  0.00000000000E+00 0.  1.
         24    2    1    2    0    0  0.63032468142E+02 -0.21576683776E+02 -0.34569375229E+01  0.10530688561E+03  0.81479717829E+02 0.  0.
         23    2    1    2    0    0  0.71844325885E+02  0.23704570957E+02 -0.13564271145E+03  0.17932199841E+03  0.89632137628E+02 0.  0.
        -13    1    3    3    0    0  0.56058087012E+02 -0.49916197980E+02  0.40556861271E+01  0.75170370028E+02  0.00000000000E+00 0.  1.
         14    1    3    3    0    0  0.69743811296E+01  0.28339514204E+02 -0.75126236501E+01  0.30136515584E+02  0.00000000000E+00 0. -1.
        -13    1    4    4    0    0  0.55494247089E+02  0.96301619103E+01 -0.14518870688E+03  0.15573089637E+03  0.00000000000E+00 0.  1.
         13    1    4    4    0    0  0.16350078796E+02  0.14074409047E+02  0.95459954264E+01  0.23591102037E+02  0.00000000000E+00 0. -1.
         -2    1    1    2    0  502 -0.13487679403E+03 -0.21278871811E+01 -0.37313646494E+02  0.13995922865E+03  0.00000000000E+00 0.  1.
<scales pt_clust_5="13000.00000" pt_clust_6="13000.00000" pt_clust_7="13000.00000" pt_clust_8="13000.00000" pt_clust_9="112.61235"></scales>
<clustering>
<clus scale="   81.480">  5  6 -1 -1</clus>
<clus scale="   89.632">  7  8 -1 -1</clus>
<clus scale="  105.250">  2  5  1 -1</clus>
<clus scale="  112.612">  1  9  2 -1</clus>
<clus scale="  112.612">  1  5  2 -1</clus>
</clustering>
</event>
<event>
 9    2  0.3745229E-005  0.1174687E+03  0.7546771E-02  0.1252478E+00
          2   -1    0    0  502    0 -0.00000000000E+00  0.00000000000E+00  0.51745286643E+03  0.51745286643E+03  0.00000000000E+00 0. -1.
         21   -1    0    0  501  502  0.00000000000E+00 -0.00000000000E+00 -0.90105550156E+02  0.90105550156E+02  0.00000000000E+00 0. -1.
         23    2    1    2    0    0  0.56431622224E+02 -0.19265131943E+00  0.15795046730E+03  0.19225202879E+03  0.93957050575E+02 0.  0.
         24    2    1    2    0    0 -0.11231223517E+03  0.80008958985E+02  0.36898847379E+02  0.16321789814E+03  0.79139659128E+02 0.  0.
        -13    1    4    4    0    0 -0.21030365390E+02 -0.15914590128E+02  0.30799611837E+01  0.26552525460E+02  0.00000000000E+00 0.  1.
         14    1    4    4    0    0 -0.91281869781E+02  0.95923549113E+02  0.33818886196E+02  0.13666537268E+03  0.00000000000E+00 0. -1.
        -13    1    3    3    0    0  0.66003814158E+02  0.26321878560E+02  0.14448145182E+03  0.16101004532E+03  0.00000000000E+00 0. -1.
         13    1    3    3    0    0 -0.95721919345E+01 -0.26514529880E+02  0.13469015481E+02  0.31241983471E+02  0.00000000000E+00 0.  1.
          1    1    1    2  501    0  0.55880612948E+02 -0.79816307665E+02  0.23249800160E+03  0.25208848966E+03  0.00000000000E+00 0. -1.
<scales pt_clust_5="13000.00000" pt_clust_6="13000.00000" pt_clust_7="13000.00000" pt_clust_8="13000.00000" pt_clust_9="97.43354"></scales>
<clustering>
<clus scale="   79.140">  5  6 -1 -1</clus>
<clus scale="   93.957">  7  8 -1 -1</clus>
<clus scale="   97.434">  2  9  1 -1</clus>
<clus scale="  105.991">  2  5  1 -1</clus>
<clus scale="   97.434">  2  5  1 -1</clus>
</clustering>
</event>
<event>
 9    2  0.3745229E-005  0.9773312E+02  0.7546771E-02  0.1292476E+00
          2   -1    0    0  502    0 -0.00000000000E+00  0.00000000000E+00  0.86845417008E+03  0.86845417008E+03  0.00000000000E+00 0. -1.
         21   -1    0    0  501  502  0.00000000000E+00 -0.00000000000E+00 -0.28240614421E+02  0.28240614421E+02  0.00000000000E+00 0. -1.
         24    2    1    2    0    0  0.37763116839E+02 -0.36186161329E+01  0.62930889633E+03  0.63558794593E+03  0.80642436965E+02 0.  0.
         23    2    1    2    0    0  0.13642017950E+02 -0.13289045316E+01  0.17216214915E+03  0.19654719221E+03  0.93824956827E+02 0.  0.
        -11    1    3    3    0    0  0.31440652943E+02  0.20863206891E+02  0.12322419598E+03  0.12887199283E+03  0.00000000000E+00 0.  1.
         12    1    3    3    0    0  0.63224638958E+01 -0.24481823024E+02  0.50608470035E+03  0.50671595311E+03  0.00000000000E+00 0. -1.
        -13    1    4    4    0    0  0.14131626061E+02  0.34755029240E+02  0.14903558922E+03  0.15368546374E+03  0.00000000000E+00 0.  1.
         13    1    4    4    0    0 -0.48960811087E+00 -0.36083933771E+02  0.23126559930E+02  0.42861728462E+02  0.00000000000E+00 0. -1.
          1    1    1    2  501    0 -0.51405134789E+02  0.49475206645E+01  0.38742510183E+02  0.64559646365E+02  0.00000000000E+00 0. -1.
<scales pt_clust_5="13000.00000" pt_clust_6="13000.00000" pt_clust_7="13000.00000" pt_clust_8="13000.00000" pt_clust_9="51.64267"></scales>
<clustering>
<clus scale="   51.643">  2  9  1 -1</clus>
<clus scale="   80.642">  5  6 -1 -1</clus>
<clus scale="   85.158">  1  5  2 -1</clus>
<clus scale="   93.825">  7  8 -1 -1</clus>
<clus scale="   51.643">  2  5  1 -1</clus>
</clustering>
</event>
<event>
 9    2  0.3745229E-005  0.1595336E+03  0.7546771E-02  0.1215099E+00
          2   -1    0    0  502    0 -0.00000000000E+00  0.00000000000E+00  0.22838045699E+03  0.22838045699E+03  0.00000000000E+00 0. -1.
         21   -1    0    0  501  502  0.00000000000E+00 -0.00000000000E+00 -0.19711132492E+03  0.19711132492E+03  0.00000000000E+00 0. -1.
         24    2    1    2    0    0  0.53723329110E+01 -0.43111062129E+02  0.78739717446E+02  0.12043388815E+03  0.80105884139E+02 0.  0.
         23    2    1    2    0    0  0.49987251170E+02 -0.91263347495E+02  0.28430135219E+02  0.14110032333E+03  0.90957708737E+02 0.  0.
        -11    1    3    3    0    0 -0.40680818034E+01 -0.19885850645E+02 -0.13808972883E+02  0.24549624794E+02  0.00000000000E+00 0.  1.
         12    1    3    3    0    0  0.94404147144E+01 -0.23225211484E+02  0.92548690329E+02  0.95884263360E+02  0.00000000000E+00 0. -1.
        -11    1    4    4    0    0  0.62409044592E+02 -0.26940564680E+02 -0.38166704114E+01  0.68082669199E+02  0.00000000000E+00 0.  1.
         11    1    4    4    0    0 -0.12421793422E+02 -0.64322782815E+02  0.32246805630E+02  0.73017654128E+02  0.00000000000E+00 0. -1.
          1    1    1    2  501    0 -0.55359584081E+02  0.13437440962E+03 -0.75900720595E+02  0.16395757042E+03  0.00000000000E+00 0. -1.
<scales pt_clust_5="13000.00000" pt_clust_6="13000.00000" pt_clust_7="13000.00000" pt_clust_8="13000.00000" pt_clust_9="131.06364"></scales>
<clustering>
<clus scale="   80.106">  5  6 -1 -1</clus>
<clus scale="   90.958">  7  8 -1 -1</clus>
<clus scale="   91.128">  1  5  2 -1</clus>
<clus scale="  131.064">  2  9  1 -1</clus>
<clus scale="  131.064">  2  5  1 -1</clus>
</clustering>
</event>
<event>
 9    2  0.3745229E-005  0.1030021E+03  0.7546771E-02  0.1280705E+00
         21   -1    0    0  501  502  0.00000000000E+00  0.00000000000E+00  0.75687928027E+02  0.75687928027E+02  0.00000000000E+00 0. -1.
          2   -1    0    0  502    0 -0.00000000000E+00 -0.00000000000E+00 -0.32618249979E+03  0.32618249979E+03  0.00000000000E+00 0. -1.
         23    2    1    2    0    0  0.26354028311E+02  0.39891989998E+02 -0.25214603462E+03  0.27346594305E+03  0.94446246919E+02 0.  0.
         24    2    1    2    0    0  0.27455173419E+01 -0.25489408141E+02 -0.22596185182E+02  0.87880832952E+02  0.80964223104E+02 0.  0.
        -13    1    4    4    0    0 -0.27351649024E+02 -0.40514799722E+02 -0.30570226944E+01  0.48978639105E+02  0.00000000000E+00 0.  1.
         14    1    4    4    0    0  0.30097166365E+02  0.15025391582E+02 -0.19539162487E+02  0.38902193847E+02  0.00000000000E+00 0. -1.
        -13    1    3    3    0    0  0.35669630380E+02 -0.15264615535E+02 -0.47600667569E+02  0.61409727013E+02  0.00000000000E+00 0.  1.
         13    1    3    3    0    0 -0.93156020689E+01  0.55156605533E+02 -0.20454536705E+03  0.21205621603E+03  0.00000000000E+00 0. -1.
          1    1    1    2  501    0 -0.29099545653E+02 -0.14402581857E+02  0.24247648039E+02  0.40523651819E+02  0.00000000000E+00 0. -1.
<scales pt_clust_5="13000.00000" pt_clust_6="13000.00000" pt_clust_7="13000.00000" pt_clust_8="13000.00000" pt_clust_9="32.46872"></scales>
<clustering>
<clus scale="   32.469">  1  9  2 -1</clus>
<clus scale="   80.964">  5  6 -1 -1</clus>
<clus scale="   90.799">  1  5  2 -1</clus>
<clus scale="   94.446">  7  8 -1 -1</clus>
<clus scale="   32.469">  1  5  2 -1</clus>
</clustering>
</event>
<event>
 9    2  0.3745229E-005  0.9105663E+02  0.7546771E-02  0.1307005E+00
          2   -1    0    0  502    0 -0.00000000000E+00  0.00000000000E+00  0.23651146320E+03  0.23651146320E+03  0.00000000000E+00 0. -1.
         21   -1    0    0  501  502  0.00000000000E+00 -0.00000000000E+00 -0.11668273288E+03  0.11668273288E+03  0.00000000000E+00 0.  1.
         23    2    1    2    0    0  0.62734528019E+01 -0.53741486046E+01  0.14872607982E+03  0.17450290788E+03  0.90904237275E+02 0.  0.
         24    2    1    2    0    0  0.14950001768E+02 -0.59872707183E+02 -0.40464349482E+02  0.10911124292E+03  0.80371986003E+02 0.  0.
        -11    1    4    4    0    0  0.36241976268E+00 -0.74962904546E+02 -0.45279781511E+02  0.87577548605E+02  0.00000000000E+00 0.  1.
         12    1    4    4    0    0  0.14587582005E+02  0.15090197362E+02  0.48154320283E+01  0.21533694314E+02  0.00000000000E+00 0. -1.
        -11    1    3    3    0    0 -0.38312560629E+02  0.12817893033E+02  0.89315190052E+02  0.98027311795E+02  0.00000000000E+00 0. -1.
         11    1    3    3    0    0  0.44586013431E+02 -0.18192041638E+02  0.59410889770E+02  0.76475596081E+02  0.00000000000E+00 0.  1.
          1    1    1    2  501    0 -0.21223454570E+02  0.65246855788E+02  0.11566999984E+02  0.69580045291E+02  0.00000000000E+00 0. -1.
<scales pt_clust_5="13000.00000" pt_clust_6="13000.00000" pt_clust_7="13000.00000" pt_clust_8="13000.00000" pt_clust_9="68.61186"></scales>
<clustering>
<clus scale="   68.612">  2  9  1 -1</clus>
<clus scale="   80.372">  5  6 -1 -1</clus>
<clus scale="   80.544">  2  5  1 -1</clus>
<clus scale="   90.904">  7  8 -1 -1</clus>
<clus scale="   68.612">  2  5  1 -1</clus>
</clustering>
</event>
<event>
 9    2  0.3745229E-005  0.1476882E+03  0.7546771E-02  0.1212637E+00
          2   -1    0    0  502    0 -0.00000000000E+00  0.00000000000E+00  0.56327037091E+03  0.56327037091E+03  0.00000000000E+00 0. -1.
         21   -1    0    0  501  502  0.00000000000E+00 -0.00000000000E+00 -0.74030468117E+02  0.74030468117E+02  0.00000000000E+00 0. -1.
         23    2    1    2    0    0  0.13696092703E+02 -0.78884154911E+02  0.96463571215E+02  0.15476132307E+03  0.90749951488E+02 0.  0.
         24    2    1    2    0    0 -0.12308940532E+03  0.17645776694E+02  0.18442560344E+03  0.23937894817E+03  0.88470913212E+02 0.  0.
        -13    1    4    4    0    0 -0.44263103352E+02  0.50312878567E+02  0.74103854259E+02  0.99909905835E+02  0.00000000000E+00 0.  1.
         14    1    4    4    0    0 -0.78826301970E+02 -0.32667101873E+02  0.11032174918E+03  0.13946904233E+03  0.00000000000E+00 0. -1.
        -13    1    3    3    0    0 -0.19714276335E+02 -0.84737528027E+02  0.72198785203E+02  0.11305647232E+03  0.00000000000E+00 0. -1.
         13    1    3    3    0    0  0.33410369039E+02  0.58533731166E+01  0.24264786012E+02  0.41704850753E+02  0.00000000000E+00 0.  1.
          1    1    1    2  501    0  0.10939331262E+03  0.61238378217E+02  0.20835072814E+03  0.24316056779E+03  0.00000000000E+00 0. -1.
<scales pt_clust_5="13000.00000" pt_clust_6="13000.00000" pt_clust_7="13000.00000" pt_clust_8="13000.00000" pt_clust_9="118.25701"></scales>
<clustering>
<clus scale="   88.471">  5  6 -1 -1</clus>
<clus scale="   90.750">  7  8 -1 -1</clus>
<clus scale="  121.020">  1  7  2 -1</clus>
<clus scale="  118.257">  2  9  1 -1</clus>
<clus scale="  118.257">  2  5  1 -1</clus>
</clustering>
</event>
<event>
 9    2  0.3745229E-005  0.9565558E+02  0.7546771E-02  0.1296738E+00
         21   -1    0    0  501  502  0.00000000000E+00  0.00000000000E+00  0.53643274649E+02  0.53643274649E+02  0.00000000000E+00 0. -1.
          2   -1    0    0  502    0 -0.00000000000E+00 -0.00000000000E+00 -0.23081130130E+03  0.23081130130E+03  0.00000000000E+00 0. -1.
         23    2    1    2    0    0  0.24443651871E+02 -0.27002767938E+02 -0.10982681203E+03  0.14793312390E+03  0.92171790232E+02 0.  0.
         24    2    1    2    0    0  0.10448470916E+02  0.19641188762E+02 -0.43987896663E+02  0.93894810843E+02  0.79914664549E+02 0.  0.
        -13    1    4    4    0    0  0.24533573222E+02  0.44533200580E+02 -0.40657232946E+02  0.65100789241E+02  0.00000000000E+00 0.  1.
         14    1    4    4    0    0 -0.14085102305E+02 -0.24892011817E+02 -0.33306637165E+01  0.28794021603E+02  0.00000000000E+00 0. -1.
        -11    1    3    3    0    0 -0.21086054751E+02 -0.44572369970E+02 -0.65655826244E+02  0.82109715561E+02  0.00000000000E+00 0.  1.
         11    1    3    3    0    0  0.45529706622E+02  0.17569602032E+02 -0.44170985783E+02  0.65823408342E+02  0.00000000000E+00 0. -1.
          1    1    1    2  501    0 -0.34892122787E+02  0.73615791758E+01 -0.23353317963E+02  0.42626641205E+02  0.00000000000E+00 0. -1.
<scales pt_clust_5="13000.00000" pt_clust_6="13000.00000" pt_clust_7="13000.00000" pt_clust_8="13000.00000" pt_clust_9="35.66025"></scales>
<clustering>
<clus scale="   35.660">  1  9  2 -1</clus>
<clus scale="   79.915">  5  6 -1 -1</clus>
<clus scale="   83.909">  1  5  2 -1</clus>
<clus scale="   92.172">  7  8 -1 -1</clus>
<clus scale="   35.660">  1  5  2 -1</clus>
</clustering>
</event>
<event>
 9    2  0.3745229E-005  0.9592325E+02  0.7546771E-02  0.1295024E+00
         -3   -1    0    0    0  501 -0.00000000000E+00  0.00000000000E+00  0.31039661539E+03  0.31039661539E+03  0.00000000000E+00 0.  1.
         21   -1    0    0  501  502  0.00000000000E+00 -0.00000000000E+00 -0.23879398948E+03  0.23879398948E+03  0.00000000000E+00 0.  1.
         24    2    1    2    0    0 -0.25356772392E+02 -0.80326665901E+01  0.24828055801E+03  0.26250838618E+03  0.80993380517E+02 0.  0.
         23    2    1    2    0    0  0.33307287096E+02  0.31835298646E+02  0.56324029916E+01  0.10265278012E+03  0.91558766321E+02 0.  0.
        -13    1    3    3    0    0 -0.25056142138E+02 -0.37812698189E+02  0.83191731434E+02  0.94754812976E+02  0.00000000000E+00 0.  1.
         14    1    3    3    0    0 -0.30063025466E+00  0.29780031599E+02  0.16508882658E+03  0.16775357320E+03  0.00000000000E+00 0. -1.
        -13    1    4    4    0    0 -0.12734922427E+02  0.17753900634E+02  0.38561961945E+02  0.44321599091E+02  0.00000000000E+00 0.  1.
         13    1    4    4    0    0  0.46042209523E+02  0.14081398012E+02 -0.32929558954E+02  0.58331181033E+02  0.00000000000E+00 0. -1.
         -4    1    1    2    0  502 -0.79505147039E+01 -0.23802632056E+02 -0.18231033509E+03  0.18402943856E+03  0.00000000000E+00 0.  1.
<scales pt_clust_5="13000.00000" pt_clust_6="13000.00000" pt_clust_7="13000.00000" pt_clust_8="13000.00000" pt_clust_9="25.09534"></scales>
<clustering>
<clus scale="   25.095">  2  9  1 -1</clus>
<clus scale="   80.993">  5  6 -1 -1</clus>
<clus scale="   85.896">  1  5  2 -1</clus>
<clus scale="   91.559">  7  8 -1 -1</clus>
<clus scale="   25.095">  2  5  1 -1</clus>
</clustering>
</event>
<event>
 9    2  0.3745229E-005  0.1467498E+03  0.7546771E-02  0.1206651E+00
          2   -1    0    0  502    0 -0.00000000000E+00  0.00000000000E+00  0.10007077282E+04  0.10007077282E+04  0.00000000000E+00 0. -1.
         21   -1    0    0  501  502  0.00000000000E+00 -0.00000000000E+00 -0.49679323823E+02  0.49679323823E+02  0.00000000000E+00 0.  1.
         23    2    1    2    0    0  0.82320013460E+02 -0.84637448331E+02  0.74703194970E+03  0.76175661059E+03  0.90974269052E+02 0.  0.
         24    2    1    2    0    0 -0.44308746720E+02  0.10330424545E+03  0.20402607943E+03  0.24628299062E+03  0.79960228968E+02 0.  0.
        -11    1    4    4    0    0 -0.37690561102E+02  0.96791265323E+02  0.10812630491E+03  0.14993473664E+03  0.00000000000E+00 0.  1.
         12    1    4    4    0    0 -0.66181856175E+01  0.65129801299E+01  0.95899774522E+02  0.96348253977E+02  0.00000000000E+00 0. -1.
        -11    1    3    3    0    0  0.83837764311E+02 -0.24685918309E+02  0.38534464966E+03  0.39513119886E+03  0.00000000000E+00 0.  1.
         11    1    3    3    0    0 -0.15177508507E+01 -0.59951530022E+02  0.36168730004E+03  0.36662541174E+03  0.00000000000E+00 0. -1.
          1    1    1    2  501    0 -0.38011266740E+02 -0.18666797122E+02 -0.29624737628E-01  0.42347450828E+02  0.00000000000E+00 0. -1.
<scales pt_clust_5="13000.00000" pt_clust_6="13000.00000" pt_clust_7="13000.00000" pt_clust_8="13000.00000" pt_clust_9="42.34744"></scales>
<clustering>
<clus scale="   42.347">  2  9  1 -1</clus>
<clus scale="   79.960">  5  6 -1 -1</clus>
<clus scale="   90.974">  7  8 -1 -1</clus>
<clus scale="  140.189">  2  5  1 -1</clus>
<clus scale="   42.347">  2  5  1 -1</clus>
</clustering>
</event>
<event>
 9    2  0.3745229E-005  0.3414368E+03  0.7546771E-02  0.1066186E+00
          2   -1    0    0  502    0 -0.00000000000E+00  0.00000000000E+00  0.10347689806E+04  0.10347689806E+04  0.00000000000E+00 0. -1.
         21   -1    0    0  501  502  0.00000000000E+00 -0.00000000000E+00 -0.10840747920E+03  0.10840747920E+03  0.00000000000E+00 0. -1.
         24    2    1    2    0    0 -0.97555491509E+02 -0.10101219831E+03  0.53440172249E+03  0.55833465776E+03  0.80198821260E+02 0.  0.
         23    2    1    2    0    0 -0.12131722758E+03 -0.39350758169E+02  0.22910066911E+03  0.27803548471E+03  0.92467628363E+02 0.  0.
        -11    1    3    3    0    0 -0.84595427937E+02 -0.40883893277E+02  0.24343699140E+03  0.26093954844E+03  0.00000000000E+00 0.  1.
         12    1    3    3    0    0 -0.12960063572E+02 -0.60128305029E+02  0.29096473108E+03  0.29739510932E+03  0.00000000000E+00 0. -1.
        -11    1    4    4    0    0 -0.11810344750E+03 -0.61875373239E+02  0.18081472271E+03  0.22465740601E+03  0.00000000000E+00 0. -1.
         11    1    4    4    0    0 -0.32137800812E+01  0.22524615070E+02  0.48285946395E+02  0.53378078700E+02  0.00000000000E+00 0.  1.
          1    1    1    2  501    0  0.21887271909E+03  0.14036295647E+03  0.16285910981E+03  0.30680631734E+03  0.00000000000E+00 0. -1.
<scales pt_clust_5="13000.00000" pt_clust_6="13000.00000" pt_clust_7="13000.00000" pt_clust_8="13000.00000" pt_clust_9="260.01351"></scales>
<clustering>
<clus scale="   80.199">  5  6 -1 -1</clus>
<clus scale="   92.468">  7  8 -1 -1</clus>
<clus scale="  155.443">  5  7 -1 -1</clus>
<clus scale="  260.014">  2  9  1 -1</clus>
<clus scale="  260.014">  2  5  1 -1</clus>
</clustering>
</event>
<event>
 9    2  0.3745229E-005  0.9783368E+02  0.7546771E-02  0.1291496E+00
          4   -1    0    0  502    0 -0.00000000000E+00  0.00000000000E+00  0.10633489368E+04  0.10633489368E+04  0.00000000000E+00 0. -1.
         21   -1    0    0  501  502  0.00000000000E+00 -0.00000000000E+00 -0.19412293045E+02  0.19412293045E+02  0.00000000000E+00 0.  1.
         24    2    1    2    0    0  0.35842480496E+02  0.56000183018E+01  0.75496524769E+03  0.76016267528E+03  0.80985949734E+02 0.  0.
         23    2    1    2    0    0  0.48062376314E+00  0.12794638957E+02  0.14316496048E+03  0.17121411686E+03  0.93027598701E+02 0.  0.
        -11    1    3    3    0    0  0.54222459657E+02 -0.32412458322E+01  0.30948456308E+03  0.31421533316E+03  0.00000000000E+00 0.  1.
         12    1    3    3    0    0 -0.18379979161E+02  0.88412641340E+01  0.44548068461E+03  0.44594734212E+03  0.00000000000E+00 0. -1.
        -13    1    4    4    0    0  0.44608427780E+02  0.16759307197E+02  0.91408915617E+02  0.10308431530E+03  0.00000000000E+00 0.  1.
         13    1    4    4    0    0 -0.44127804017E+02 -0.39646682405E+01  0.51756044860E+02  0.68129801564E+02  0.00000000000E+00 0. -1.
          3    1    1    2  501    0 -0.36323104259E+02 -0.18394657259E+02  0.14580643554E+03  0.15138443765E+03  0.00000000000E+00 0. -1.
<scales pt_clust_5="13000.00000" pt_clust_6="13000.00000" pt_clust_7="13000.00000" pt_clust_8="13000.00000" pt_clust_9="40.71525"></scales>
<clustering>
<clus scale="   40.715">  2  9  1 -1</clus>
<clus scale="   80.986">  5  6 -1 -1</clus>
<clus scale="   86.464">  1  5  2 -1</clus>
<clus scale="   93.028">  7  8 -1 -1</clus>
<clus scale="   40.715">  2  5  1 -1</clus>
</clustering>
</event>
<event>
 9    2  0.3745229E-005  0.1852653E+03  0.7546771E-02  0.1164127E+00
         21   -1    0    0  501  502  0.00000000000E+00  0.00000000000E+00  0.65342046417E+03  0.65342046417E+03  0.00000000000E+00 0. -1.
          2   -1    0    0  502    0 -0.00000000000E+00 -0.00000000000E+00 -0.12471253654E+03  0.12471253654E+03  0.00000000000E+00 0. -1.
         24    2    1    2    0    0 -0.26433003986E+02 -0.19452337366E+03  0.12840830172E+03  0.24729570723E+03  0.78284278530E+02 0.  0.
         23    2    1    2    0    0  0.13587068499E+03  0.84113796660E+02  0.15423602830E+03  0.23978029771E+03  0.90387305059E+02 0.  0.
        -11    1    3    3    0    0 -0.84273874780E+01 -0.32329968582E+02 -0.82827694570E+01  0.34421679187E+02  0.00000000000E+00 0.  1.
         12    1    3    3    0    0 -0.18005616508E+02 -0.16219340508E+03  0.13669107117E+03  0.21287402804E+03  0.00000000000E+00 0. -1.
        -13    1    4    4    0    0  0.80153509413E+01  0.48134078643E+02  0.26616110079E+02  0.55583744865E+02  0.00000000000E+00 0.  1.
         13    1    4    4    0    0  0.12785533404E+03  0.35979718018E+02  0.12761991822E+03  0.18419655284E+03  0.00000000000E+00 0. -1.
          1    1    1    2  501    0 -0.10943768100E+03  0.11040957700E+03  0.24606359761E+03  0.29105699577E+03  0.00000000000E+00 0. -1.
<scales pt_clust_5="13000.00000" pt_clust_6="13000.00000" pt_clust_7="13000.00000" pt_clust_8="13000.00000" pt_clust_9="155.45701"></scales>
<clustering>
<clus scale="   78.284">  5  6 -1 -1</clus>
<clus scale="   90.387">  7  8 -1 -1</clus>
<clus scale="  155.457">  1  9  2 -1</clus>
<clus scale="  179.671">  2  5  1 -1</clus>
<clus scale="  155.457">  1  5  2 -1</clus>
</clustering>
</event>
<event>
 9    2  0.3745229E-005  0.1081415E+03  0.7546771E-02  0.1271739E+00
          2   -1    0    0  502    0 -0.00000000000E+00  0.00000000000E+00  0.57817434711E+02  0.57817434711E+02  0.00000000000E+00 0. -1.
         21   -1    0    0  501  502  0.00000000000E+00 -0.00000000000E+00 -0.31581765229E+03  0.31581765229E+03  0.00000000000E+00 0.  1.
         24    2    1    2    0    0  0.51016322396E+02  0.35858797596E+01 -0.12164942059E+02  0.96400380937E+02  0.80805469772E+02 0.  0.
         23    2    1    2    0    0 -0.27248907338E+02  0.60208877437E+01 -0.20853686134E+03  0.23197598645E+03  0.97706098647E+02 0.  0.
        -13    1    3    3    0    0 -0.21289292362E+02  0.57218937065E+01 -0.95263726759E+01  0.24015116349E+02  0.00000000000E+00 0.  1.
         14    1    3    3    0    0  0.72305614758E+02 -0.21360139469E+01 -0.26385693830E+01  0.72385264589E+02  0.00000000000E+00 0. -1.
        -11    1    4    4    0    0 -0.60705861544E+02 -0.54322187941E+00 -0.17003706847E+03  0.18054944300E+03  0.00000000000E+00 0.  1.
         11    1    4    4    0    0  0.33456954206E+02  0.65641096231E+01 -0.38499792872E+02  0.51426543448E+02  0.00000000000E+00 0. -1.
          1    1    1    2  501    0 -0.23767415058E+02 -0.96067675033E+01 -0.37298414180E+02  0.45258719610E+02  0.00000000000E+00 0. -1.
<scales pt_clust_5="13000.00000" pt_clust_6="13000.00000" pt_clust_7="13000.00000" pt_clust_8="13000.00000" pt_clust_9="25.63552"></scales>
<clustering>
<clus scale="   25.636">  2  9  1 -1</clus>
<clus scale="   80.805">  5  6 -1 -1</clus>
<clus scale="   93.154">  1  5  2 -1</clus>
<clus scale="   97.706">  7  8 -1 -1</clus>
<clus scale="   25.636">  2  5  1 -1</clus>
</clustering>
</event>
<event>
 9    2  0.3745229E-005  0.2424143E+03  0.7546771E-02  0.1156151E+00
         21   -1    0    0  501  502  0.00000000000E+00  0.00000000000E+00  0.46640817321E+03  0.46640817321E+03  0.00000000000E+00 0.  1.
         -1   -1    0    0    0  501 -0.00000000000E+00 -0.00000000000E+00 -0.22427825292E+03  0.22427825292E+03  0.00000000000E+00 0.  1.
         23    2    1    2    0    0  0.29032709828E+02 -0.41489385589E-02 -0.72720747764E+02  0.12088193241E+03  0.92093627196E+02 0.  0.
         24    2    1    2    0    0 -0.22651082861E+03  0.37121933082E+02  0.25730293572E+03  0.36078995166E+03  0.10620449657E+03 0.  0.
        -11    1    4    4    0    0 -0.20579686309E+03  0.60671685443E+02  0.19021072749E+03  0.28672900642E+03  0.00000000000E+00 0.  1.
         12    1    4    4    0    0 -0.20713965525E+02 -0.23549752361E+02  0.67092208232E+02  0.74060945237E+02  0.00000000000E+00 0. -1.
        -13    1    3    3    0    0 -0.18623920412E+02 -0.31514703051E+02 -0.43034007797E+02  0.56497369381E+02  0.00000000000E+00 0. -1.
         13    1    3    3    0    0  0.47656630239E+02  0.31510554113E+02 -0.29686739967E+02  0.64384563027E+02  0.00000000000E+00 0.  1.
         -2    1    1    2    0  502  0.19747811878E+03 -0.37117784144E+02  0.57547732323E+02  0.20901454206E+03  0.00000000000E+00 0.  1.
<scales pt_clust_5="13000.00000" pt_clust_6="13000.00000" pt_clust_7="13000.00000" pt_clust_8="13000.00000" pt_clust_9="217.91133"></scales>
<clustering>
<clus scale="   92.094">  7  8 -1 -1</clus>
<clus scale="   96.562">  2  7  1 -1</clus>
<clus scale="  106.204">  5  6 -1 -1</clus>
<clus scale="  217.911">  1  9  2 -1</clus>
<clus scale="  217.911">  1  5  2 -1</clus>
</clustering>
</event>
<event>
 9    2  0.3745229E-005  0.2106882E+03  0.7546771E-02  0.1141022E+00
         21   -1    0    0  501  502  0.00000000000E+00  0.00000000000E+00  0.25490528892E+03  0.25490528892E+03  0.00000000000E+00 0.  1.
         -1   -1    0    0    0  501 -0.00000000000E+00 -0.00000000000E+00 -0.23777911480E+03  0.23777911480E+03  0.00000000000E+00 0.  1.
         24    2    1    2    0    0  0.49852043950E+02  0.39375344343E+02 -0.83844981766E+02  0.13302860631E+03  0.81430860860E+02 0.  0.
         23    2    1    2    0    0  0.46334046925E+02  0.32339636927E+02 -0.85936018117E+02  0.13755425687E+03  0.91342642573E+02 0.  0.
        -11    1    3    3    0    0  0.26842699017E+02  0.60598225781E+02 -0.75839072302E+02  0.10071861966E+03  0.00000000000E+00 0.  1.
         12    1    3    3    0    0  0.23009344933E+02 -0.21222881439E+02 -0.80059094637E+01  0.32309986648E+02  0.00000000000E+00 0. -1.
        -11    1    4    4    0    0  0.71327803973E+01  0.58748334713E+02 -0.38573029405E+02  0.70640795475E+02  0.00000000000E+00 0. -1.
         11    1    4    4    0    0  0.39201266528E+02 -0.26408697786E+02 -0.47362988712E+02  0.66913461395E+02  0.00000000000E+00 0.  1.
         -2    1    1    2    0  502 -0.96186090876E+02 -0.71714981270E+02  0.18690717401E+03  0.22210154054E+03  0.00000000000E+00 0.  1.
<scales pt_clust_5="13000.00000" pt_clust_6="13000.00000" pt_clust_7="13000.00000" pt_clust_8="13000.00000" pt_clust_9="119.97834"></scales>
<clustering>
<clus scale="   81.431">  5  6 -1 -1</clus>
<clus scale="   91.343">  7  8 -1 -1</clus>
<clus scale="   91.648">  5  7 -1 -1</clus>
<clus scale="  119.978">  1  9  2 -1</clus>
<clus scale="  119.978">  1  5  2 -1</clus>
</clustering>
</event>
<event>
 9    2  0.3745229E-005  0.9024440E+02  0.7546771E-02  0.1302543E+00
         21   -1    0    0  501  502  0.00000000000E+00  0.00000000000E+00  0.25551506762E+03  0.25551506762E+03  0.00000000000E+00 0.  1.
         -3   -1    0    0    0  501 -0.00000000000E+00 -0.00000000000E+00 -0.46798871262E+02  0.46798871262E+02  0.00000000000E+00 0.  1.
         23    2    1    2    0    0 -0.14143013724E+02  0.36509620573E+01  0.86110687650E+02  0.12519923602E+03  0.89701972170E+02 0.  0.
         24    2    1    2    0    0 -0.11414491143E+02 -0.16756115679E+02  0.11581190951E+03  0.14760056902E+03  0.89232682185E+02 0.  0.
        -11    1    4    4    0    0  0.16526337730E+02  0.27034237141E+02  0.75400130378E+02  0.81787220748E+02  0.00000000000E+00 0.  1.
         12    1    4    4    0    0 -0.27940828873E+02 -0.43790352820E+02  0.40411779135E+02  0.65813348275E+02  0.00000000000E+00 0. -1.
        -13    1    3    3    0    0 -0.80029228442E+01  0.46465828588E+02  0.38468728972E+02  0.60851977036E+02  0.00000000000E+00 0.  1.
         13    1    3    3    0    0 -0.61400908796E+01 -0.42814866531E+02  0.47641958678E+02  0.64347258984E+02  0.00000000000E+00 0. -1.
         -4    1    1    2    0  502  0.25557504867E+02  0.13105153622E+02  0.67935991981E+01  0.29514133843E+02  0.00000000000E+00 0.  1.
<scales pt_clust_5="13000.00000" pt_clust_6="13000.00000" pt_clust_7="13000.00000" pt_clust_8="13000.00000" pt_clust_9="28.72163"></scales>
<clustering>
<clus scale="   28.722">  1  9  2 -1</clus>
<clus scale="   89.233">  5  6 -1 -1</clus>
<clus scale="   89.702">  7  8 -1 -1</clus>
<clus scale="   89.778">  1  5  2 -1</clus>
<clus scale="   28.722">  1  5  2 -1</clus>
</clustering>
</event>
<event>
 9    2  0.3745229E-005  0.1735553E+03  0.7546771E-02  0.1175665E+00
         -1   -1    0    0    0  501 -0.00000000000E+00  0.00000000000E+00  0.40955266200E+03  0.40955266200E+03  0.00000000000E+00 0.  1.
         21   -1    0    0  501  502  0.00000000000E+00 -0.00000000000E+00 -0.20114891552E+03  0.20114891552E+03  0.00000000000E+00 0.  1.
         24    2    1    2    0    0 -0.11724747026E+03  0.10282997172E+03  0.32538789062E+03  0.36933353797E+03  0.78797274958E+02 0.  0.
         23    2    1    2    0    0  0.49472677459E+02 -0.97878634106E+02 -0.90398610027E+02  0.16839729946E+03  0.90321475529E+02 0.  0.
        -11    1    3    3    0    0 -0.12911549472E+03  0.95732260477E+02  0.29499972867E+03  0.33594689548E+03  0.00000000000E+00 0.  1.
         12    1    3    3    0    0  0.11868024460E+02  0.70977112479E+01  0.30388161958E+02  0.33386642490E+02  0.00000000000E+00 0. -1.
        -13    1    4    4    0    0  0.10216699582E+02 -0.53875010641E+02 -0.94530517971E+02  0.10928365180E+03  0.00000000000E+00 0.  1.
         13    1    4    4    0    0  0.39255977877E+02 -0.44003623465E+02  0.41319079441E+01  0.59113647666E+02  0.00000000000E+00 0. -1.
         -2    1    1    2    0  502  0.67774792800E+02 -0.49513376190E+01 -0.26585534125E+02  0.72970740081E+02  0.00000000000E+00 0.  1.
<scales pt_clust_5="13000.00000" pt_clust_6="13000.00000" pt_clust_7="13000.00000" pt_clust_8="13000.00000" pt_clust_9="67.95541"></scales>
<clustering>
<clus scale="   67.955">  2  9  1 -1</clus>
<clus scale="   78.797">  5  6 -1 -1</clus>
<clus scale="   90.321">  7  8 -1 -1</clus>
<clus scale="  167.847">  1  5  2 -1</clus>
<clus scale="   67.955">  2  5  1 -1</clus>
</clustering>
</event>
<event>
 9    2  0.3745229E-005  0.1306514E+03  0.7546771E-02  0.1229926E+00
         21   -1    0    0  501  502  0.00000000000E+00  0.00000000000E+00  0.21631064739E+02  0.21631064739E+02  0.00000000000E+00 0.  1.
         -1   -1    0    0    0  501 -0.00000000000E+00 -0.00000000000E+00 -0.99791881847E+03  0.99791881847E+03  0.00000000000E+00 0.  1.
         24    2    1    2    0    0  0.39952297277E+02  0.74019734009E+02 -0.50739148778E+03  0.52060169947E+03  0.80652963588E+02 0.  0.
         23    2    1    2    0    0 -0.49271990048E+02 -0.93907760358E+02 -0.34104084301E+03  0.36922000855E+03  0.93638462439E+02 0.  0.
        -13    1    3    3    0    0  0.53494231277E+02  0.16255064340E+02 -0.20767634154E+03  0.21507050642E+03  0.00000000000E+00 0.  1.
         14    1    3    3    0    0 -0.13541934000E+02  0.57764669669E+02 -0.29971514625E+03  0.30553119305E+03  0.00000000000E+00 0. -1.
        -13    1    4    4    0    0 -0.48645623157E+02 -0.40394771404E+02 -0.76161411808E+02  0.98988357182E+02  0.00000000000E+00 0.  1.
         13    1    4    4    0    0 -0.62636689120E+00 -0.53512988954E+02 -0.26487943121E+03  0.27023165136E+03  0.00000000000E+00 0. -1.
         -2    1    1    2    0  502  0.93196927707E+01  0.19888026350E+02 -0.12785542293E+03  0.12972817519E+03  0.00000000000E+00 0.  1.
<scales pt_clust_5="13000.00000" pt_clust_6="13000.00000" pt_clust_7="13000.00000" pt_clust_8="13000.00000" pt_clust_9="21.96340"></scales>
<clustering>
<clus scale="   21.963">  1  9  2 -1</clus>
<clus scale="   80.653">  5  6 -1 -1</clus>
<clus scale="   93.638">  7  8 -1 -1</clus>
<clus scale="  121.682">  2  5  1 -1</clus>
<clus scale="   21.963">  1  5  2 -1</clus>
</clustering>
</event>
<event>
 9    2  0.3745229E-005  0.8795677E+02  0.7546771E-02  0.1313676E+00
         21   -1    0    0  501  502  0.00000000000E+00  0.00000000000E+00  0.34435315785E+03  0.34435315785E+03  0.00000000000E+00 0. -1.
          2   -1    0    0  502    0 -0.00000000000E+00 -0.00000000000E+00 -0.61815034049E+02  0.61815034049E+02  0.00000000000E+00 0. -1.
         24    2    1    2    0    0 -0.13116315509E+02 -0.14559181032E+01 -0.21790778462E+01  0.79079423441E+02  0.77940037217E+02 0.  0.
         23    2    1    2    0    0  0.14597492495E+01  0.32919953260E+02  0.89426160267E+02  0.12893617098E+03  0.86842638465E+02 0.  0.
        -11    1    3    3    0    0 -0.11688150884E+02 -0.39340218661E+02  0.83787985285E+00  0.41048358287E+02  0.00000000000E+00 0.  1.
         12    1    3    3    0    0 -0.14281646252E+01  0.37884300558E+02 -0.30169576991E+01  0.38031065154E+02  0.00000000000E+00 0. -1.
        -11    1    4    4    0    0 -0.29525569211E+02  0.44326857958E+02  0.77068131815E+02  0.93680982676E+02  0.00000000000E+00 0. -1.
         11    1    4    4    0    0  0.30985318461E+02 -0.11406904698E+02  0.12358028452E+02  0.35255188301E+02  0.00000000000E+00 0.  1.
          1    1    1    2  501    0  0.11656566260E+02 -0.31464035156E+02  0.19529104138E+03  0.19815259748E+03  0.00000000000E+00 0. -1.
<scales pt_clust_5="13000.00000" pt_clust_6="13000.00000" pt_clust_7="13000.00000" pt_clust_8="13000.00000" pt_clust_9="33.55385"></scales>
<clustering>
<clus scale="   33.554">  1  9  2 -1</clus>
<clus scale="   77.940">  5  6 -1 -1</clus>
<clus scale="   79.180">  2  5  1 -1</clus>
<clus scale="   86.843">  7  8 -1 -1</clus>
<clus scale="   33.554">  1  5  2 -1</clus>
</clustering>
</event>
<event>
 9    2  0.3745229E-005  0.1336310E+03  0.7546771E-02  0.1224712E+00
         21   -1    0    0  501  502  0.00000000000E+00  0.00000000000E+00  0.49382249758E+02  0.49382249758E+02  0.00000000000E+00 0. -1.
          2   -1    0    0  502    0 -0.00000000000E+00 -0.00000000000E+00 -0.10157791811E+04  0.10157791811E+04  0.00000000000E+00 0. -1.
         24    2    1    2    0    0 -0.95503806529E+02 -0.54383865875E+02 -0.84597084713E+03  0.85681508856E+03  0.79917706748E+02 0.  0.
         23    2    1    2    0    0  0.36144896530E+02  0.16295820434E+02 -0.60888957138E+02  0.11604873181E+03  0.90486660584E+02 0.  0.
        -11    1    3    3    0    0 -0.85677667651E+02 -0.70977419250E+01 -0.47548984783E+03  0.48319937507E+03  0.00000000000E+00 0.  1.
         12    1    3    3    0    0 -0.98261388780E+01 -0.47286123950E+02 -0.37048099930E+03  0.37361571349E+03  0.00000000000E+00 0. -1.
        -13    1    4    4    0    0 -0.18940574618E+02  0.16382417589E+02  0.93978106749E+01  0.26747856333E+02  0.00000000000E+00 0. -1.
         13    1    4    4    0    0  0.55085471148E+02 -0.86597155629E-01 -0.70286767813E+02  0.89300875473E+02  0.00000000000E+00 0.  1.
          1    1    1    2  501    0  0.59358909999E+02  0.38088045441E+02 -0.59537127051E+02  0.92297610475E+02  0.00000000000E+00 0. -1.
<scales pt_clust_5="13000.00000" pt_clust_6="13000.00000" pt_clust_7="13000.00000" pt_clust_8="13000.00000" pt_clust_9="70.52786"></scales>
<clustering>
<clus scale="   70.528">  1  9  2 -1</clus>
<clus scale="   79.918">  5  6 -1 -1</clus>
<clus scale="   90.487">  7  8 -1 -1</clus>
<clus scale="  126.713">  2  5  1 -1</clus>
<clus scale="   70.528">  1  5  2 -1</clus>
</clustering>
</event>
<event>
 9    2  0.3745229E-005  0.1031717E+03  0.7546771E-02  0.1277533E+00
         21   -1    0    0  501  502  0.00000000000E+00  0.00000000000E+00  0.12235118069E+03  0.12235118069E+03  0.00000000000E+00 0.  1.
         -3   -1    0    0    0  501 -0.00000000000E+00 -0.00000000000E+00 -0.26779871178E+03  0.26779871178E+03  0.00000000000E+00 0.  1.
         23    2    1    2    0    0  0.32763688171E+02  0.39109787184E+02 -0.21727834730E+03  0.24004737255E+03  0.88373220750E+02 0.  0.
         24    2    1    2    0    0 -0.34687068605E+02 -0.60099674308E+02  0.42573424196E+02  0.11404326672E+03  0.79863675453E+02 0.  0.
        -13    1    4    4    0    0 -0.32147842652E+00 -0.69517785383E+02  0.22096027724E+02  0.72945598045E+02  0.00000000000E+00 0.  1.
         14    1    4    4    0    0 -0.34365590178E+02  0.94181110754E+01  0.20477396472E+02  0.41097668679E+02  0.00000000000E+00 0. -1.
        -13    1    3    3    0    0 -0.27955330063E+02  0.25839818535E+02 -0.61509311862E+02  0.72336658386E+02  0.00000000000E+00 0. -1.
         13    1    3    3    0    0  0.60719018234E+02  0.13269968649E+02 -0.15576903544E+03  0.16771071416E+03  0.00000000000E+00 0.  1.
         -4    1    1    2    0  502  0.19233804336E+01  0.20989887123E+02  0.29257392019E+02  0.36059253202E+02  0.00000000000E+00 0.  1.
<scales pt_clust_5="13000.00000" pt_clust_6="13000.00000" pt_clust_7="13000.00000" pt_clust_8="13000.00000" pt_clust_9="21.07783"></scales>
<clustering>
<clus scale="   21.078">  1  9  2 -1</clus>
<clus scale="   79.864">  5  6 -1 -1</clus>
<clus scale="   88.373">  7  8 -1 -1</clus>
<clus scale="   95.983">  1  5  2 -1</clus>
<clus scale="   21.078">  1  5  2 -1</clus>
</clustering>
</event>
<event>
 9    2  0.3745229E-005  0.1849112E+03  0.7546771E-02  0.1179592E+00
         21   -1    0    0  501  502  0.00000000000E+00  0.00000000000E+00  0.46339108468E+02  0.46339108468E+02  0.00000000000E+00 0. -1.
          2   -1    0    0  502    0 -0.00000000000E+00 -0.00000000000E+00 -0.17992137139E+04  0.17992137139E+04  0.00000000000E+00 0. -1.
         23    2    1    2    0    0 -0.70487849387E+02 -0.44339272554E+02 -0.73701285638E+03  0.74787683213E+03  0.95902542019E+02 0.  0.
         24    2    1    2    0    0 -0.81822841057E+02 -0.12116426129E+03 -0.25765898011E+03  0.30681481091E+03  0.79821191600E+02 0.  0.
        -11    1    4    4    0    0 -0.29662245108E+02  0.44518819910E+01 -0.56849338532E+02  0.64276864653E+02  0.00000000000E+00 0.  1.
         12    1    4    4    0    0 -0.52160595950E+02 -0.12561614328E+03 -0.20080964158E+03  0.24253794626E+03  0.00000000000E+00 0. -1.
        -11    1    3    3    0    0 -0.92206297157E+02 -0.20011227187E+02 -0.55638878379E+03  0.56433228614E+03  0.00000000000E+00 0. -1.
         11    1    3    3    0    0  0.21718447770E+02 -0.24328045367E+02 -0.18062407259E+03  0.18354454599E+03  0.00000000000E+00 0.  1.
          1    1    1    2  501    0  0.15231069044E+03  0.16550353385E+03 -0.75820276899E+03  0.79086117937E+03  0.00000000000E+00 0. -1.
<scales pt_clust_5="13000.00000" pt_clust_6="13000.00000" pt_clust_7="13000.00000" pt_clust_8="13000.00000" pt_clust_9="166.79561"></scales>
<clustering>
<clus scale="   79.821">  5  6 -1 -1</clus>
<clus scale="   95.903">  7  8 -1 -1</clus>
<clus scale="  127.011">  2  7  1 -1</clus>
<clus scale="  166.796">  1  9  2 -1</clus>
<clus scale="  166.796">  1  5  2 -1</clus>
</clustering>
</event>
<event>
 9    2  0.3745229E-005  0.1052057E+03  0.7546771E-02  0.1295311E+00
         -1   -1    0    0    0  501 -0.00000000000E+00  0.00000000000E+00  0.57782081545E+03  0.57782081545E+03  0.00000000000E+00 0.  1.
         21   -1    0    0  501  502  0.00000000000E+00 -0.00000000000E+00 -0.21434902591E+02  0.21434902591E+02  0.00000000000E+00 0.  1.
         23    2    1    2    0    0 -0.34061756076E+02  0.21761761825E+02  0.44854061955E+03  0.46129685057E+03  0.99861501360E+02 0.  0.
         24    2    1    2    0    0  0.22701865331E+02  0.39347389055E+00  0.66054472831E+02  0.89313474436E+02  0.55661241664E+02 0.  0.
        -13    1    4    4    0    0  0.49643129487E+00  0.21417391547E+02  0.50817071137E+02  0.55148216867E+02  0.00000000000E+00 0.  1.
         14    1    4    4    0    0  0.22205434036E+02 -0.21023917656E+02  0.15237401694E+02  0.34165257568E+02  0.00000000000E+00 0. -1.
        -11    1    3    3    0    0  0.16432809400E+02 -0.29127147151E+02  0.99492638253E+02  0.10496291246E+03  0.00000000000E+00 0. -1.
         11    1    3    3    0    0 -0.50494565476E+02  0.50888908976E+02  0.34904798130E+03  0.35633393811E+03  0.00000000000E+00 0.  1.
         -2    1    1    2    0  502  0.11359890746E+02 -0.22155235715E+02  0.41790820478E+02  0.48645393036E+02  0.00000000000E+00 0.  1.
<scales pt_clust_5="13000.00000" pt_clust_6="13000.00000" pt_clust_7="13000.00000" pt_clust_8="13000.00000" pt_clust_9="24.89782"></scales>
<clustering>
<clus scale="   24.898">  2  9  1 -1</clus>
<clus scale="   55.661">  5  6 -1 -1</clus>
<clus scale="   64.762">  2  5  1 -1</clus>
<clus scale="   99.862">  7  8 -1 -1</clus>
<clus scale="   24.898">  2  5  1 -1</clus>
</clustering>
</event>
<event>
 9    2  0.3745229E-005  0.1261647E+03  0.7546771E-02  0.1236344E+00
          2   -1    0    0  502    0 -0.00000000000E+00  0.00000000000E+00  0.48191644758E+03  0.48191644758E+03  0.00000000000E+00 0. -1.
         21   -1    0    0  501  502  0.00000000000E+00 -0.00000000000E+00 -0.47730178848E+02  0.47730178848E+02  0.00000000000E+00 0.  1.
         23    2    1    2    0    0 -0.40180649872E+02 -0.60356111032E+02  0.14950784753E+03  0.18961062074E+03  0.91335897979E+02 0.  0.
         24    2    1    2    0    0  0.90708083350E+02  0.56363806655E+02  0.18506265713E+03  0.22826722436E+03  0.80329966819E+02 0.  0.
        -13    1    4    4    0    0 -0.18949302979E+00  0.40035331540E+02  0.70943073153E+02  0.81460317380E+02  0.00000000000E+00 0.  1.
         14    1    4    4    0    0  0.90897576379E+02  0.16328475115E+02  0.11411958398E+03  0.14680690698E+03  0.00000000000E+00 0. -1.
        -13    1    3    3    0    0 -0.41696963296E+02 -0.19228448699E+02  0.14004606298E+03  0.14738137516E+03  0.00000000000E+00 0. -1.
         13    1    3    3    0    0  0.15163134238E+01 -0.41127662333E+02  0.94617845553E+01  0.42229245581E+02  0.00000000000E+00 0.  1.
          1    1    1    2  501    0 -0.50527433478E+02  0.39923043773E+01  0.99615764066E+02  0.11176878132E+03  0.00000000000E+00 0. -1.
<scales pt_clust_5="13000.00000" pt_clust_6="13000.00000" pt_clust_7="13000.00000" pt_clust_8="13000.00000" pt_clust_9="50.68493"></scales>
<clustering>
<clus scale="   50.685">  2  9  1 -1</clus>
<clus scale="   80.330">  5  6 -1 -1</clus>
<clus scale="   91.336">  7  8 -1 -1</clus>
<clus scale="  118.441">  2  5  1 -1</clus>
<clus scale="   50.685">  2  5  1 -1</clus>
</clustering>
</event>
<event>
 9    2  0.3745229E-005  0.9520722E+02  0.7546771E-02  0.1295201E+00
          2   -1    0    0  502    0 -0.00000000000E+00  0.00000000000E+00  0.38328131701E+02  0.38328131701E+02  0.00000000000E+00 0. -1.
         21   -1    0    0  501  502  0.00000000000E+00 -0.00000000000E+00 -0.47981900573E+03  0.47981900573E+03  0.00000000000E+00 0.  1.
         24    2    1    2    0    0 -0.23700024260E+01 -0.26276967207E+02 -0.37795292016E+02  0.94384560816E+02  0.82364223452E+02 0.  0.
         23    2    1    2    0    0 -0.14049281487E+02  0.46548419316E+02 -0.31575073014E+03  0.33203023976E+03  0.90451196103E+02 0.  0.
        -11    1    3    3    0    0  0.28399536222E-01  0.22518304992E+02 -0.39536283577E+02  0.45499369065E+02  0.00000000000E+00 0.  1.
         12    1    3    3    0    0 -0.23984019622E+01 -0.48795272199E+02  0.17409915612E+01  0.48885191752E+02  0.00000000000E+00 0. -1.
        -11    1    4    4    0    0 -0.45790195517E+02  0.49431087496E+02 -0.17066161071E+03  0.18348176963E+03  0.00000000000E+00 0.  1.
         11    1    4    4    0    0  0.31740914030E+02 -0.28826681800E+01 -0.14508911943E+03  0.14854847013E+03  0.00000000000E+00 0. -1.
          1    1    1    2  501    0  0.16419283913E+02 -0.20271452109E+02 -0.87944851868E+02  0.91732336855E+02  0.00000000000E+00 0. -1.
<scales pt_clust_5="13000.00000" pt_clust_6="13000.00000" pt_clust_7="13000.00000" pt_clust_8="13000.00000" pt_clust_9="26.08687"></scales>
<clustering>
<clus scale="   26.087">  2  9  1 -1</clus>
<clus scale="   82.364">  5  6 -1 -1</clus>
<clus scale="   87.561">  1  5  2 -1</clus>
<clus scale="   90.451">  7  8 -1 -1</clus>
<clus scale="   26.087">  2  5  1 -1</clus>
</clustering>
</event>
<event>
 9    2  0.3745229E-005  0.9150533E+02  0.7546771E-02  0.1305715E+00
          2   -1    0    0  502    0 -0.00000000000E+00  0.00000000000E+00  0.28170835268E+03  0.28170835268E+03  0.00000000000E+00 0. -1.
         21   -1    0    0  501  502  0.00000000000E+00 -0.00000000000E+00 -0.75960546617E+02  0.75960546617E+02  0.00000000000E+00 0.  1.
         24    2    1    2    0    0 -0.51957856142E+01 -0.48984207336E+01  0.22462105596E+03  0.23893033035E+03  0.81130100883E+02 0.  0.
         23    2    1    2    0    0 -0.66111841309E+01 -0.16190047886E+02 -0.14376649335E+02  0.94155089542E+02  0.91392928799E+02 0.  0.
        -11    1    3    3    0    0 -0.32208892556E+02 -0.11839023903E+02  0.42208585266E+02  0.54397977139E+02  0.00000000000E+00 0.  1.
         12    1    3    3    0    0  0.27013106942E+02  0.69406031691E+01  0.18241247069E+03  0.18453235321E+03  0.00000000000E+00 0. -1.
        -13    1    4    4    0    0  0.32096700631E+02  0.21777386771E+02 -0.74173859429E+01  0.39490130162E+02  0.00000000000E+00 0. -1.
         13    1    4    4    0    0 -0.38707884762E+02 -0.37967434657E+02 -0.69592633919E+01  0.54664959381E+02  0.00000000000E+00 0.  1.
          1    1    1    2  501    0  0.11806969745E+02  0.21088468619E+02 -0.44966005534E+01  0.24583479408E+02  0.00000000000E+00 0. -1.
<scales pt_clust_5="13000.00000" pt_clust_6="13000.00000" pt_clust_7="13000.00000" pt_clust_8="13000.00000" pt_clust_9="24.16874"></scales>
<clustering>
<clus scale="   24.169">  2  9  1 -1</clus>
<clus scale="   81.130">  5  6 -1 -1</clus>
<clus scale="   81.257">  1  5  2 -1</clus>
<clus scale="   91.393">  7  8 -1 -1</clus>
<clus scale="   24.169">  2  5  1 -1</clus>
</clustering>
</event>
<event>
 9    2  0.3745229E-005  0.1572451E+03  0.7546771E-02  0.1193895E+00
         -1   -1    0    0    0  501 -0.00000000000E+00  0.00000000000E+00  0.90976099053E+03  0.90976099053E+03  0.00000000000E+00 0.  1.
         21   -1    0    0  501  502  0.00000000000E+00 -0.00000000000E+00 -0.37459919745E+02  0.37459919745E+02  0.00000000000E+00 0.  1.
         24    2    1    2    0    0 -0.11657002658E+02  0.12644725424E+03  0.39043461454E+03  0.41779112746E+03  0.77365652172E+02 0.  0.
         23    2    1    2    0    0  0.54654552514E+02 -0.12451736896E+03  0.28940007039E+03  0.33220954188E+03  0.90105958128E+02 0.  0.
        -11    1    3    3    0    0 -0.28792377882E+02  0.12676900946E+03  0.36147737361E+03  0.38414225805E+03  0.00000000000E+00 0.  1.
         12    1    3    3    0    0  0.17135375224E+02 -0.32175522069E+00  0.28957240929E+02  0.33648869412E+02  0.00000000000E+00 0. -1.
        -11    1    4    4    0    0 -0.15245209568E+02 -0.76762847905E+02  0.14747631820E+03  0.16695572965E+03  0.00000000000E+00 0.  1.
         11    1    4    4    0    0  0.69899762082E+02 -0.47754521057E+02  0.14192375219E+03  0.16525381223E+03  0.00000000000E+00 0. -1.
         -2    1    1    2    0  502 -0.42997549856E+02 -0.19298852821E+01  0.19246638585E+03  0.19722024094E+03  0.00000000000E+00 0.  1.
<scales pt_clust_5="13000.00000" pt_clust_6="13000.00000" pt_clust_7="13000.00000" pt_clust_8="13000.00000" pt_clust_9="43.04086"></scales>
<clustering>
<clus scale="   43.041">  2  9  1 -1</clus>
<clus scale="   77.366">  5  6 -1 -1</clus>
<clus scale="   90.106">  7  8 -1 -1</clus>
<clus scale="  150.308">  1  5  2 -1</clus>
<clus scale="   43.041">  2  5  1 -1</clus>
</clustering>
</event>
<event>
 9    2  0.3745229E-005  0.1001739E+03  0.7546771E-02  0.1287863E+00
          2   -1    0    0  502    0 -0.00000000000E+00  0.00000000000E+00  0.68279311965E+02  0.68279311965E+02  0.00000000000E+00 0. -1.
         21   -1    0    0  501  502  0.00000000000E+00 -0.00000000000E+00 -0.40878626243E+03  0.40878626243E+03  0.00000000000E+00 0. -1.
         24    2    1    2    0    0 -0.14104460324E+02 -0.56586084448E+02 -0.26376551460E+02  0.10158396856E+03  0.78883835147E+02 0.  0.
         23    2    1    2    0    0 -0.46399695298E+02 -0.19899893655E+02 -0.14119283133E+03  0.17694128246E+03  0.93935426370E+02 0.  0.
        -11    1    3    3    0    0 -0.38027823886E+02 -0.42474147081E+01 -0.21350610990E+02  0.43817856073E+02  0.00000000000E+00 0.  1.
         12    1    3    3    0    0  0.23923363563E+02 -0.52338669739E+02 -0.50259404699E+01  0.57766112487E+02  0.00000000000E+00 0. -1.
        -11    1    4    4    0    0  0.63541798334E+01 -0.24384109125E+02  0.99323917091E+00  0.25217987692E+02  0.00000000000E+00 0.  1.
         11    1    4    4    0    0 -0.52753875131E+02  0.44842154700E+01 -0.14218607050E+03  0.15172329477E+03  0.00000000000E+00 0. -1.
          1    1    1    2  501    0  0.60504155621E+02  0.76485978103E+02 -0.17293756767E+03  0.19854032337E+03  0.00000000000E+00 0. -1.
<scales pt_clust_5="13000.00000" pt_clust_6="13000.00000" pt_clust_7="13000.00000" pt_clust_8="13000.00000" pt_clust_9="97.52363"></scales>
<clustering>
<clus scale="   78.884">  5  6 -1 -1</clus>
<clus scale="   93.935">  7  8 -1 -1</clus>
<clus scale="   97.524">  2  9  1 -1</clus>
<clus scale="   86.218">  1  5  2 -1</clus>
<clus scale="   97.524">  2  5  1 -1</clus>
</clustering>
</event>
<event>
 9    2  0.3745229E-005  0.9362893E+02  0.7546771E-02  0.1298855E+00
          2   -1    0    0  502    0 -0.00000000000E+00  0.00000000000E+00  0.80952257815E+03  0.80952257815E+03  0.00000000000E+00 0. -1.
         21   -1    0    0  501  502  0.00000000000E+00 -0.00000000000E+00 -0.26469189217E+02  0.26469189217E+02  0.00000000000E+00 0. -1.
         24    2    1    2    0    0 -0.50748925868E+01 -0.44423347231E+02  0.44141246430E+03  0.45108290378E+03  0.81434845891E+02 0.  0.
         23    2    1    2    0    0 -0.26600489887E+02  0.10969627399E+01  0.30740094075E+03  0.32124661462E+03  0.89416215749E+02 0.  0.
        -13    1    3    3    0    0 -0.33037632619E+02 -0.53995384829E+02  0.30742951178E+03  0.31387878467E+03  0.00000000000E+00 0.  1.
         14    1    3    3    0    0  0.27962740033E+02  0.95720375980E+01  0.13398295252E+03  0.13720411911E+03  0.00000000000E+00 0. -1.
        -13    1    4    4    0    0  0.14855556843E+02 -0.34453985683E+02  0.15075128134E+03  0.15535029296E+03  0.00000000000E+00 0.  1.
         13    1    4    4    0    0 -0.41456046730E+02  0.35550948423E+02  0.15664965941E+03  0.16589632166E+03  0.00000000000E+00 0. -1.
          1    1    1    2  501    0  0.31675382474E+02  0.43326384491E+02  0.34239983879E+02  0.63662248971E+02  0.00000000000E+00 0. -1.
<scales pt_clust_5="13000.00000" pt_clust_6="13000.00000" pt_clust_7="13000.00000" pt_clust_8="13000.00000" pt_clust_9="53.67034"></scales>
<clustering>
<clus scale="   53.670">  2  9  1 -1</clus>
<clus scale="   81.435">  5  6 -1 -1</clus>
<clus scale="   86.039">  1  5  2 -1</clus>
<clus scale="   89.416">  7  8 -1 -1</clus>
<clus scale="   53.670">  2  5  1 -1</clus>
</clustering>
</event>
<event>
 9    2  0.3745229E-005  0.9283523E+02  0.7546771E-02  0.1299744E+00
         -1   -1    0    0    0  501 -0.00000000000E+00  0.00000000000E+00  0.22734792765E+03  0.22734792765E+03  0.00000000000E+00 0.  1.
         21   -1    0    0  501  502  0.00000000000E+00 -0.00000000000E+00 -0.65804315955E+02  0.65804315955E+02  0.00000000000E+00 0.  1.
         24    2    1    2    0    0  0.17040717152E+01  0.30251477088E+02  0.13489158040E+03  0.16183525129E+03  0.84124041565E+02 0.  0.
         23    2    1    2    0    0  0.75323315891E+01  0.49286249940E+01  0.99767904677E+01  0.91304314513E+02  0.90310099862E+02 0.  0.
        -13    1    3    3    0    0 -0.38490024992E+02  0.24872118081E+02  0.92155940168E+02  0.10292143406E+03  0.00000000000E+00 0.  1.
         14    1    3    3    0    0  0.40194096707E+02  0.53793590068E+01  0.42735640236E+02  0.58913817223E+02  0.00000000000E+00 0. -1.
        -13    1    4    4    0    0  0.39036575832E+02 -0.18708950825E+01 -0.22874101543E+02  0.45283319473E+02  0.00000000000E+00 0.  1.
         13    1    4    4    0    0 -0.31504244243E+02  0.67995200764E+01  0.32850892010E+02  0.46020995040E+02  0.00000000000E+00 0. -1.
         -2    1    1    2    0  502 -0.92364033043E+01 -0.35180102082E+02  0.16675240821E+02  0.40012677803E+02  0.00000000000E+00 0.  1.
<scales pt_clust_5="13000.00000" pt_clust_6="13000.00000" pt_clust_7="13000.00000" pt_clust_8="13000.00000" pt_clust_9="36.37239"></scales>
<clustering>
<clus scale="   36.372">  2  9  1 -1</clus>
<clus scale="   84.124">  5  6 -1 -1</clus>
<clus scale="   86.829">  1  5  2 -1</clus>
<clus scale="   90.310">  7  8 -1 -1</clus>
<clus scale="   36.372">  2  5  1 -1</clus>
</clustering>
</event>
<event>
 9    2  0.3745229E-005  0.2374774E+03  0.7546771E-02  0.1121485E+00
         21   -1    0    0  501  502  0.00000000000E+00  0.00000000000E+00  0.95846737838E+03  0.95846737838E+03  0.00000000000E+00 0.  1.
         -1   -1    0    0    0  501 -0.00000000000E+00 -0.00000000000E+00 -0.42730748192E+02  0.42730748192E+02  0.00000000000E+00 0.  1.
         24    2    1    2    0    0 -0.19361901598E+02 -0.74796264448E+02  0.25849691336E+03  0.28176063934E+03  0.81234470877E+02 0.  0.
         23    2    1    2    0    0 -0.20570125300E+02 -0.76797639066E+02  0.17724625156E+03  0.21449293081E+03  0.90939409800E+02 0.  0.
        -11    1    3    3    0    0 -0.37840280077E+02 -0.55303177235E+02  0.23992144767E+03  0.24910365164E+03  0.00000000000E+00 0.  1.
         12    1    3    3    0    0  0.18478378478E+02 -0.19493087213E+02  0.18575465686E+02  0.32656987701E+02  0.00000000000E+00 0. -1.
        -13    1    4    4    0    0  0.35773308381E+01 -0.88074575313E+02  0.10278311434E+03  0.13540419752E+03  0.00000000000E+00 0.  1.
         13    1    4    4    0    0 -0.24147456138E+02  0.11276936247E+02  0.74463137217E+02  0.79088733288E+02  0.00000000000E+00 0. -1.
         -2    1    1    2    0  502  0.39932026898E+02  0.15159390351E+03  0.47999346527E+03  0.50494455642E+03  0.00000000000E+00 0.  1.
<scales pt_clust_5="13000.00000" pt_clust_6="13000.00000" pt_clust_7="13000.00000" pt_clust_8="13000.00000" pt_clust_9="156.76504"></scales>
<clustering>
<clus scale="   81.234">  5  6 -1 -1</clus>
<clus scale="   90.939">  7  8 -1 -1</clus>
<clus scale="  101.835">  5  7 -1 -1</clus>
<clus scale="  156.765">  1  9  2 -1</clus>
<clus scale="  156.765">  1  5  2 -1</clus>
</clustering>
</event>
<event>
 9    2  0.3745229E-005  0.9957343E+02  0.7546771E-02  0.1295255E+00
         21   -1    0    0  501  502  0.00000000000E+00  0.00000000000E+00  0.19141414416E+03  0.19141414416E+03  0.00000000000E+00 0. -1.
          2   -1    0    0  502    0 -0.00000000000E+00 -0.00000000000E+00 -0.17205512200E+03  0.17205512200E+03  0.00000000000E+00 0. -1.
         24    2    1    2    0    0  0.10306158284E+02 -0.21252491040E+02  0.30701694275E+01  0.79260262310E+02  0.75596811885E+02 0.  0.
         23    2    1    2    0    0  0.15967005715E+02 -0.26690850813E+02  0.12507222634E+03  0.16246063405E+03  0.98909296973E+02 0.  0.
        -13    1    3    3    0    0  0.23273675755E+02 -0.45835866866E+02  0.21605601936E+01  0.51451517906E+02  0.00000000000E+00 0.  1.
         14    1    3    3    0    0 -0.12967517471E+02  0.24583375826E+02  0.90960923391E+00  0.27808744404E+02  0.00000000000E+00 0. -1.
        -13    1    4    4    0    0 -0.27089480932E+02  0.57784706522E+01  0.16226313089E+01  0.27746416573E+02  0.00000000000E+00 0.  1.
         13    1    4    4    0    0  0.43056486648E+02 -0.32469321465E+02  0.12344959503E+03  0.13471421748E+03  0.00000000000E+00 0. -1.
          1    1    1    2  501    0 -0.26273163999E+02  0.47943341852E+02 -0.10878337361E+03  0.12174836980E+03  0.00000000000E+00 0. -1.
<scales pt_clust_5="13000.00000" pt_clust_6="13000.00000" pt_clust_7="13000.00000" pt_clust_8="13000.00000" pt_clust_9="54.67034"></scales>
<clustering>
<clus scale="   54.670">  1  9  2 -1</clus>
<clus scale="   75.597">  5  6 -1 -1</clus>
<clus scale="   76.464">  2  5  1 -1</clus>
<clus scale="   98.909">  7  8 -1 -1</clus>
<clus scale="   54.670">  1  5  2 -1</clus>
</clustering>
</event>
<event>
 9    2  0.3745229E-005  0.1436843E+03  0.7546771E-02  0.1210318E+00
         -1   -1    0    0    0  501 -0.00000000000E+00  0.00000000000E+00  0.33675942766E+03  0.33675942766E+03  0.00000000000E+00 0.  1.
         21   -1    0    0  501  502  0.00000000000E+00 -0.00000000000E+00 -0.89688042046E+02  0.89688042046E+02  0.00000000000E+00 0.  1.
         23    2    1    2    0    0 -0.53276680871E+02 -0.80108117174E+02  0.12878907694E+03  0.18402056642E+03  0.89561305068E+02 0.  0.
         24    2    1    2    0    0  0.75111039587E+02  0.12102799120E+03  0.78693368059E+02  0.18144773037E+03  0.80257023105E+02 0.  0.
        -11    1    4    4    0    0  0.46043380495E+02  0.15347515355E+02  0.37665880957E+01  0.48679834642E+02  0.00000000000E+00 0.  1.
         12    1    4    4    0    0  0.29067659092E+02  0.10568047584E+03  0.74926779963E+02  0.13276789572E+03  0.00000000000E+00 0. -1.
        -11    1    3    3    0    0  0.32273091124E+01 -0.72159031007E+02  0.88169077892E+02  0.11397862772E+03  0.00000000000E+00 0. -1.
         11    1    3    3    0    0 -0.56503989983E+02 -0.79490861667E+01  0.40619999050E+02  0.70041938706E+02  0.00000000000E+00 0.  1.
         -2    1    1    2    0  502 -0.21834358716E+02 -0.40919874023E+02  0.39588940612E+02  0.60979172915E+02  0.00000000000E+00 0.  1.
<scales pt_clust_5="13000.00000" pt_clust_6="13000.00000" pt_clust_7="13000.00000" pt_clust_8="13000.00000" pt_clust_9="46.38079"></scales>
<clustering>
<clus scale="   46.381">  2  9  1 -1</clus>
<clus scale="   80.257">  5  6 -1 -1</clus>
<clus scale="   89.561">  7  8 -1 -1</clus>
<clus scale="  138.077">  2  5  1 -1</clus>
<clus scale="   46.381">  2  5  1 -1</clus>
</clustering>
</event>
<event>
 9    2  0.3745229E-005  0.9337058E+02  0.7546771E-02  0.1300502E+00
          2   -1    0    0  502    0 -0.00000000000E+00  0.00000000000E+00  0.95775800418E+03  0.95775800418E+03  0.00000000000E+00 0. -1.
         21   -1    0    0  501  502  0.00000000000E+00 -0.00000000000E+00 -0.26235721858E+02  0.26235721858E+02  0.00000000000E+00 0. -1.
         24    2    1    2    0    0  0.24494037233E+02  0.45818203100E+02  0.54452392576E+03  0.55279969634E+03  0.79887001189E+02 0.  0.
         23    2    1    2    0    0  0.34680815164E+02  0.18729684292E+02  0.25155229658E+03  0.26990631135E+03  0.89539371113E+02 0.  0.
        -13    1    3    3    0    0  0.30800751277E+02  0.36607188237E+01  0.72519276235E+02  0.78874156523E+02  0.00000000000E+00 0.  1.
         14    1    3    3    0    0 -0.63067140449E+01  0.42157484276E+02  0.47200464952E+03  0.47392553982E+03  0.00000000000E+00 0. -1.
        -11    1    4    4    0    0  0.53485915943E+02 -0.14344964621E+02  0.10763357274E+03  0.12104341038E+03  0.00000000000E+00 0.  1.
         11    1    4    4    0    0 -0.18805100779E+02  0.33074648912E+02  0.14391872384E+03  0.14886290098E+03  0.00000000000E+00 0. -1.
          1    1    1    2  501    0 -0.59174852397E+02 -0.64547887391E+02  0.13544605999E+03  0.16128771834E+03  0.00000000000E+00 0. -1.
<scales pt_clust_5="13000.00000" pt_clust_6="13000.00000" pt_clust_7="13000.00000" pt_clust_8="13000.00000" pt_clust_9="87.56765"></scales>
<clustering>
<clus scale="   79.887">  5  6 -1 -1</clus>
<clus scale="   87.568">  2  9  1 -1</clus>
<clus scale="   84.159">  1  5  2 -1</clus>
<clus scale="   89.539">  7  8 -1 -1</clus>
<clus scale="   87.568">  2  5  1 -1</clus>
</clustering>
</event>
<event>
 9    2  0.3745229E-005  0.9284820E+02  0.7546771E-02  0.1303579E+00
         21   -1    0    0  501  502  0.00000000000E+00  0.00000000000E+00  0.12357125354E+03  0.12357125354E+03  0.00000000000E+00 0. -1.
          2   -1    0    0  502    0 -0.00000000000E+00 -0.00000000000E+00 -0.26005025966E+03  0.26005025966E+03  0.00000000000E+00 0. -1.
         24    2    1    2    0    0  0.55744878644E+01  0.14538882807E+02 -0.17608326561E+03  0.19374410257E+03  0.79303258609E+02 0.  0.
         23    2    1    2    0    0 -0.61582240010E+02  0.25101581398E+02  0.54362502073E+01  0.11322437703E+03  0.91475379547E+02 0.  0.
        -11    1    3    3    0    0 -0.11125577441E+01 -0.23999788505E+02 -0.15795462729E+02  0.28752813355E+02  0.00000000000E+00 0.  1.
         12    1    3    3    0    0  0.66870456085E+01  0.38538671312E+02 -0.16028780288E+03  0.16499128922E+03  0.00000000000E+00 0. -1.
        -11    1    4    4    0    0  0.23446624077E+02  0.13923430951E+02  0.29452536793E+01  0.27427734673E+02  0.00000000000E+00 0.  1.
         11    1    4    4    0    0 -0.85028864087E+02  0.11178150446E+02  0.24909965281E+01  0.85796642353E+02  0.00000000000E+00 0. -1.
          1    1    1    2  501    0  0.56007752146E+02 -0.39640464204E+02  0.34168009277E+02  0.76653033604E+02  0.00000000000E+00 0. -1.
<scales pt_clust_5="13000.00000" pt_clust_6="13000.00000" pt_clust_7="13000.00000" pt_clust_8="13000.00000" pt_clust_9="68.61658"></scales>
<clustering>
<clus scale="   68.617">  1  9  2 -1</clus>
<clus scale="   79.303">  5  6 -1 -1</clus>
<clus scale="   80.883">  2  5  1 -1</clus>
<clus scale="   91.475">  7  8 -1 -1</clus>
<clus scale="   68.617">  1  5  2 -1</clus>
</clustering>
</event>
<event>
 9    2  0.3745229E-005  0.9985071E+02  0.7546771E-02  0.1286398E+00
         21   -1    0    0  501  502  0.00000000000E+00  0.00000000000E+00  0.38796203714E+03  0.38796203714E+03  0.00000000000E+00 0.  1.
         -1   -1    0    0    0  501 -0.00000000000E+00 -0.00000000000E+00 -0.63972104762E+02  0.63972104762E+02  0.00000000000E+00 0.  1.
         23    2    1    2    0    0 -0.32964825379E+02 -0.98298890297E+01  0.13205322072E+03  0.16433272576E+03  0.91563558377E+02 0.  0.
         24    2    1    2    0    0 -0.48514297167E+00  0.69922218411E+02  0.19123740291E+03  0.21882294956E+03  0.80139796533E+02 0.  0.
        -13    1    4    4    0    0  0.32501892678E+02  0.46216115257E+02  0.15274776193E+03  0.16286246072E+03  0.00000000000E+00 0.  1.
         14    1    4    4    0    0 -0.32987035650E+02  0.23706103154E+02  0.38489640980E+02  0.55960488834E+02  0.00000000000E+00 0. -1.
        -13    1    3    3    0    0 -0.20983543045E+02  0.39471761297E+02  0.80006234125E+02  0.91647839677E+02  0.00000000000E+00 0. -1.
         13    1    3    3    0    0 -0.11981282334E+02 -0.49301650327E+02  0.52046986591E+02  0.72684886080E+02  0.00000000000E+00 0.  1.
         -2    1    1    2    0  502  0.33449968351E+02 -0.60092329381E+02  0.69930874464E+00  0.68778466585E+02  0.00000000000E+00 0.  1.
<scales pt_clust_5="13000.00000" pt_clust_6="13000.00000" pt_clust_7="13000.00000" pt_clust_8="13000.00000" pt_clust_9="68.77495"></scales>
<clustering>
<clus scale="   68.775">  1  9  2 -1</clus>
<clus scale="   80.140">  5  6 -1 -1</clus>
<clus scale="   89.491">  1  5  2 -1</clus>
<clus scale="   91.564">  7  8 -1 -1</clus>
<clus scale="   68.775">  1  5  2 -1</clus>
</clustering>
</event>
<event>
 9    2  0.3745229E-005  0.9489123E+02  0.7546771E-02  0.1298052E+00
          4   -1    0    0  502    0 -0.00000000000E+00  0.00000000000E+00  0.42388223068E+02  0.42388223068E+02  0.00000000000E+00 0. -1.
         21   -1    0    0  501  502  0.00000000000E+00 -0.00000000000E+00 -0.38563451659E+03  0.38563451659E+03  0.00000000000E+00 0. -1.
         24    2    1    2    0    0  0.42887820047E+02  0.19354143538E+02 -0.98778799658E+02  0.13604675559E+03  0.80854934690E+02 0.  0.
         23    2    1    2    0    0  0.20990289742E+02 -0.10897286946E+02 -0.14561049900E+03  0.17397328594E+03  0.92222251510E+02 0.  0.
        -11    1    3    3    0    0 -0.22516888177E+02  0.16130139803E+02 -0.24012417301E+02  0.36657711984E+02  0.00000000000E+00 0.  1.
         12    1    3    3    0    0  0.65404708223E+02  0.32240037349E+01 -0.74766382357E+02  0.99389043605E+02  0.00000000000E+00 0. -1.
        -13    1    4    4    0    0  0.23900880427E+02 -0.38118068331E+02 -0.27497099065E+02  0.52728831539E+02  0.00000000000E+00 0.  1.
         13    1    4    4    0    0 -0.29105906851E+01  0.27220781385E+02 -0.11811339994E+03  0.12124445440E+03  0.00000000000E+00 0. -1.
          3    1    1    2  501    0 -0.63878109789E+02 -0.84568565921E+01 -0.98856994862E+02  0.11800269813E+03  0.00000000000E+00 0. -1.
<scales pt_clust_5="13000.00000" pt_clust_6="13000.00000" pt_clust_7="13000.00000" pt_clust_8="13000.00000" pt_clust_9="64.43548"></scales>
<clustering>
<clus scale="   64.435">  2  9  1 -1</clus>
<clus scale="   80.855">  5  6 -1 -1</clus>
<clus scale="   83.886">  1  5  2 -1</clus>
<clus scale="   92.222">  7  8 -1 -1</clus>
<clus scale="   64.435">  2  5  1 -1</clus>
</clustering>
</event>
<event>
 9    2  0.6487681E-005  0.1355057E+03  0.7546771E-02  0.1221614E+00
         21   -1    0    0  501  502  0.00000000000E+00  0.00000000000E+00  0.54153664438E+03  0.54153664438E+03  0.00000000000E+00 0. -1.
         -1   -1    0    0    0  501 -0.00000000000E+00 -0.00000000000E+00 -0.36427983751E+03  0.36427983751E+03  0.00000000000E+00 0.  1.
         24    2    1    2    0    0  0.80341591125E+02  0.64475794028E+02 -0.33708026741E+03  0.36156439874E+03  0.80584170161E+02 0.  0.
         23    2    1    2    0    0 -0.33497773721E+02 -0.68818656420E+02  0.25849022070E+03  0.28411593386E+03  0.89702627379E+02 0.  0.
        -13    1    3    3    0    0  0.38229168150E+02  0.26040332638E+02 -0.26814795175E+03  0.27210823627E+03  0.00000000000E+00 0.  1.
         14    1    3    3    0    0  0.42112422975E+02  0.38435461390E+02 -0.68932315664E+02  0.89456162470E+02  0.00000000000E+00 0. -1.
        -11    1    4    4    0    0  0.18865194551E+02 -0.61825301919E+02  0.15448749510E+03  0.16746536855E+03  0.00000000000E+00 0.  1.
         11    1    4    4    0    0 -0.52362968272E+02 -0.69933545013E+01  0.10400272560E+03  0.11665056531E+03  0.00000000000E+00 0. -1.
         -2    1    1    2    0  502 -0.46843817404E+02  0.43428623921E+01  0.25584685358E+03  0.26013614929E+03  0.00000000000E+00 0.  1.
<scales pt_clust_5="13000.00000" pt_clust_6="13000.00000" pt_clust_7="13000.00000" pt_clust_8="13000.00000" pt_clust_9="47.04470"></scales>
<clustering>
<clus scale="   47.045">  1  9  2 -1</clus>
<clus scale="   80.584">  5  6 -1 -1</clus>
<clus scale="   89.703">  7  8 -1 -1</clus>
<clus scale="  129.650">  2  5  1 -1</clus>
<clus scale="   47.045">  1  5  2 -1</clus>
</clustering>
</event>
<event>
 9    2  0.3745229E-005  0.1155465E+03  0.7546771E-02  0.1253364E+00
         -1   -1    0    0    0  501 -0.00000000000E+00  0.00000000000E+00  0.20041766263E+03  0.20041766263E+03  0.00000000000E+00 0.  1.
         21   -1    0    0  501  502  0.00000000000E+00 -0.00000000000E+00 -0.15042287303E+03  0.15042287303E+03  0.00000000000E+00 0. -1.
         24    2    1    2    0    0  0.65058108756E+02  0.58154610904E+00  0.77595677235E+02  0.13022144832E+03  0.81875764221E+02 0.  0.
         23    2    1    2    0    0 -0.88039598161E+02 -0.71073177284E+02 -0.23040820589E+02  0.14633575723E+03  0.89893865508E+02 0.  0.
        -13    1    3    3    0    0  0.67140026330E+02 -0.29750987240E+02  0.47614350859E+02  0.87521601819E+02  0.00000000000E+00 0.  1.
         14    1    3    3    0    0 -0.20819175734E+01  0.30332533349E+02  0.29981326376E+02  0.42699846503E+02  0.00000000000E+00 0. -1.
        -13    1    4    4    0    0 -0.58553800153E+02 -0.48149830922E+02  0.29946088209E+02  0.81509029740E+02  0.00000000000E+00 0.  1.
         13    1    4    4    0    0 -0.29485798008E+02 -0.22923346362E+02 -0.52986908798E+02  0.64826727486E+02  0.00000000000E+00 0. -1.
         -2    1    1    2    0  502  0.22981489405E+02  0.70491631175E+02 -0.45600670525E+01  0.74283330112E+02  0.00000000000E+00 0.  1.
<scales pt_clust_5="13000.00000" pt_clust_6="13000.00000" pt_clust_7="13000.00000" pt_clust_8="13000.00000" pt_clust_9="74.14323"></scales>
<clustering>
<clus scale="   74.143">  2  9  1 -1</clus>
<clus scale="   81.876">  5  6 -1 -1</clus>
<clus scale="   89.894">  7  8 -1 -1</clus>
<clus scale="  109.424">  1  5  2 -1</clus>
<clus scale="   74.143">  2  5  1 -1</clus>
</clustering>
</event>
<event>
 9    2  0.3745229E-005  0.8676090E+02  0.7546771E-02  0.1315118E+00
         21   -1    0    0  501  502  0.00000000000E+00  0.00000000000E+00  0.36274085497E+03  0.36274085497E+03  0.00000000000E+00 0. -1.
         -1   -1    0    0    0  501 -0.00000000000E+00 -0.00000000000E+00 -0.50296871732E+02  0.50296871732E+02  0.00000000000E+00 0.  1.
         23    2    1    2    0    0 -0.49784684838E+00 -0.29659019656E+01  0.75356510087E+01  0.86872014275E+02  0.86492290998E+02 0.  0.
         24    2    1    2    0    0 -0.21456878427E+02  0.16651748249E+02  0.18378222585E+03  0.20230754355E+03  0.80092179946E+02 0.  0.
        -11    1    4    4    0    0 -0.17151312814E+02 -0.24929546089E+02  0.13365065601E+03  0.13703338153E+03  0.00000000000E+00 0.  1.
         12    1    4    4    0    0 -0.43055656127E+01  0.41581294338E+02  0.50131569837E+02  0.65274162028E+02  0.00000000000E+00 0. -1.
        -13    1    3    3    0    0 -0.33106363823E+02  0.85921060384E+01  0.30104933139E+02  0.45564927423E+02  0.00000000000E+00 0. -1.
         13    1    3    3    0    0  0.32608516975E+02 -0.11558008004E+02 -0.22569282130E+02  0.41307086852E+02  0.00000000000E+00 0.  1.
         -2    1    1    2    0  502  0.21954725275E+02 -0.13685846283E+02  0.12112610638E+03  0.12385816887E+03  0.00000000000E+00 0.  1.
<scales pt_clust_5="13000.00000" pt_clust_6="13000.00000" pt_clust_7="13000.00000" pt_clust_8="13000.00000" pt_clust_9="25.87107"></scales>
<clustering>
<clus scale="   25.871">  1  9  2 -1</clus>
<clus scale="   80.092">  5  6 -1 -1</clus>
<clus scale="   80.382">  1  5  2 -1</clus>
<clus scale="   86.492">  7  8 -1 -1</clus>
<clus scale="   25.871">  1  5  2 -1</clus>
</clustering>
</event>
<event>
 9    2  0.3745229E-005  0.1323874E+03  0.7546771E-02  0.1248364E+00
          2   -1    0    0  502    0 -0.00000000000E+00  0.00000000000E+00  0.31885808458E+03  0.31885808458E+03  0.00000000000E+00 0. -1.
         21   -1    0    0  501  502  0.00000000000E+00 -0.00000000000E+00 -0.21521213226E+03  0.21521213226E+03  0.00000000000E+00 0. -1.
         24    2    1    2    0    0  0.35725753950E+01 -0.69720547194E+01  0.15486712981E+03  0.17448603431E+03  0.80001096439E+02 0.  0.
         23    2    1    2    0    0 -0.83423762327E+02 -0.46475178028E+02  0.11004316806E+03  0.17186362456E+03  0.91149000625E+02 0.  0.
        -11    1    3    3    0    0  0.39649023043E+02 -0.88421475711E+01  0.10747164277E+03  0.11489291798E+03  0.00000000000E+00 0.  1.
         12    1    3    3    0    0 -0.36076447648E+02  0.18700928517E+01  0.47395487033E+02  0.59593116324E+02  0.00000000000E+00 0. -1.
        -13    1    4    4    0    0 -0.66255343963E+02 -0.58268388741E+02  0.11986325093E+03  0.14883606638E+03  0.00000000000E+00 0. -1.
         13    1    4    4    0    0 -0.17168418364E+02  0.11793210712E+02 -0.98200828733E+01  0.23027558178E+02  0.00000000000E+00 0.  1.
          1    1    1    2  501    0  0.79851186932E+02  0.53447232748E+02 -0.16126434555E+03  0.18772055798E+03  0.00000000000E+00 0. -1.
<scales pt_clust_5="13000.00000" pt_clust_6="13000.00000" pt_clust_7="13000.00000" pt_clust_8="13000.00000" pt_clust_9="96.01187"></scales>
<clustering>
<clus scale="   80.001">  5  6 -1 -1</clus>
<clus scale="   80.384">  1  5  2 -1</clus>
<clus scale="   91.149">  7  8 -1 -1</clus>
<clus scale="   96.012">  2  9  1 -1</clus>
<clus scale="   96.012">  2  5  1 -1</clus>
</clustering>
</event>
<event>
 9    2  0.3745229E-005  0.1057892E+03  0.7546771E-02  0.1273597E+00
         21   -1    0    0  501  502  0.00000000000E+00  0.00000000000E+00  0.75497431056E+02  0.75497431056E+02  0.00000000000E+00 0. -1.
         -3   -1    0    0    0  501 -0.00000000000E+00 -0.00000000000E+00 -0.57270593002E+03  0.57270593002E+03  0.00000000000E+00 0.  1.
         23    2    1    2    0    0 -0.12983257094E+02  0.47403372113E+02 -0.45865010630E+03  0.47041009200E+03  0.92250149018E+02 0.  0.
         24    2    1    2    0    0  0.58883148599E+02 -0.62630191687E+02 -0.34976387711E+01  0.11806126310E+03  0.80848390632E+02 0.  0.
        -13    1    4    4    0    0  0.32374501109E+01 -0.42248465796E+02 -0.31224747901E+02  0.52634578243E+02  0.00000000000E+00 0.  1.
         14    1    4    4    0    0  0.55645698488E+02 -0.20381725891E+02  0.27727109130E+02  0.65426684856E+02  0.00000000000E+00 0. -1.
        -13    1    3    3    0    0 -0.38334062676E+02 -0.11175459429E+02 -0.20497143866E+03  0.20882452423E+03  0.00000000000E+00 0.  1.
         13    1    3    3    0    0  0.25350805582E+02  0.58578831542E+02 -0.25367866764E+03  0.26158556776E+03  0.00000000000E+00 0. -1.
         -4    1    1    2    0  502 -0.45899891505E+02  0.15226819574E+02 -0.35060753894E+02  0.59732005978E+02  0.00000000000E+00 0.  1.
<scales pt_clust_5="13000.00000" pt_clust_6="13000.00000" pt_clust_7="13000.00000" pt_clust_8="13000.00000" pt_clust_9="48.35965"></scales>
<clustering>
<clus scale="   48.360">  1  9  2 -1</clus>
<clus scale="   80.848">  5  6 -1 -1</clus>
<clus scale="   92.250">  7  8 -1 -1</clus>
<clus scale="   96.009">  1  5  2 -1</clus>
<clus scale="   48.360">  1  5  2 -1</clus>
</clustering>
</event>
<event>
 9    2  0.3745229E-005  0.9585271E+02  0.7546771E-02  0.1294624E+00
          2   -1    0    0  502    0 -0.00000000000E+00  0.00000000000E+00  0.75053430136E+02  0.75053430136E+02  0.00000000000E+00 0. -1.
         21   -1    0    0  501  502  0.00000000000E+00 -0.00000000000E+00 -0.29398209682E+03  0.29398209682E+03  0.00000000000E+00 0.  1.
         24    2    1    2    0    0  0.21397353041E+02  0.25956276851E+02  0.31989391356E+02  0.93342571320E+02  0.80981105427E+02 0.  0.
         23    2    1    2    0    0 -0.44487853728E+01 -0.15283485896E+02 -0.18259326481E+03  0.20449295717E+03  0.90684577207E+02 0.  0.
        -13    1    3    3    0    0 -0.13606072723E+02  0.43459338595E+02  0.29222859069E+02  0.54109285878E+02  0.00000000000E+00 0.  1.
         14    1    3    3    0    0  0.35003425764E+02 -0.17503061744E+02  0.27665322868E+01  0.39233285442E+02  0.00000000000E+00 0. -1.
        -13    1    4    4    0    0 -0.57100212340E+01  0.33593393615E+02 -0.34305964132E+02  0.48353072416E+02  0.00000000000E+00 0.  1.
         13    1    4    4    0    0  0.12612358612E+01 -0.48876879511E+02 -0.14828730068E+03  0.15613988475E+03  0.00000000000E+00 0. -1.
          1    1    1    2  501    0 -0.16948567668E+02 -0.10672790955E+02 -0.68324793229E+02  0.71199998473E+02  0.00000000000E+00 0. -1.
<scales pt_clust_5="13000.00000" pt_clust_6="13000.00000" pt_clust_7="13000.00000" pt_clust_8="13000.00000" pt_clust_9="20.02904"></scales>
<clustering>
<clus scale="   20.029">  2  9  1 -1</clus>
<clus scale="   80.981">  5  6 -1 -1</clus>
<clus scale="   86.729">  1  5  2 -1</clus>
<clus scale="   90.685">  7  8 -1 -1</clus>
<clus scale="   20.029">  2  5  1 -1</clus>
</clustering>
</event>
<event>
 9    2  0.3745229E-005  0.9618376E+02  0.7546771E-02  0.1296057E+00
          2   -1    0    0  502    0 -0.00000000000E+00  0.00000000000E+00  0.24762380985E+03  0.24762380985E+03  0.00000000000E+00 0. -1.
         21   -1    0    0  501  502  0.00000000000E+00 -0.00000000000E+00 -0.12823999029E+03  0.12823999029E+03  0.00000000000E+00 0.  1.
         23    2    1    2    0    0 -0.12983406715E+02  0.20488469890E+02  0.19964366922E+03  0.22194253922E+03  0.93875182061E+02 0.  0.
         24    2    1    2    0    0 -0.10466491943E+02  0.47512781732E+01 -0.86396345343E+02  0.11892698698E+03  0.80914631839E+02 0.  0.
        -13    1    4    4    0    0  0.13580598925E+02 -0.33302511997E+02 -0.30487295052E+02  0.47148331169E+02  0.00000000000E+00 0.  1.
         14    1    4    4    0    0 -0.24047090868E+02  0.38053790170E+02 -0.55909050291E+02  0.71778655810E+02  0.00000000000E+00 0. -1.
        -11    1    3    3    0    0 -0.16615652438E+02  0.45013103052E+02  0.18894191116E+03  0.19493923449E+03  0.00000000000E+00 0. -1.
         11    1    3    3    0    0  0.36322457225E+01 -0.24524633162E+02  0.10701758066E+02  0.27003304731E+02  0.00000000000E+00 0.  1.
          1    1    1    2  501    0  0.23449898658E+02 -0.25239748063E+02  0.61364956733E+01  0.34994273939E+02  0.00000000000E+00 0. -1.
<scales pt_clust_5="13000.00000" pt_clust_6="13000.00000" pt_clust_7="13000.00000" pt_clust_8="13000.00000" pt_clust_9="34.45203"></scales>
<clustering>
<clus scale="   34.452">  2  9  1 -1</clus>
<clus scale="   80.915">  5  6 -1 -1</clus>
<clus scale="   83.582">  2  5  1 -1</clus>
<clus scale="   93.875">  7  8 -1 -1</clus>
<clus scale="   34.452">  2  5  1 -1</clus>
</clustering>
</event>
<event>
 9    2  0.3745229E-005  0.1127464E+03  0.7546771E-02  0.1259935E+00
          2   -1    0    0  502    0 -0.00000000000E+00  0.00000000000E+00  0.13326858263E+03  0.13326858263E+03  0.00000000000E+00 0. -1.
         21   -1    0    0  501  502  0.00000000000E+00 -0.00000000000E+00 -0.15398728529E+03  0.15398728529E+03  0.00000000000E+00 0. -1.
         23    2    1    2    0    0  0.70766831163E+01 -0.55606120804E+02  0.96039046465E+01  0.10838316553E+03  0.92263511049E+02 0.  0.
         24    2    1    2    0    0  0.31387373534E+02  0.71106830482E+02  0.19897420381E+02  0.11374354735E+03  0.80624677788E+02 0.  0.
        -11    1    4    4    0    0 -0.17744448668E+02  0.38312783954E+02  0.32574428451E+02  0.53327556307E+02  0.00000000000E+00 0.  1.
         12    1    4    4    0    0  0.49131822202E+02  0.32794046529E+02 -0.12677008070E+02  0.60415991047E+02  0.00000000000E+00 0. -1.
        -13    1    3    3    0    0 -0.13205584339E+02 -0.73776457391E+02 -0.88772717191E+01  0.75472902926E+02  0.00000000000E+00 0. -1.
         13    1    3    3    0    0  0.20282267456E+02  0.18170336587E+02  0.18481176366E+02  0.32910262604E+02  0.00000000000E+00 0.  1.
          1    1    1    2  501    0 -0.38464056650E+02 -0.15500709678E+02 -0.50220027687E+02  0.65129155033E+02  0.00000000000E+00 0. -1.
<scales pt_clust_5="13000.00000" pt_clust_6="13000.00000" pt_clust_7="13000.00000" pt_clust_8="13000.00000" pt_clust_9="41.46994"></scales>
<clustering>
<clus scale="   41.470">  2  9  1 -1</clus>
<clus scale="   80.625">  5  6 -1 -1</clus>
<clus scale="   92.264">  7  8 -1 -1</clus>
<clus scale="  103.439">  2  5  1 -1</clus>
<clus scale="   41.470">  2  5  1 -1</clus>
</clustering>
</event>
<event>
 9    2  0.3745229E-005  0.9359704E+02  0.7546771E-02  0.1302160E+00
          4   -1    0    0  502    0 -0.00000000000E+00  0.00000000000E+00  0.67642860353E+02  0.67642860353E+02  0.00000000000E+00 0. -1.
         21   -1    0    0  501  502  0.00000000000E+00 -0.00000000000E+00 -0.24043861707E+03  0.24043861707E+03  0.00000000000E+00 0. -1.
         24    2    1    2    0    0  0.34428149144E+02  0.17485165825E+02 -0.38698167115E+02  0.97123447753E+02  0.80276942443E+02 0.  0.
         23    2    1    2    0    0  0.24301413454E+02  0.10099777982E+02 -0.66569237765E+02  0.11730884948E+03  0.92937282825E+02 0.  0.
        -13    1    3    3    0    0 -0.25992834988E+02  0.90057726307E+01 -0.70838737627E+01  0.28406208456E+02  0.00000000000E+00 0.  1.
         14    1    3    3    0    0  0.60420984132E+02  0.84793931943E+01 -0.31614293352E+02  0.68717239297E+02  0.00000000000E+00 0. -1.
        -11    1    4    4    0    0 -0.23766053454E+02 -0.32931181107E+01 -0.62847691924E+02  0.67271853727E+02  0.00000000000E+00 0. -1.
         11    1    4    4    0    0  0.48067466908E+02  0.13392896092E+02 -0.37215458410E+01  0.50036995755E+02  0.00000000000E+00 0.  1.
          3    1    1    2  501    0 -0.58729562598E+02 -0.27584943807E+02 -0.67528351834E+02  0.93649180184E+02  0.00000000000E+00 0. -1.
<scales pt_clust_5="13000.00000" pt_clust_6="13000.00000" pt_clust_7="13000.00000" pt_clust_8="13000.00000" pt_clust_9="64.88521"></scales>
<clustering>
<clus scale="   64.885">  2  9  1 -1</clus>
<clus scale="   80.277">  5  6 -1 -1</clus>
<clus scale="   81.040">  1  5  2 -1</clus>
<clus scale="   92.937">  7  8 -1 -1</clus>
<clus scale="   64.885">  2  5  1 -1</clus>
</clustering>
</event>
<event>
 9    2  0.3745229E-005  0.1699550E+03  0.7546771E-02  0.1178815E+00
          2   -1    0    0  502    0 -0.00000000000E+00  0.00000000000E+00  0.16033302715E+03  0.16033302715E+03  0.00000000000E+00 0. -1.
         21   -1    0    0  501  502  0.00000000000E+00 -0.00000000000E+00 -0.35458389937E+03  0.35458389937E+03  0.00000000000E+00 0.  1.
         24    2    1    2    0    0  0.79597070841E+02 -0.99139560394E+02  0.65189892248E+00  0.15229264674E+03  0.83834832604E+02 0.  0.
         23    2    1    2    0    0 -0.16425603416E+03  0.10967901128E+03 -0.16265943540E+03  0.27142201667E+03  0.90566489042E+02 0.  0.
        -11    1    3    3    0    0 -0.22341814585E+01 -0.39043159996E+02  0.26852368500E+02  0.47438482304E+02  0.00000000000E+00 0.  1.
         12    1    3    3    0    0  0.81831252299E+02 -0.60096400398E+02 -0.26200469578E+02  0.10485416444E+03  0.00000000000E+00 0. -1.
        -13    1    4    4    0    0 -0.11102619736E+03  0.22958049935E+02 -0.66604049764E+02  0.13149139897E+03  0.00000000000E+00 0. -1.
         13    1    4    4    0    0 -0.53229836799E+02  0.86720961349E+02 -0.96055385631E+02  0.13993061771E+03  0.00000000000E+00 0.  1.
          1    1    1    2  501    0  0.84658963318E+02 -0.10539450891E+02 -0.32243335748E+02  0.91202263104E+02  0.00000000000E+00 0. -1.
<scales pt_clust_5="13000.00000" pt_clust_6="13000.00000" pt_clust_7="13000.00000" pt_clust_8="13000.00000" pt_clust_9="85.31253"></scales>
<clustering>
<clus scale="   83.835">  5  6 -1 -1</clus>
<clus scale="   85.313">  2  9  1 -1</clus>
<clus scale="   90.566">  7  8 -1 -1</clus>
<clus scale="  166.465">  1  5  2 -1</clus>
<clus scale="   85.313">  2  5  1 -1</clus>
</clustering>
</event>
<event>
 9    2  0.3745229E-005  0.8864110E+02  0.7546771E-02  0.1311032E+00
         21   -1    0    0  501  502  0.00000000000E+00  0.00000000000E+00  0.29010392868E+03  0.29010392868E+03  0.00000000000E+00 0. -1.
          4   -1    0    0  502    0 -0.00000000000E+00 -0.00000000000E+00 -0.19315142147E+03  0.19315142147E+03  0.00000000000E+00 0. -1.
         23    2    1    2    0    0  0.15711402067E+01 -0.21757496079E+01 -0.14808455173E+03  0.17240124389E+03  0.88238042060E+02 0.  0.
         24    2    1    2    0    0 -0.66465915710E+02 -0.10032944927E+02  0.76783809691E+02  0.13010693479E+03  0.80707391949E+02 0.  0.
        -13    1    4    4    0    0 -0.20554261790E+02 -0.27333025186E+02 -0.51718031441E+01  0.34587851789E+02  0.00000000000E+00 0.  1.
         14    1    4    4    0    0 -0.45911653919E+02  0.17300080260E+02  0.81955612835E+02  0.95519083004E+02  0.00000000000E+00 0. -1.
        -11    1    3    3    0    0 -0.21834707880E+02 -0.37293963393E+02 -0.53102167539E+02  0.68464840401E+02  0.00000000000E+00 0.  1.
         11    1    3    3    0    0  0.23405848087E+02  0.35118213785E+02 -0.94982384193E+02  0.10393640349E+03  0.00000000000E+00 0. -1.
          3    1    1    2  501    0  0.64894775503E+02  0.12208694535E+02  0.16825324925E+03  0.18074717146E+03  0.00000000000E+00 0. -1.
<scales pt_clust_5="13000.00000" pt_clust_6="13000.00000" pt_clust_7="13000.00000" pt_clust_8="13000.00000" pt_clust_9="66.03320"></scales>
<clustering>
<clus scale="   66.033">  1  9  2 -1</clus>
<clus scale="   80.707">  5  6 -1 -1</clus>
<clus scale="   81.148">  1  5  2 -1</clus>
<clus scale="   88.238">  7  8 -1 -1</clus>
<clus scale="   66.033">  1  5  2 -1</clus>
</clustering>
</event>
<event>
 9    2  0.3745229E-005  0.9235025E+02  0.7546771E-02  0.1303332E+00
         -1   -1    0    0    0  501 -0.00000000000E+00  0.00000000000E+00  0.43510573413E+03  0.43510573413E+03  0.00000000000E+00 0.  1.
         21   -1    0    0  501  502  0.00000000000E+00 -0.00000000000E+00 -0.52199575372E+02  0.52199575372E+02  0.00000000000E+00 0. -1.
         23    2    1    2    0    0  0.12964795531E+02  0.18652962377E+02  0.33902669377E+03  0.35155836304E+03  0.90211776421E+02 0.  0.
         24    2    1    2    0    0 -0.21511554365E+02  0.61250116444E+01  0.62080842209E+02  0.10383636491E+03  0.80172919171E+02 0.  0.
        -11    1    4    4    0    0  0.25948029596E+02 -0.16362319002E+01  0.46518178929E+02  0.53290885390E+02  0.00000000000E+00 0.  1.
         12    1    4    4    0    0 -0.47459583961E+02  0.77612435446E+01  0.15562663280E+02  0.50545479515E+02  0.00000000000E+00 0. -1.
        -11    1    3    3    0    0 -0.21488567632E+02  0.43382013166E+02  0.21816654130E+03  0.22347348243E+03  0.00000000000E+00 0. -1.
         11    1    3    3    0    0  0.34453363163E+02 -0.24729050789E+02  0.12086015247E+03  0.12808488061E+03  0.00000000000E+00 0.  1.
         -2    1    1    2    0  502  0.85467588336E+01 -0.24777974022E+02 -0.18201377216E+02  0.31910581564E+02  0.00000000000E+00 0.  1.
<scales pt_clust_5="13000.00000" pt_clust_6="13000.00000" pt_clust_7="13000.00000" pt_clust_8="13000.00000" pt_clust_9="26.21059"></scales>
<clustering>
<clus scale="   26.211">  2  9  1 -1</clus>
<clus scale="   80.173">  5  6 -1 -1</clus>
<clus scale="   82.572">  2  5  1 -1</clus>
<clus scale="   90.212">  7  8 -1 -1</clus>
<clus scale="   26.211">  2  5  1 -1</clus>
</clustering>
</event>
<event>
 9    2  0.3745229E-005  0.1327765E+03  0.7546771E-02  0.1239146E+00
         21   -1    0    0  501  502  0.00000000000E+00  0.00000000000E+00  0.59560059587E+02  0.59560059587E+02  0.00000000000E+00 0.  1.
          2   -1    0    0  502    0 -0.00000000000E+00 -0.00000000000E+00 -0.49724815084E+03  0.49724815084E+03  0.00000000000E+00 0. -1.
         23    2    1    2    0    0  0.30950140586E+02 -0.57800240735E+01 -0.11824309080E+03  0.15228900131E+03  0.90659756877E+02 0.  0.
         24    2    1    2    0    0 -0.43854068810E+01  0.10828888312E+03 -0.22637537644E+03  0.26353798280E+03  0.80378749197E+02 0.  0.
        -13    1    4    4    0    0  0.28058299948E+02  0.94355153487E+02 -0.18106974997E+03  0.20609807748E+03  0.00000000000E+00 0.  1.
         14    1    4    4    0    0 -0.32443706829E+02  0.13933729629E+02 -0.45305626468E+02  0.57439905326E+02  0.00000000000E+00 0. -1.
        -11    1    3    3    0    0 -0.29902066973E+02  0.40341562543E+01 -0.19628510483E+02  0.35995644871E+02  0.00000000000E+00 0.  1.
         11    1    3    3    0    0  0.60852207559E+02 -0.98141803278E+01 -0.98614580313E+02  0.11629335643E+03  0.00000000000E+00 0. -1.
          1    1    1    2  501    0 -0.26564733705E+02 -0.10250885904E+03 -0.93069624015E+02  0.14098122632E+03  0.00000000000E+00 0. -1.
<scales pt_clust_5="13000.00000" pt_clust_6="13000.00000" pt_clust_7="13000.00000" pt_clust_8="13000.00000" pt_clust_9="105.68280"></scales>
<clustering>
<clus scale="   80.379">  5  6 -1 -1</clus>
<clus scale="   90.660">  7  8 -1 -1</clus>
<clus scale="   95.971">  2  7  1 -1</clus>
<clus scale="  105.683">  1  9  2 -1</clus>
<clus scale="  105.683">  1  5  2 -1</clus>
</clustering>
</event>
<event>
 9    2  0.3745229E-005  0.1245737E+03  0.7546771E-02  0.1238232E+00
         -1   -1    0    0    0  501 -0.00000000000E+00  0.00000000000E+00  0.21933971196E+03  0.21933971196E+03  0.00000000000E+00 0.  1.
         21   -1    0    0  501  502  0.00000000000E+00 -0.00000000000E+00 -0.20877617549E+03  0.20877617549E+03  0.00000000000E+00 0. -1.
         24    2    1    2    0    0  0.77242348140E+02  0.25004604354E+02  0.14469045591E+03  0.18460421254E+03  0.80943045841E+02 0.  0.
         23    2    1    2    0    0 -0.11080273069E+03 -0.60019992963E+02 -0.10402417508E+03  0.18642794751E+03  0.89748013500E+02 0.  0.
        -13    1    3    3    0    0  0.42398437584E+02  0.63146592764E+01  0.13799724626E+03  0.14450170382E+03  0.00000000000E+00 0.  1.
         14    1    3    3    0    0  0.34843910556E+02  0.18689945078E+02  0.66932096462E+01  0.40102508715E+02  0.00000000000E+00 0. -1.
        -13    1    4    4    0    0 -0.19687306147E+02  0.23777665531E+02 -0.18950662498E+02  0.36222852049E+02  0.00000000000E+00 0.  1.
         13    1    4    4    0    0 -0.91115424541E+02 -0.83797658494E+02 -0.85073512587E+02  0.15020509546E+03  0.00000000000E+00 0. -1.
         -2    1    1    2    0  502  0.33560382549E+02  0.35015388608E+02 -0.30102744356E+02  0.57083727401E+02  0.00000000000E+00 0.  1.
<scales pt_clust_5="13000.00000" pt_clust_6="13000.00000" pt_clust_7="13000.00000" pt_clust_8="13000.00000" pt_clust_9="48.50131"></scales>
<clustering>
<clus scale="   48.501">  2  9  1 -1</clus>
<clus scale="   80.943">  5  6 -1 -1</clus>
<clus scale="   89.748">  7  8 -1 -1</clus>
<clus scale="  118.388">  1  5  2 -1</clus>
<clus scale="   48.501">  2  5  1 -1</clus>
</clustering>
</event>
<event>
 9    2  0.3745229E-005  0.1293749E+03  0.7546771E-02  0.1231543E+00
          2   -1    0    0  502    0 -0.00000000000E+00  0.00000000000E+00  0.13631980218E+04  0.13631980218E+04  0.00000000000E+00 0. -1.
         21   -1    0    0  501  502  0.00000000000E+00 -0.00000000000E+00 -0.56835789703E+02  0.56835789703E+02  0.00000000000E+00 0.  1.
         24    2    1    2    0    0 -0.38284730339E+02 -0.75994057512E+02  0.56432791541E+03  0.57611627118E+03  0.78760043466E+02 0.  0.
         23    2    1    2    0    0  0.48729908353E+01  0.16115608248E+03  0.13260096803E+03  0.22765629598E+03  0.90825896170E+02 0.  0.
        -11    1    3    3    0    0  0.17810253746E+02 -0.44270856369E+02  0.17055446843E+03  0.17710432113E+03  0.00000000000E+00 0.  1.
         12    1    3    3    0    0 -0.56094984085E+02 -0.31723201143E+02  0.39377344699E+03  0.39901195005E+03  0.00000000000E+00 0. -1.
        -13    1    4    4    0    0  0.42288471739E+02  0.12868011985E+03  0.99586576253E+02  0.16812011853E+03  0.00000000000E+00 0.  1.
         13    1    4    4    0    0 -0.37415480904E+02  0.32475962638E+02  0.33014391778E+02  0.59536177447E+02  0.00000000000E+00 0. -1.
          1    1    1    2  501    0  0.33411739504E+02 -0.85162024971E+02  0.60943334870E+03  0.61626124440E+03  0.00000000000E+00 0. -1.
<scales pt_clust_5="13000.00000" pt_clust_6="13000.00000" pt_clust_7="13000.00000" pt_clust_8="13000.00000" pt_clust_9="91.48182"></scales>
<clustering>
<clus scale="   78.760">  5  6 -1 -1</clus>
<clus scale="   90.826">  7  8 -1 -1</clus>
<clus scale="   91.482">  2  9  1 -1</clus>
<clus scale="  121.209">  1  5  2 -1</clus>
<clus scale="   91.482">  2  5  1 -1</clus>
</clustering>
</event>
<event>
 9    2  0.3745229E-005  0.9355882E+02  0.7546771E-02  0.1299622E+00
         21   -1    0    0  501  502  0.00000000000E+00  0.00000000000E+00  0.17805486466E+03  0.17805486466E+03  0.00000000000E+00 0.  1.
         -3   -1    0    0    0  501 -0.00000000000E+00 -0.00000000000E+00 -0.76949392923E+02  0.76949392923E+02  0.00000000000E+00 0.  1.
         24    2    1    2    0    0  0.83465080871E+01  0.36089841287E+02  0.11757784828E+02  0.90387542290E+02  0.81605891061E+02 0.  0.
         23    2    1    2    0    0  0.22355726378E+02 -0.35812335469E+01  0.55358132112E+02  0.10844976226E+03  0.90466703305E+02 0.  0.
        -13    1    3    3    0    0  0.33773542140E+02 -0.10536974645E+02 -0.22859042111E+01  0.35452860836E+02  0.00000000000E+00 0.  1.
         14    1    3    3    0    0 -0.25427034053E+02  0.46626815931E+02  0.14043689039E+02  0.54934681454E+02  0.00000000000E+00 0. -1.
        -13    1    4    4    0    0  0.23930877255E+02 -0.45253984946E+02  0.25733733635E+02  0.57296030285E+02  0.00000000000E+00 0. -1.
         13    1    4    4    0    0 -0.15751508771E+01  0.41672751399E+02  0.29624398476E+02  0.51153731971E+02  0.00000000000E+00 0.  1.
         -4    1    1    2    0  502 -0.30702234465E+02 -0.32508607740E+02  0.33989554802E+02  0.56166953041E+02  0.00000000000E+00 0.  1.
<scales pt_clust_5="13000.00000" pt_clust_6="13000.00000" pt_clust_7="13000.00000" pt_clust_8="13000.00000" pt_clust_9="44.71506"></scales>
<clustering>
<clus scale="   44.715">  1  9  2 -1</clus>
<clus scale="   81.606">  5  6 -1 -1</clus>
<clus scale="   85.021">  2  5  1 -1</clus>
<clus scale="   90.467">  7  8 -1 -1</clus>
<clus scale="   44.715">  1  5  2 -1</clus>
</clustering>
</event>
<event>
 9    2  0.3745229E-005  0.1599209E+03  0.7546771E-02  0.1213630E+00
         21   -1    0    0  501  502  0.00000000000E+00  0.00000000000E+00  0.77457419195E+02  0.77457419195E+02  0.00000000000E+00 0.  1.
          2   -1    0    0  502    0 -0.00000000000E+00 -0.00000000000E+00 -0.74357257307E+03  0.74357257307E+03  0.00000000000E+00 0. -1.
         23    2    1    2    0    0  0.14782353908E+01 -0.10091162343E+02 -0.61904013825E+02  0.11199404594E+03  0.92771453912E+02 0.  0.
         24    2    1    2    0    0 -0.13455515149E+03  0.35074478561E+02 -0.10538852388E+03  0.19216300827E+03  0.80526846102E+02 0.  0.
        -11    1    4    4    0    0 -0.11147207306E+03  0.22663038298E+01 -0.46259975584E+02  0.12071099597E+03  0.00000000000E+00 0.  1.
         12    1    4    4    0    0 -0.23083078429E+02  0.32808174731E+02 -0.59128548297E+02  0.71452012306E+02  0.00000000000E+00 0. -1.
        -11    1    3    3    0    0 -0.12051757886E+02  0.35758106793E+02 -0.50159896615E+02  0.62768641040E+02  0.00000000000E+00 0.  1.
         11    1    3    3    0    0  0.13529993277E+02 -0.45849269136E+02 -0.11744117210E+02  0.49225404899E+02  0.00000000000E+00 0. -1.
          1    1    1    2  501    0  0.13307691610E+03 -0.24983316218E+02 -0.49882261617E+03  0.51687293805E+03  0.00000000000E+00 0. -1.
<scales pt_clust_5="13000.00000" pt_clust_6="13000.00000" pt_clust_7="13000.00000" pt_clust_8="13000.00000" pt_clust_9="138.16708"></scales>
<clustering>
<clus scale="   80.527">  5  6 -1 -1</clus>
<clus scale="   92.771">  7  8 -1 -1</clus>
<clus scale="   93.330">  2  7  1 -1</clus>
<clus scale="  138.167">  1  9  2 -1</clus>
<clus scale="  138.167">  1  5  2 -1</clus>
</clustering>
</event>
<event>
 9    2  0.3745229E-005  0.1115317E+03  0.7546771E-02  0.1261804E+00
         21   -1    0    0  501  502  0.00000000000E+00  0.00000000000E+00  0.45745961451E+02  0.45745961451E+02  0.00000000000E+00 0. -1.
          2   -1    0    0  502    0 -0.00000000000E+00 -0.00000000000E+00 -0.43729107515E+03  0.43729107515E+03  0.00000000000E+00 0. -1.
         24    2    1    2    0    0 -0.59807889200E+02  0.11945173852E+02 -0.29173630385E+03  0.30894270572E+03  0.81337897956E+02 0.  0.
         23    2    1    2    0    0  0.64323970126E+02 -0.36279703515E+02 -0.82393985841E+02  0.14383147550E+03  0.91896324310E+02 0.  0.
        -13    1    3    3    0    0 -0.76421862079E+02  0.22711584179E+02 -0.25551604181E+03  0.26766502327E+03  0.00000000000E+00 0.  1.
         14    1    3    3    0    0  0.16613972879E+02 -0.10766410327E+02 -0.36220262042E+02  0.41277682451E+02  0.00000000000E+00 0. -1.
        -13    1    4    4    0    0  0.36647789244E+02  0.15425624569E+02  0.34014380852E+01  0.39907143858E+02  0.00000000000E+00 0.  1.
         13    1    4    4    0    0  0.27676180882E+02 -0.51705328084E+02 -0.85795423926E+02  0.10392433164E+03  0.00000000000E+00 0. -1.
          1    1    1    2  501    0 -0.45160809255E+01  0.24334529663E+02 -0.17414824013E+02  0.30262855388E+02  0.00000000000E+00 0. -1.
<scales pt_clust_5="13000.00000" pt_clust_6="13000.00000" pt_clust_7="13000.00000" pt_clust_8="13000.00000" pt_clust_9="24.75004"></scales>
<clustering>
<clus scale="   24.750">  1  9  2 -1</clus>
<clus scale="   81.338">  5  6 -1 -1</clus>
<clus scale="   91.896">  7  8 -1 -1</clus>
<clus scale="  103.006">  2  5  1 -1</clus>
<clus scale="   24.750">  1  5  2 -1</clus>
</clustering>
</event>
<event>
 9    2  0.3745229E-005  0.1548801E+03  0.7546771E-02  0.1217112E+00
          2   -1    0    0  502    0 -0.00000000000E+00  0.00000000000E+00  0.75650143237E+03  0.75650143237E+03  0.00000000000E+00 0. -1.
         21   -1    0    0  501  502  0.00000000000E+00 -0.00000000000E+00 -0.51373616157E+02  0.51373616157E+02  0.00000000000E+00 0.  1.
         24    2    1    2    0    0  0.58408909378E+00  0.51059225688E+02  0.28101707874E+03  0.29678320407E+03  0.80636753320E+02 0.  0.
         23    2    1    2    0    0 -0.80014646417E+02  0.66434072239E+02  0.25701910072E+03  0.29192637371E+03  0.91358414709E+02 0.  0.
        -13    1    3    3    0    0 -0.37316115957E+02  0.38958146561E+02  0.13330502447E+03  0.14380702084E+03  0.00000000000E+00 0.  1.
         14    1    3    3    0    0  0.37900205051E+02  0.12101079127E+02  0.14771205427E+03  0.15297618323E+03  0.00000000000E+00 0. -1.
        -13    1    4    4    0    0 -0.78574100619E+02  0.85482117461E+01  0.12683845868E+03  0.14944884012E+03  0.00000000000E+00 0. -1.
         13    1    4    4    0    0 -0.14405457977E+01  0.57885860493E+02  0.13018064204E+03  0.14247753359E+03  0.00000000000E+00 0.  1.
          1    1    1    2  501    0  0.79430557323E+02 -0.11749329793E+03  0.16709163675E+03  0.21916547074E+03  0.00000000000E+00 0. -1.
<scales pt_clust_5="13000.00000" pt_clust_6="13000.00000" pt_clust_7="13000.00000" pt_clust_8="13000.00000" pt_clust_9="125.06593"></scales>
<clustering>
<clus scale="   80.637">  5  6 -1 -1</clus>
<clus scale="   91.358">  7  8 -1 -1</clus>
<clus scale="   95.445">  1  5  2 -1</clus>
<clus scale="  125.066">  2  9  1 -1</clus>
<clus scale="  125.066">  2  5  1 -1</clus>
</clustering>
</event>
<event>
 9    2  0.3745229E-005  0.1344326E+03  0.7546771E-02  0.1235257E+00
         -1   -1    0    0    0  501 -0.00000000000E+00  0.00000000000E+00  0.22119354074E+03  0.22119354074E+03  0.00000000000E+00 0.  1.
         21   -1    0    0  501  502  0.00000000000E+00 -0.00000000000E+00 -0.53737552346E+03  0.53737552346E+03  0.00000000000E+00 0. -1.
         23    2    1    2    0    0 -0.13907639468E+01  0.58361480348E+02  0.15156544957E+03  0.18164044661E+03  0.81321397723E+02 0.  0.
         24    2    1    2    0    0  0.10062907445E+03  0.29529897536E+02 -0.41300033924E+03  0.43350483723E+03  0.79742950878E+02 0.  0.
        -11    1    4    4    0    0  0.18270226538E+02 -0.18518039140E+02 -0.34671361592E+02  0.43345383445E+02  0.00000000000E+00 0.  1.
         12    1    4    4    0    0  0.82358847913E+02  0.48047936676E+02 -0.37832897765E+03  0.39015945379E+03  0.00000000000E+00 0. -1.
        -13    1    3    3    0    0 -0.28158635093E+02  0.18456426709E+02  0.14982233857E+02  0.36851265222E+02  0.00000000000E+00 0. -1.
         13    1    3    3    0    0  0.26767871146E+02  0.39905053639E+02  0.13658321571E+03  0.14478918138E+03  0.00000000000E+00 0.  1.
         -2    1    1    2    0  502 -0.99238310504E+02 -0.87891377884E+02 -0.54747093046E+02  0.14342378037E+03  0.00000000000E+00 0.  1.
<scales pt_clust_5="13000.00000" pt_clust_6="13000.00000" pt_clust_7="13000.00000" pt_clust_8="13000.00000" pt_clust_9="108.22750"></scales>
<clustering>
<clus scale="   79.743">  5  6 -1 -1</clus>
<clus scale="   81.321">  7  8 -1 -1</clus>
<clus scale="  100.106">  1  7  2 -1</clus>
<clus scale="  108.227">  2  9  1 -1</clus>
<clus scale="  108.227">  2  5  1 -1</clus>
</clustering>
</event>
<event>
 9    2  0.3745229E-005  0.1447652E+03  0.7546771E-02  0.1208775E+00
         21   -1    0    0  501  502  0.00000000000E+00  0.00000000000E+00  0.21110283683E+03  0.21110283683E+03  0.00000000000E+00 0. -1.
          2   -1    0    0  502    0 -0.00000000000E+00 -0.00000000000E+00 -0.34663962393E+03  0.34663962393E+03  0.00000000000E+00 0. -1.
         24    2    1    2    0    0 -0.74267658326E+02  0.95443780190E+02 -0.28930104809E+03  0.32387061855E+03  0.81067138113E+02 0.  0.
         23    2    1    2    0    0  0.55774728436E+02 -0.32604390988E+02  0.10053513968E+03  0.14946735982E+03  0.89773663725E+02 0.  0.
        -13    1    3    3    0    0 -0.55259897284E+02  0.48171267442E+02 -0.80219734435E+02  0.10867075525E+03  0.00000000000E+00 0.  1.
         14    1    3    3    0    0 -0.19007761042E+02  0.47272512748E+02 -0.20908131365E+03  0.21519986329E+03  0.00000000000E+00 0. -1.
        -11    1    4    4    0    0  0.18065395823E+02 -0.11354239817E+02 -0.15005320970E+02  0.26085186323E+02  0.00000000000E+00 0.  1.
         11    1    4    4    0    0  0.37709332613E+02 -0.21250151171E+02  0.11554046065E+03  0.12338217350E+03  0.00000000000E+00 0. -1.
          1    1    1    2  501    0  0.18492929890E+02 -0.62839389203E+02  0.53229121314E+02  0.84404482388E+02  0.00000000000E+00 0. -1.
<scales pt_clust_5="13000.00000" pt_clust_6="13000.00000" pt_clust_7="13000.00000" pt_clust_8="13000.00000" pt_clust_9="65.50403"></scales>
<clustering>
<clus scale="   65.504">  1  9  2 -1</clus>
<clus scale="   81.067">  5  6 -1 -1</clus>
<clus scale="   89.774">  7  8 -1 -1</clus>
<clus scale="  139.533">  2  5  1 -1</clus>
<clus scale="   65.504">  1  5  2 -1</clus>
</clustering>
</event>
<event>
 9    2  0.3745229E-005  0.1137553E+03  0.7546771E-02  0.1256942E+00
         21   -1    0    0  501  502  0.00000000000E+00  0.00000000000E+00  0.22590714538E+03  0.22590714538E+03  0.00000000000E+00 0. -1.
         -1   -1    0    0    0  501 -0.00000000000E+00 -0.00000000000E+00 -0.12325657109E+03  0.12325657109E+03  0.00000000000E+00 0.  1.
         23    2    1    2    0    0  0.58736098411E+02 -0.47812037104E+02 -0.35823211934E+02  0.12347796137E+03  0.90706032230E+02 0.  0.
         24    2    1    2    0    0 -0.41739874173E+02  0.13283938231E+02  0.15744727543E+03  0.18277824360E+03  0.81850850214E+02 0.  0.
        -11    1    4    4    0    0 -0.18294858214E+02 -0.29104772280E+02  0.27268117457E+02  0.43878694559E+02  0.00000000000E+00 0.  1.
         12    1    4    4    0    0 -0.23445015959E+02  0.42388710511E+02  0.13017915798E+03  0.13889954904E+03  0.00000000000E+00 0. -1.
        -13    1    3    3    0    0  0.58138402930E+02 -0.70806228333E+02 -0.40225676255E+02  0.10005848738E+03  0.00000000000E+00 0.  1.
         13    1    3    3    0    0  0.59769548009E+00  0.22994191228E+02  0.44024643217E+01  0.23419473996E+02  0.00000000000E+00 0. -1.
         -2    1    1    2    0  502 -0.16996224238E+02  0.34528098873E+02 -0.18973489213E+02  0.42907511499E+02  0.00000000000E+00 0.  1.
<scales pt_clust_5="13000.00000" pt_clust_6="13000.00000" pt_clust_7="13000.00000" pt_clust_8="13000.00000" pt_clust_9="38.48458"></scales>
<clustering>
<clus scale="   38.485">  1  9  2 -1</clus>
<clus scale="   81.851">  5  6 -1 -1</clus>
<clus scale="   90.706">  7  8 -1 -1</clus>
<clus scale="  106.828">  1  5  2 -1</clus>
<clus scale="   38.485">  1  5  2 -1</clus>
</clustering>
</event>
<event>
 9    2  0.3745229E-005  0.1056805E+03  0.7546771E-02  0.1270461E+00
          2   -1    0    0  502    0 -0.00000000000E+00  0.00000000000E+00  0.28741032668E+03  0.28741032668E+03  0.00000000000E+00 0. -1.
         21   -1    0    0  501  502  0.00000000000E+00 -0.00000000000E+00 -0.62241765871E+02  0.62241765871E+02  0.00000000000E+00 0. -1.
         24    2    1    2    0    0  0.36825494795E+02  0.54101547730E+02  0.16356001149E+03  0.19529523834E+03  0.84292693779E+02 0.  0.
         23    2    1    2    0    0 -0.11134467296E+02 -0.38217969997E+02  0.13915147307E+02  0.97903532515E+02  0.88356554718E+02 0.  0.
        -13    1    3    3    0    0 -0.66734374891E+01  0.61495793816E+02  0.83983272763E+02  0.10430463810E+03  0.00000000000E+00 0.  1.
         14    1    3    3    0    0  0.43498932284E+02 -0.73942460864E+01  0.79576738729E+02  0.90990600239E+02  0.00000000000E+00 0. -1.
        -13    1    4    4    0    0  0.33114988429E+02 -0.65091604369E+01 -0.14223480147E+02  0.36623476292E+02  0.00000000000E+00 0. -1.
         13    1    4    4    0    0 -0.44249455724E+02 -0.31708809561E+02  0.28138627454E+02  0.61280056223E+02  0.00000000000E+00 0.  1.
          1    1    1    2  501    0 -0.25691027499E+02 -0.15883577732E+02  0.47693402007E+02  0.56453321696E+02  0.00000000000E+00 0. -1.
<scales pt_clust_5="13000.00000" pt_clust_6="13000.00000" pt_clust_7="13000.00000" pt_clust_8="13000.00000" pt_clust_9="30.20460"></scales>
<clustering>
<clus scale="   30.205">  2  9  1 -1</clus>
<clus scale="   84.293">  5  6 -1 -1</clus>
<clus scale="   88.357">  7  8 -1 -1</clus>
<clus scale="  102.307">  1  5  2 -1</clus>
<clus scale="   30.205">  2  5  1 -1</clus>
</clustering>
</event>
<event>
 9    2  0.3745229E-005  0.9361049E+02  0.7546771E-02  0.1302431E+00
          2   -1    0    0  502    0 -0.00000000000E+00  0.00000000000E+00  0.94331347796E+03  0.94331347796E+03  0.00000000000E+00 0. -1.
         21   -1    0    0  501  502  0.00000000000E+00 -0.00000000000E+00 -0.29062916373E+02  0.29062916373E+02  0.00000000000E+00 0. -1.
         24    2    1    2    0    0 -0.17544372480E+02 -0.15382368799E+02  0.75937427082E+03  0.76373575392E+03  0.78093510349E+02 0.  0.
         23    2    1    2    0    0 -0.16710853139E+02 -0.34706089544E+01  0.74250180199E+02  0.11903358177E+03  0.91458223201E+02 0.  0.
        -13    1    3    3    0    0 -0.37431453740E+02 -0.14509830797E+02  0.19905010281E+03  0.20305810092E+03  0.00000000000E+00 0.  1.
         14    1    3    3    0    0  0.19887081260E+02 -0.87253800169E+00  0.56032416801E+03  0.56067765300E+03  0.00000000000E+00 0. -1.
        -11    1    4    4    0    0 -0.32810778667E+02 -0.37747440676E+02  0.61068736834E+02  0.78935461567E+02  0.00000000000E+00 0. -1.
         11    1    4    4    0    0  0.16099925528E+02  0.34276831722E+02  0.13181443365E+02  0.40098120206E+02  0.00000000000E+00 0.  1.
          1    1    1    2  501    0  0.34255225619E+02  0.18852977753E+02  0.80626110564E+02  0.89607058635E+02  0.00000000000E+00 0. -1.
<scales pt_clust_5="13000.00000" pt_clust_6="13000.00000" pt_clust_7="13000.00000" pt_clust_8="13000.00000" pt_clust_9="39.10058"></scales>
<clustering>
<clus scale="   39.101">  2  9  1 -1</clus>
<clus scale="   78.094">  5  6 -1 -1</clus>
<clus scale="   80.603">  1  5  2 -1</clus>
<clus scale="   91.458">  7  8 -1 -1</clus>
<clus scale="   39.101">  2  5  1 -1</clus>
</clustering>
</event>
<event>
 9    2  0.3745229E-005  0.1606109E+03  0.7546771E-02  0.1213939E+00
          2   -1    0    0  502    0 -0.00000000000E+00  0.00000000000E+00  0.43737148928E+03  0.43737148928E+03  0.00000000000E+00 0. -1.
         21   -1    0    0  501  502  0.00000000000E+00 -0.00000000000E+00 -0.22439274017E+03  0.22439274017E+03  0.00000000000E+00 0. -1.
         24    2    1    2    0    0  0.65457200360E+01 -0.42583164807E+02 -0.45128616990E+02  0.10205036950E+03  0.80755888137E+02 0.  0.
         23    2    1    2    0    0  0.35506413384E+01 -0.91243189798E+02  0.36533522898E+03  0.38793131054E+03  0.93182323560E+02 0.  0.
        -11    1    3    3    0    0 -0.72447390590E+01  0.19460058723E+02 -0.30389653592E+02  0.36806401277E+02  0.00000000000E+00 0.  1.
         12    1    3    3    0    0  0.13790459095E+02 -0.62043223530E+02 -0.14738963398E+02  0.65243968227E+02  0.00000000000E+00 0. -1.
        -13    1    4    4    0    0 -0.23151818302E+02 -0.43286724948E+02  0.59157230896E+02  0.76872135489E+02  0.00000000000E+00 0.  1.
         13    1    4    4    0    0  0.26702459640E+02 -0.47956464851E+02  0.30617799809E+03  0.31105917505E+03  0.00000000000E+00 0. -1.
          1    1    1    2  501    0 -0.10096361374E+02  0.13382635461E+03 -0.10722786288E+03  0.17178254940E+03  0.00000000000E+00 0. -1.
<scales pt_clust_5="13000.00000" pt_clust_6="13000.00000" pt_clust_7="13000.00000" pt_clust_8="13000.00000" pt_clust_9="130.81629"></scales>
<clustering>
<clus scale="   80.756">  5  6 -1 -1</clus>
<clus scale="   91.530">  1  5  2 -1</clus>
<clus scale="   93.182">  7  8 -1 -1</clus>
<clus scale="  130.816">  2  9  1 -1</clus>
<clus scale="  130.816">  2  5  1 -1</clus>
</clustering>
</event>
<event>
 9    2  0.3745229E-005  0.2697291E+03  0.7546771E-02  0.1101715E+00
         21   -1    0    0  501  502  0.00000000000E+00  0.00000000000E+00  0.36821855990E+02  0.36821855990E+02  0.00000000000E+00 0.  1.
          2   -1    0    0  502    0 -0.00000000000E+00 -0.00000000000E+00 -0.22912323356E+04  0.22912323356E+04  0.00000000000E+00 0. -1.
         23    2    1    2    0    0 -0.21265596968E+03 -0.15493643868E+03 -0.10773756105E+04  0.11128055514E+04  0.91488401221E+02 0.  0.
         24    2    1    2    0    0  0.18025210419E+03  0.16603813800E+03 -0.91926380861E+03  0.95521176235E+03  0.85580820173E+02 0.  0.
        -11    1    4    4    0    0  0.11094015816E+02  0.35949040721E+02 -0.69128764742E+02  0.78703219949E+02  0.00000000000E+00 0.  1.
         12    1    4    4    0    0  0.16915808837E+03  0.13008909728E+03 -0.85013504387E+03  0.87650854240E+03  0.00000000000E+00 0. -1.
        -11    1    3    3    0    0 -0.11767155932E+03 -0.10427428985E+03 -0.79936585654E+03  0.81468122354E+03  0.00000000000E+00 0. -1.
         11    1    3    3    0    0 -0.94984410367E+02 -0.50662148830E+02 -0.27800975399E+03  0.29812432784E+03  0.00000000000E+00 0.  1.
          1    1    1    2  501    0  0.32403865494E+02 -0.11101699321E+02 -0.25777106043E+03  0.26003687781E+03  0.00000000000E+00 0. -1.
<scales pt_clust_5="13000.00000" pt_clust_6="13000.00000" pt_clust_7="13000.00000" pt_clust_8="13000.00000" pt_clust_9="34.25287"></scales>
<clustering>
<clus scale="   34.253">  1  9  2 -1</clus>
<clus scale="   85.581">  5  6 -1 -1</clus>
<clus scale="   91.488">  7  8 -1 -1</clus>
<clus scale="  267.783">  1  5  2 -1</clus>
<clus scale="   34.253">  1  5  2 -1</clus>
</clustering>
</event>
<event>
 9    2  0.3745229E-005  0.1299115E+03  0.7546771E-02  0.1233692E+00
         21   -1    0    0  501  502  0.00000000000E+00  0.00000000000E+00  0.42958776676E+03  0.42958776676E+03  0.00000000000E+00 0. -1.
          2   -1    0    0  502    0 -0.00000000000E+00 -0.00000000000E+00 -0.79573379268E+02  0.79573379268E+02  0.00000000000E+00 0. -1.
         23    2    1    2    0    0 -0.29515544318E+02  0.62240371237E+02  0.61018413878E+02  0.12977952327E+03  0.91512002814E+02 0.  0.
         24    2    1    2    0    0  0.87972010830E+02  0.40233697057E+02  0.17036334272E+03  0.21207413858E+03  0.81203119666E+02 0.  0.
        -13    1    4    4    0    0  0.33228151405E+02 -0.16561836595E+02  0.19749035021E+02  0.42052691489E+02  0.00000000000E+00 0.  1.
         14    1    4    4    0    0  0.54743859425E+02  0.56795533652E+02  0.15061430770E+03  0.17002144709E+03  0.00000000000E+00 0. -1.
        -11    1    3    3    0    0  0.13654169898E+02  0.20050467888E+02 -0.18098140789E+02  0.30265497157E+02  0.00000000000E+00 0.  1.
         11    1    3    3    0    0 -0.43169714216E+02  0.42189903349E+02  0.79116554667E+02  0.99514026109E+02  0.00000000000E+00 0. -1.
          1    1    1    2  501    0 -0.58456466513E+02 -0.10247406829E+03  0.11863263089E+03  0.16730748418E+03  0.00000000000E+00 0. -1.
<scales pt_clust_5="13000.00000" pt_clust_6="13000.00000" pt_clust_7="13000.00000" pt_clust_8="13000.00000" pt_clust_9="101.40549"></scales>
<clustering>
<clus scale="   81.203">  5  6 -1 -1</clus>
<clus scale="   91.512">  7  8 -1 -1</clus>
<clus scale="  114.540">  2  7  1 -1</clus>
<clus scale="  101.405">  1  9  2 -1</clus>
<clus scale="  101.405">  1  5  2 -1</clus>
</clustering>
</event>
<event>
 9    2  0.3745229E-005  0.1072592E+03  0.7546771E-02  0.1269558E+00
          2   -1    0    0  502    0 -0.00000000000E+00  0.00000000000E+00  0.32113844568E+03  0.32113844568E+03  0.00000000000E+00 0. -1.
         21   -1    0    0  501  502  0.00000000000E+00 -0.00000000000E+00 -0.51706089286E+02  0.51706089286E+02  0.00000000000E+00 0. -1.
         24    2    1    2    0    0 -0.79629961732E+01  0.32782057947E+02  0.12758294667E+03  0.16540204543E+03  0.99711362041E+02 0.  0.
         23    2    1    2    0    0 -0.34703336335E+02 -0.43957104911E+02  0.10324480568E+03  0.14882838665E+03  0.91399399051E+02 0.  0.
        -11    1    3    3    0    0  0.30730186463E+02 -0.60387348980E+01  0.57962643766E+01  0.31849762321E+02  0.00000000000E+00 0.  1.
         12    1    3    3    0    0 -0.38693182636E+02  0.38820792845E+02  0.12178668229E+03  0.13355228311E+03  0.00000000000E+00 0. -1.
        -13    1    4    4    0    0 -0.12306318148E+02  0.17805649575E+02 -0.49921706534E+01  0.22212797909E+02  0.00000000000E+00 0.  1.
         13    1    4    4    0    0 -0.22397018187E+02 -0.61762754486E+02  0.10823697633E+03  0.12661558874E+03  0.00000000000E+00 0. -1.
          1    1    1    2  501    0  0.42666332508E+02  0.11175046964E+02  0.38604604047E+02  0.58614102893E+02  0.00000000000E+00 0. -1.
<scales pt_clust_5="13000.00000" pt_clust_6="13000.00000" pt_clust_7="13000.00000" pt_clust_8="13000.00000" pt_clust_9="44.10553"></scales>
<clustering>
<clus scale="   44.106">  2  9  1 -1</clus>
<clus scale="   91.399">  7  8 -1 -1</clus>
<clus scale="   99.579">  2  7  1 -1</clus>
<clus scale="   99.711">  5  6 -1 -1</clus>
<clus scale="   44.106">  2  5  1 -1</clus>
</clustering>
</event>
<event>
 9    2  0.3745229E-005  0.1322968E+03  0.7546771E-02  0.1225398E+00
         21   -1    0    0  501  502  0.00000000000E+00  0.00000000000E+00  0.71690656640E+02  0.71690656640E+02  0.00000000000E+00 0. -1.
          2   -1    0    0  502    0 -0.00000000000E+00 -0.00000000000E+00 -0.39523087959E+03  0.39523087959E+03  0.00000000000E+00 0. -1.
         23    2    1    2    0    0  0.19338198632E+01 -0.79367849528E+02 -0.13374778697E+03  0.17800833650E+03  0.86576568115E+02 0.  0.
         24    2    1    2    0    0  0.80376324839E+01  0.12322971550E+03 -0.19389763502E+03  0.24374522647E+03  0.81026392258E+02 0.  0.
        -11    1    4    4    0    0 -0.28694965771E+02  0.29417018414E+02 -0.28258006524E+02  0.49872607368E+02  0.00000000000E+00 0.  1.
         12    1    4    4    0    0  0.36732598255E+02  0.93812697090E+02 -0.16563962849E+03  0.19387261910E+03  0.00000000000E+00 0. -1.
        -11    1    3    3    0    0 -0.24382824821E+02 -0.37650335331E+02 -0.11680146937E+02  0.46351868671E+02  0.00000000000E+00 0. -1.
         11    1    3    3    0    0  0.26316644684E+02 -0.41717514197E+02 -0.12206764004E+03  0.13165646783E+03  0.00000000000E+00 0.  1.
          1    1    1    2  501    0 -0.99714523470E+01 -0.43861865977E+02  0.41051990396E+01  0.45167973256E+02  0.00000000000E+00 0. -1.
<scales pt_clust_5="13000.00000" pt_clust_6="13000.00000" pt_clust_7="13000.00000" pt_clust_8="13000.00000" pt_clust_9="44.98103"></scales>
<clustering>
<clus scale="   44.981">  1  9  2 -1</clus>
<clus scale="   81.026">  5  6 -1 -1</clus>
<clus scale="   86.577">  7  8 -1 -1</clus>
<clus scale="  128.733">  1  5  2 -1</clus>
<clus scale="   44.981">  1  5  2 -1</clus>
</clustering>
</event>
<event>
 9    2  0.3745229E-005  0.1228197E+03  0.7546771E-02  0.1254057E+00
         21   -1    0    0  501  502  0.00000000000E+00  0.00000000000E+00  0.10044985185E+03  0.10044985185E+03  0.00000000000E+00 0.  1.
          2   -1    0    0  502    0 -0.00000000000E+00 -0.00000000000E+00 -0.23783736071E+03  0.23783736071E+03  0.00000000000E+00 0. -1.
         23    2    1    2    0    0  0.33041848975E+01 -0.19165534736E+01 -0.38303675973E+02  0.97690803298E+02  0.89787140733E+02 0.  0.
         24    2    1    2    0    0  0.61801218608E+02  0.69280140557E+02 -0.36184465344E+02  0.12775627071E+03  0.79957618002E+02 0.  0.
        -13    1    4    4    0    0  0.28991768934E+02  0.81424126863E+02 -0.33401135491E+02  0.92660924631E+02  0.00000000000E+00 0.  1.
         14    1    4    4    0    0  0.32809449674E+02 -0.12143986307E+02 -0.27833298528E+01  0.35095346079E+02  0.00000000000E+00 0. -1.
        -11    1    3    3    0    0  0.32633297537E+02 -0.33048603185E+02 -0.14061661095E+02  0.48527029513E+02  0.00000000000E+00 0.  1.
         11    1    3    3    0    0 -0.29329112640E+02  0.31132049711E+02 -0.24242014878E+02  0.49163773785E+02  0.00000000000E+00 0. -1.
          1    1    1    2  501    0 -0.65105403505E+02 -0.67363587083E+02 -0.62899367550E+02  0.11284013855E+03  0.00000000000E+00 0. -1.
<scales pt_clust_5="13000.00000" pt_clust_6="13000.00000" pt_clust_7="13000.00000" pt_clust_8="13000.00000" pt_clust_9="93.22810"></scales>
<clustering>
<clus scale="   79.958">  5  6 -1 -1</clus>
<clus scale="   89.787">  7  8 -1 -1</clus>
<clus scale="   89.868">  2  7  1 -1</clus>
<clus scale="   93.228">  1  9  2 -1</clus>
<clus scale="   93.228">  1  5  2 -1</clus>
</clustering>
</event>
<event>
 9    2  0.3745229E-005  0.9922693E+02  0.7546771E-02  0.1285549E+00
         21   -1    0    0  501  502  0.00000000000E+00  0.00000000000E+00  0.11262732544E+02  0.11262732544E+02  0.00000000000E+00 0. -1.
          2   -1    0    0  502    0 -0.00000000000E+00 -0.00000000000E+00 -0.14377865785E+04  0.14377865785E+04  0.00000000000E+00 0. -1.
         24    2    1    2    0    0 -0.17867145727E+02 -0.34392498763E+02 -0.85279311679E+03  0.85782637443E+03  0.84308420448E+02 0.  0.
         23    2    1    2    0    0 -0.61767117779E+01  0.42612586610E+02 -0.53776466874E+03  0.54718619707E+03  0.91476286590E+02 0.  0.
        -11    1    3    3    0    0  0.30292970302E+02 -0.16740443070E+02 -0.19592061527E+03  0.19895425095E+03  0.00000000000E+00 0.  1.
         12    1    3    3    0    0 -0.48160116029E+02 -0.17652055693E+02 -0.65687250152E+03  0.65887212348E+03  0.00000000000E+00 0. -1.
        -11    1    4    4    0    0 -0.14742464463E+02 -0.26793996693E+02 -0.13769138419E+03  0.14104671495E+03  0.00000000000E+00 0. -1.
         11    1    4    4    0    0  0.85657526850E+01  0.69406583303E+02 -0.40007328455E+03  0.40613948212E+03  0.00000000000E+00 0.  1.
          1    1    1    2  501    0  0.24043857505E+02 -0.82200878465E+01 -0.35966060466E+02  0.44036739586E+02  0.00000000000E+00 0. -1.
<scales pt_clust_5="13000.00000" pt_clust_6="13000.00000" pt_clust_7="13000.00000" pt_clust_8="13000.00000" pt_clust_9="25.41017"></scales>
<clustering>
<clus scale="   25.410">  1  9  2 -1</clus>
<clus scale="   84.308">  5  6 -1 -1</clus>
<clus scale="   91.476">  7  8 -1 -1</clus>
<clus scale="   92.661">  2  5  1 -1</clus>
<clus scale="   25.410">  1  5  2 -1</clus>
</clustering>
</event>
<event>
 9    2  0.3745229E-005  0.1114123E+03  0.7546771E-02  0.1263741E+00
         21   -1    0    0  501  502  0.00000000000E+00  0.00000000000E+00  0.35354982832E+03  0.35354982832E+03  0.00000000000E+00 0.  1.
         -1   -1    0    0    0  501 -0.00000000000E+00 -0.00000000000E+00 -0.68276213594E+02  0.68276213594E+02  0.00000000000E+00 0.  1.
         23    2    1    2    0    0  0.23358046400E+01  0.51312827583E+02  0.14677050849E+02  0.10857142701E+03  0.94519186851E+02 0.  0.
         24    2    1    2    0    0 -0.20466987804E+02 -0.78446376914E+02  0.15044668791E+03  0.18875175551E+03  0.80126697580E+02 0.  0.
        -11    1    4    4    0    0 -0.34554118725E+02 -0.47778141462E+02  0.35214199607E+02  0.68678801506E+02  0.00000000000E+00 0.  1.
         12    1    4    4    0    0  0.14087130921E+02 -0.30668235452E+02  0.11523248830E+03  0.12007295400E+03  0.00000000000E+00 0. -1.
        -11    1    3    3    0    0 -0.12040795388E+02  0.75381147208E+02 -0.12126772120E+01  0.76346373156E+02  0.00000000000E+00 0.  1.
         11    1    3    3    0    0  0.14376600028E+02 -0.24068319625E+02  0.15889728061E+02  0.32225053852E+02  0.00000000000E+00 0. -1.
         -2    1    1    2    0  502  0.18131183164E+02  0.27133549330E+02  0.12014987597E+03  0.12450285940E+03  0.00000000000E+00 0.  1.
<scales pt_clust_5="13000.00000" pt_clust_6="13000.00000" pt_clust_7="13000.00000" pt_clust_8="13000.00000" pt_clust_9="32.63387"></scales>
<clustering>
<clus scale="   32.634">  1  9  2 -1</clus>
<clus scale="   80.127">  5  6 -1 -1</clus>
<clus scale="   94.519">  7  8 -1 -1</clus>
<clus scale="   99.494">  1  5  2 -1</clus>
<clus scale="   32.634">  1  5  2 -1</clus>
</clustering>
</event>
<event>
 9    2  0.3745229E-005  0.1108143E+03  0.7546771E-02  0.1264594E+00
         21   -1    0    0  501  502  0.00000000000E+00  0.00000000000E+00  0.26383558230E+02  0.26383558230E+02  0.00000000000E+00 0.  1.
          2   -1    0    0  502    0 -0.00000000000E+00 -0.00000000000E+00 -0.76005771971E+03  0.76005771971E+03  0.00000000000E+00 0. -1.
         24    2    1    2    0    0  0.58204538129E+02 -0.25392990671E+02 -0.55236122086E+03  0.56175757204E+03  0.80225178080E+02 0.  0.
         23    2    1    2    0    0 -0.30501048094E+02  0.32692085837E+02 -0.14222940991E+03  0.17622462499E+03  0.93951194762E+02 0.  0.
        -13    1    3    3    0    0  0.77202392876E+02 -0.15799194742E+02 -0.47630227959E+03  0.48277705575E+03  0.00000000000E+00 0.  1.
         14    1    3    3    0    0 -0.18997854747E+02 -0.95937959291E+01 -0.76058941270E+02  0.78980516283E+02  0.00000000000E+00 0. -1.
        -13    1    4    4    0    0 -0.18563611763E+02 -0.30663329574E+02 -0.74738116798E+02  0.82889284982E+02  0.00000000000E+00 0. -1.
         13    1    4    4    0    0 -0.11937436331E+02  0.63355415411E+02 -0.67491293115E+02  0.93335340008E+02  0.00000000000E+00 0.  1.
          1    1    1    2  501    0 -0.27703490035E+02 -0.72990951658E+01 -0.39083530704E+02  0.48459080910E+02  0.00000000000E+00 0. -1.
<scales pt_clust_5="13000.00000" pt_clust_6="13000.00000" pt_clust_7="13000.00000" pt_clust_8="13000.00000" pt_clust_9="28.64891"></scales>
<clustering>
<clus scale="   28.649">  1  9  2 -1</clus>
<clus scale="   80.225">  5  6 -1 -1</clus>
<clus scale="   93.951">  7  8 -1 -1</clus>
<clus scale="   99.444">  2  5  1 -1</clus>
<clus scale="   28.649">  1  5  2 -1</clus>
</clustering>
</event>
<event>
 9    2  0.3745229E-005  0.1033134E+03  0.7546771E-02  0.1278476E+00
         21   -1    0    0  501  502  0.00000000000E+00  0.00000000000E+00  0.43306026824E+02  0.43306026824E+02  0.00000000000E+00 0.  1.
          2   -1    0    0  502    0 -0.00000000000E+00 -0.00000000000E+00 -0.53489310515E+03  0.53489310515E+03  0.00000000000E+00 0. -1.
         23    2    1    2    0    0 -0.51872587200E+02 -0.51537030071E+01 -0.37978674259E+03  0.39383162879E+03  0.90266583139E+02 0.  0.
         24    2    1    2    0    0  0.42568066651E+02 -0.24449351208E+02 -0.31760513838E+02  0.98522945923E+02  0.79298357873E+02 0.  0.
        -11    1    4    4    0    0  0.42310680121E+02 -0.21366588106E+02  0.16480399246E+02  0.50182948288E+02  0.00000000000E+00 0.  1.
         12    1    4    4    0    0  0.25738653007E+00 -0.30827631020E+01 -0.48240913084E+02  0.48339997635E+02  0.00000000000E+00 0. -1.
        -13    1    3    3    0    0  0.10992988394E+02 -0.33513188625E+02 -0.12777035745E+03  0.13254902433E+03  0.00000000000E+00 0.  1.
         13    1    3    3    0    0 -0.62865575595E+02  0.28359485618E+02 -0.25201638514E+03  0.26128260447E+03  0.00000000000E+00 0. -1.
          1    1    1    2  501    0  0.93045205495E+01  0.29603054215E+02 -0.80039821893E+02  0.85844557254E+02  0.00000000000E+00 0. -1.
<scales pt_clust_5="13000.00000" pt_clust_6="13000.00000" pt_clust_7="13000.00000" pt_clust_8="13000.00000" pt_clust_9="31.03089"></scales>
<clustering>
<clus scale="   31.031">  1  9  2 -1</clus>
<clus scale="   79.298">  5  6 -1 -1</clus>
<clus scale="   90.267">  7  8 -1 -1</clus>
<clus scale="   93.882">  1  5  2 -1</clus>
<clus scale="   31.031">  1  5  2 -1</clus>
</clustering>
</event>
<event>
 9    2  0.3745229E-005  0.1314962E+03  0.7546771E-02  0.1227483E+00
         21   -1    0    0  501  502  0.00000000000E+00  0.00000000000E+00  0.28746763124E+02  0.28746763124E+02  0.00000000000E+00 0. -1.
          2   -1    0    0  502    0 -0.00000000000E+00 -0.00000000000E+00 -0.12128435356E+04  0.12128435356E+04  0.00000000000E+00 0. -1.
         24    2    1    2    0    0  0.90316087703E+01 -0.82345668685E+02 -0.40582462460E+03  0.42203566690E+03  0.80982091233E+02 0.  0.
         23    2    1    2    0    0 -0.76463738965E+02  0.10976382845E+03 -0.35254102050E+03  0.38764510370E+03  0.89937499808E+02 0.  0.
        -11    1    3    3    0    0  0.20907289635E+02  0.96398666420E+01 -0.74791586860E+02  0.78254860895E+02  0.00000000000E+00 0.  1.
         12    1    3    3    0    0 -0.11875680865E+02 -0.91985535327E+02 -0.33103303774E+03  0.34378080601E+03  0.00000000000E+00 0. -1.
        -13    1    4    4    0    0 -0.30506624254E+02  0.88581483398E+02 -0.30170336556E+03  0.31591494760E+03  0.00000000000E+00 0.  1.
         13    1    4    4    0    0 -0.45957114712E+02  0.21182345050E+02 -0.50837654946E+02  0.71730156105E+02  0.00000000000E+00 0. -1.
          1    1    1    2  501    0  0.67432130195E+02 -0.27418159763E+02 -0.42573112740E+03  0.43190952815E+03  0.00000000000E+00 0. -1.
<scales pt_clust_5="13000.00000" pt_clust_6="13000.00000" pt_clust_7="13000.00000" pt_clust_8="13000.00000" pt_clust_9="72.79322"></scales>
<clustering>
<clus scale="   72.793">  1  9  2 -1</clus>
<clus scale="   80.982">  5  6 -1 -1</clus>
<clus scale="   89.937">  7  8 -1 -1</clus>
<clus scale="  125.541">  2  5  1 -1</clus>
<clus scale="   72.793">  1  5  2 -1</clus>
</clustering>
</event>
<event>
 9    2  0.3745229E-005  0.1017599E+03  0.7546771E-02  0.1278353E+00
          2   -1    0    0  502    0 -0.00000000000E+00  0.00000000000E+00  0.34122224142E+03  0.34122224142E+03  0.00000000000E+00 0. -1.
         21   -1    0    0  501  502  0.00000000000E+00 -0.00000000000E+00 -0.80558836164E+02  0.80558836164E+02  0.00000000000E+00 0.  1.
         24    2    1    2    0    0 -0.40759579487E+02  0.85062756619E+01  0.14943849437E+03  0.17692957414E+03  0.85079436746E+02 0.  0.
         23    2    1    2    0    0  0.42457690488E+02 -0.90889149718E+02  0.53755059863E+02  0.14438954401E+03  0.88855168336E+02 0.  0.
        -13    1    3    3    0    0 -0.26342916187E+02  0.39283393213E+02  0.38762321976E+02  0.61152692668E+02  0.00000000000E+00 0.  1.
         14    1    3    3    0    0 -0.14416663300E+02 -0.30777117551E+02  0.11067617240E+03  0.11577688147E+03  0.00000000000E+00 0. -1.
        -13    1    4    4    0    0  0.82095153864E+01 -0.98028389335E+02  0.45806434899E+02  0.10851355094E+03  0.00000000000E+00 0.  1.
         13    1    4    4    0    0  0.34248175102E+02  0.71392396173E+01  0.79486249648E+01  0.35875993073E+02  0.00000000000E+00 0. -1.
          1    1    1    2  501    0 -0.16981110012E+01  0.82382874056E+02  0.57469851019E+02  0.10046195944E+03  0.00000000000E+00 0. -1.
<scales pt_clust_5="13000.00000" pt_clust_6="13000.00000" pt_clust_7="13000.00000" pt_clust_8="13000.00000" pt_clust_9="82.40037"></scales>
<clustering>
<clus scale="   82.400">  2  9  1 -1</clus>
<clus scale="   85.079">  5  6 -1 -1</clus>
<clus scale="   88.855">  7  8 -1 -1</clus>
<clus scale="   98.480">  1  5  2 -1</clus>
<clus scale="   82.400">  2  5  1 -1</clus>
</clustering>
</event>
<event>
 9    2  0.3745229E-005  0.9438516E+02  0.7546771E-02  0.1300440E+00
          2   -1    0    0  502    0 -0.00000000000E+00  0.00000000000E+00  0.26868929259E+03  0.26868929259E+03  0.00000000000E+00 0. -1.
         21   -1    0    0  501  502  0.00000000000E+00 -0.00000000000E+00 -0.31045952840E+03  0.31045952840E+03  0.00000000000E+00 0. -1.
         23    2    1    2    0    0 -0.12434131746E+02  0.15235488700E+02  0.24357716530E+03  0.26110203076E+03  0.91965793979E+02 0.  0.
         24    2    1    2    0    0  0.37556147817E+02 -0.28871436784E+02 -0.12487912361E+03  0.15505254843E+03  0.78755781757E+02 0.  0.
        -13    1    4    4    0    0  0.10344171316E+02 -0.52598529346E+02 -0.90581623988E+02  0.10525510806E+03  0.00000000000E+00 0.  1.
         14    1    4    4    0    0  0.27211976502E+02  0.23727092562E+02 -0.34297499625E+02  0.49797440367E+02  0.00000000000E+00 0. -1.
        -11    1    3    3    0    0  0.34070854118E+02 -0.15376552505E+02  0.11686653018E+03  0.12269901117E+03  0.00000000000E+00 0.  1.
         11    1    3    3    0    0 -0.46504985864E+02  0.30612041205E+02  0.12671063513E+03  0.13840301959E+03  0.00000000000E+00 0. -1.
          1    1    1    2  501    0 -0.25122016072E+02  0.13635948084E+02 -0.16046827751E+03  0.16299424179E+03  0.00000000000E+00 0. -1.
<scales pt_clust_5="13000.00000" pt_clust_6="13000.00000" pt_clust_7="13000.00000" pt_clust_8="13000.00000" pt_clust_9="28.58417"></scales>
<clustering>
<clus scale="   28.584">  2  9  1 -1</clus>
<clus scale="   78.756">  5  6 -1 -1</clus>
<clus scale="   81.568">  2  5  1 -1</clus>
<clus scale="   91.966">  7  8 -1 -1</clus>
<clus scale="   28.584">  2  5  1 -1</clus>
</clustering>
</event>
<event>
 9    2  0.3745229E-005  0.1197374E+03  0.7546771E-02  0.1246981E+00
         -1   -1    0    0    0  501 -0.00000000000E+00  0.00000000000E+00  0.17305802304E+03  0.17305802304E+03  0.00000000000E+00 0.  1.
         21   -1    0    0  501  502  0.00000000000E+00 -0.00000000000E+00 -0.23755938652E+03  0.23755938652E+03  0.00000000000E+00 0. -1.
         24    2    1    2    0    0  0.11983385296E+02  0.74011914285E+02  0.11710641494E+03  0.16041648901E+03  0.79988577598E+02 0.  0.
         23    2    1    2    0    0 -0.17299457041E+02 -0.94854885274E+02 -0.10052388690E+03  0.16631237829E+03  0.90873730310E+02 0.  0.
        -13    1    3    3    0    0  0.46343969149E+02  0.44965669370E+02  0.71784018532E+02  0.96553716733E+02  0.00000000000E+00 0.  1.
         14    1    3    3    0    0 -0.34360583854E+02  0.29046244914E+02  0.45322396406E+02  0.63862772273E+02  0.00000000000E+00 0. -1.
        -13    1    4    4    0    0 -0.36893225902E+02 -0.22352674555E+01 -0.37047412468E+02  0.52331800166E+02  0.00000000000E+00 0.  1.
         13    1    4    4    0    0  0.19593768861E+02 -0.92619617819E+02 -0.63476474432E+02  0.11398057812E+03  0.00000000000E+00 0. -1.
         -2    1    1    2    0  502  0.53160717454E+01  0.20842970989E+02 -0.81083891519E+02  0.83888542259E+02  0.00000000000E+00 0.  1.
<scales pt_clust_5="13000.00000" pt_clust_6="13000.00000" pt_clust_7="13000.00000" pt_clust_8="13000.00000" pt_clust_9="21.51023"></scales>
<clustering>
<clus scale="   21.510">  2  9  1 -1</clus>
<clus scale="   79.989">  5  6 -1 -1</clus>
<clus scale="   90.874">  7  8 -1 -1</clus>
<clus scale="  111.701">  1  5  2 -1</clus>
<clus scale="   21.510">  2  5  1 -1</clus>
</clustering>
</event>
<event>
 9    2  0.3745229E-005  0.9472226E+02  0.7546771E-02  0.1299057E+00
          2   -1    0    0  502    0 -0.00000000000E+00  0.00000000000E+00  0.37470152547E+03  0.37470152547E+03  0.00000000000E+00 0. -1.
         21   -1    0    0  501  502  0.00000000000E+00 -0.00000000000E+00 -0.76319436569E+02  0.76319436569E+02  0.00000000000E+00 0. -1.
         24    2    1    2    0    0  0.21557492554E+02  0.12232498314E+02  0.28253786397E+03  0.29459219388E+03  0.79640169652E+02 0.  0.
         23    2    1    2    0    0 -0.41725339713E+00 -0.22210965252E+02  0.56003360763E+02  0.10996119125E+03  0.91986879964E+02 0.  0.
        -11    1    3    3    0    0 -0.40649869227E+01 -0.31805487766E+02  0.12336938818E+03  0.12746811017E+03  0.00000000000E+00 0.  1.
         12    1    3    3    0    0  0.25622479476E+02  0.44037986080E+02  0.15916847579E+03  0.16712408371E+03  0.00000000000E+00 0. -1.
        -13    1    4    4    0    0  0.33456903283E+02 -0.65461307792E+01  0.63334723077E+02  0.71927069680E+02  0.00000000000E+00 0. -1.
         13    1    4    4    0    0 -0.33874156681E+02 -0.15664834473E+02 -0.73313623137E+01  0.38034121565E+02  0.00000000000E+00 0.  1.
          1    1    1    2  501    0 -0.21140239156E+02  0.99784669381E+01 -0.40159135825E+02  0.46467576914E+02  0.00000000000E+00 0. -1.
<scales pt_clust_5="13000.00000" pt_clust_6="13000.00000" pt_clust_7="13000.00000" pt_clust_8="13000.00000" pt_clust_9="23.37690"></scales>
<clustering>
<clus scale="   23.377">  2  9  1 -1</clus>
<clus scale="   79.640">  5  6 -1 -1</clus>
<clus scale="   82.785">  1  5  2 -1</clus>
<clus scale="   91.987">  7  8 -1 -1</clus>
<clus scale="   23.377">  2  5  1 -1</clus>
</clustering>
</event>
<event>
 9    2  0.3761222E-005  0.9311397E+02  0.7546771E-02  0.1299341E+00
          2   -1    0    0  502    0 -0.00000000000E+00  0.00000000000E+00  0.42659191371E+03  0.42659191371E+03  0.00000000000E+00 0. -1.
         21   -1    0    0  501  502  0.00000000000E+00 -0.00000000000E+00 -0.20144732358E+03  0.20144732358E+03  0.00000000000E+00 0.  1.
         24    2    1    2    0    0 -0.17206624541E+02  0.20664569873E+02  0.39247540790E+03  0.40189076519E+03  0.82195796517E+02 0.  0.
         23    2    1    2    0    0  0.58934502313E+01 -0.47520808427E+02 -0.65884782283E+02  0.12059969863E+03  0.88941119758E+02 0.  0.
        -11    1    3    3    0    0 -0.21966876231E+02  0.24234841810E+02  0.52449471375E+02  0.61812767746E+02  0.00000000000E+00 0.  1.
         12    1    3    3    0    0  0.47602516906E+01 -0.35702719370E+01  0.34002593653E+03  0.34007799745E+03  0.00000000000E+00 0. -1.
        -13    1    4    4    0    0 -0.13390140894E+02 -0.30125041249E+02 -0.83127754564E+02  0.89426157036E+02  0.00000000000E+00 0.  1.
         13    1    4    4    0    0  0.19283591125E+02 -0.17395767178E+02  0.17242972281E+02  0.31173541593E+02  0.00000000000E+00 0. -1.
          1    1    1    2  501    0  0.11313174309E+02  0.26856238554E+02 -0.10144603549E+03  0.10554877346E+03  0.00000000000E+00 0. -1.
<scales pt_clust_5="13000.00000" pt_clust_6="13000.00000" pt_clust_7="13000.00000" pt_clust_8="13000.00000" pt_clust_9="29.14182"></scales>
<clustering>
<clus scale="   29.142">  2  9  1 -1</clus>
<clus scale="   82.196">  5  6 -1 -1</clus>
<clus scale="   86.694">  1  5  2 -1</clus>
<clus scale="   88.941">  7  8 -1 -1</clus>
<clus scale="   29.142">  2  5  1 -1</clus>
</clustering>
</event>
<event>
 9    2  0.3745229E-005  0.2172638E+03  0.7546771E-02  0.1136188E+00
         21   -1    0    0  501  502  0.00000000000E+00  0.00000000000E+00  0.18304068697E+03  0.18304068697E+03  0.00000000000E+00 0.  1.
          2   -1    0    0  502    0 -0.00000000000E+00 -0.00000000000E+00 -0.30343660298E+03  0.30343660298E+03  0.00000000000E+00 0. -1.
         23    2    1    2    0    0 -0.52485832941E+02  0.19565221122E+03 -0.10110520142E+03  0.24282213974E+03  0.87782568759E+02 0.  0.
         24    2    1    2    0    0  0.23588671778E+02 -0.19290818952E+03 -0.67215527563E+01  0.21202352983E+03  0.84491436924E+02 0.  0.
        -13    1    4    4    0    0  0.31454383804E+02 -0.19721302633E+03  0.17133468846E+01  0.19971302304E+03  0.00000000000E+00 0.  1.
         14    1    4    4    0    0 -0.78657120262E+01  0.43048368105E+01 -0.84348996409E+01  0.12310506797E+02  0.00000000000E+00 0. -1.
        -11    1    3    3    0    0  0.20605817256E+02  0.53820022613E+02 -0.82643267841E+01  0.58219357916E+02  0.00000000000E+00 0. -1.
         11    1    3    3    0    0 -0.73091650197E+02  0.14183218861E+03 -0.92840874632E+02  0.18460278182E+03  0.00000000000E+00 0.  1.
          1    1    1    2  501    0  0.28897161163E+02 -0.27440217081E+01 -0.12569161833E+02  0.31631620376E+02  0.00000000000E+00 0. -1.
<scales pt_clust_5="13000.00000" pt_clust_6="13000.00000" pt_clust_7="13000.00000" pt_clust_8="13000.00000" pt_clust_9="29.02717"></scales>
<clustering>
<clus scale="   29.027">  1  9  2 -1</clus>
<clus scale="   84.491">  5  6 -1 -1</clus>
<clus scale="   87.783">  7  8 -1 -1</clus>
<clus scale="  215.955">  1  5  2 -1</clus>
<clus scale="   29.027">  1  5  2 -1</clus>
</clustering>
</event>
<event>
 9    2  0.3745229E-005  0.1386497E+03  0.7546771E-02  0.1236008E+00
         21   -1    0    0  501  502  0.00000000000E+00  0.00000000000E+00  0.47234011436E+02  0.47234011436E+02  0.00000000000E+00 0. -1.
          2   -1    0    0  502    0 -0.00000000000E+00 -0.00000000000E+00 -0.86280844278E+03  0.86280844278E+03  0.00000000000E+00 0. -1.
         24    2    1    2    0    0 -0.16243682029E+02 -0.35144309530E+02 -0.86527158351E+02  0.12474283485E+03  0.81085424193E+02 0.  0.
         23    2    1    2    0    0 -0.19563051869E+02 -0.71841290313E+02 -0.61092202398E+03  0.62195453918E+03  0.89765502434E+02 0.  0.
        -11    1    3    3    0    0  0.12251091341E+02  0.21198772645E+02 -0.12643785553E+02  0.27556170159E+02  0.00000000000E+00 0.  1.
         12    1    3    3    0    0 -0.28494773371E+02 -0.56343082174E+02 -0.73883372798E+02  0.97186664694E+02  0.00000000000E+00 0. -1.
        -11    1    4    4    0    0 -0.43593494777E+02 -0.30428294871E+01 -0.22005682038E+03  0.22435386289E+03  0.00000000000E+00 0.  1.
         11    1    4    4    0    0  0.24030442908E+02 -0.68798460826E+02 -0.39086520360E+03  0.39760067629E+03  0.00000000000E+00 0. -1.
          1    1    1    2  501    0  0.35806733898E+02  0.10698559984E+03 -0.11812524901E+03  0.16334508018E+03  0.00000000000E+00 0. -1.
<scales pt_clust_5="13000.00000" pt_clust_6="13000.00000" pt_clust_7="13000.00000" pt_clust_8="13000.00000" pt_clust_9="105.66882"></scales>
<clustering>
<clus scale="   81.085">  5  6 -1 -1</clus>
<clus scale="   89.766">  7  8 -1 -1</clus>
<clus scale="   89.855">  2  5  1 -1</clus>
<clus scale="  105.669">  1  9  2 -1</clus>
<clus scale="  105.669">  1  5  2 -1</clus>
</clustering>
</event>
<event>
 9    2  0.3745229E-005  0.9582800E+02  0.7546771E-02  0.1297184E+00
         -1   -1    0    0    0  501 -0.00000000000E+00  0.00000000000E+00  0.10783131538E+03  0.10783131538E+03  0.00000000000E+00 0.  1.
         21   -1    0    0  501  502  0.00000000000E+00 -0.00000000000E+00 -0.49662486138E+03  0.49662486138E+03  0.00000000000E+00 0.  1.
         23    2    1    2    0    0  0.90880216048E+00 -0.21977990654E+02  0.65437954985E+02  0.11633435328E+03  0.93635985640E+02 0.  0.
         24    2    1    2    0    0 -0.66551058806E+02 -0.10187993017E+02 -0.29091753682E+03  0.30919444365E+03  0.80220646483E+02 0.  0.
        -11    1    4    4    0    0 -0.66358571450E+02 -0.21019634906E+02 -0.12622415541E+03  0.14414514375E+03  0.00000000000E+00 0.  1.
         12    1    4    4    0    0 -0.19248735574E+00  0.10831641889E+02 -0.16469338141E+03  0.16504929990E+03  0.00000000000E+00 0. -1.
        -11    1    3    3    0    0 -0.28525289511E+02 -0.13585384375E+02  0.77300899226E+02  0.83508585376E+02  0.00000000000E+00 0.  1.
         11    1    3    3    0    0  0.29434091671E+02 -0.83926062793E+01 -0.11862944241E+02  0.32825767908E+02  0.00000000000E+00 0. -1.
         -2    1    1    2    0  502  0.65642256645E+02  0.32165983671E+02 -0.16331396416E+03  0.17892737983E+03  0.00000000000E+00 0.  1.
<scales pt_clust_5="13000.00000" pt_clust_6="13000.00000" pt_clust_7="13000.00000" pt_clust_8="13000.00000" pt_clust_9="73.09963"></scales>
<clustering>
<clus scale="   73.100">  2  9  1 -1</clus>
<clus scale="   80.221">  5  6 -1 -1</clus>
<clus scale="   82.769">  2  5  1 -1</clus>
<clus scale="   93.636">  7  8 -1 -1</clus>
<clus scale="   73.100">  2  5  1 -1</clus>
</clustering>
</event>
<event>
 9    2  0.3745229E-005  0.1041609E+03  0.7546771E-02  0.1275845E+00
         21   -1    0    0  501  502  0.00000000000E+00  0.00000000000E+00  0.72555497176E+02  0.72555497176E+02  0.00000000000E+00 0.  1.
         -1   -1    0    0    0  501 -0.00000000000E+00 -0.00000000000E+00 -0.28240503944E+03  0.28240503944E+03  0.00000000000E+00 0.  1.
         24    2    1    2    0    0  0.20373125279E+02 -0.62987500953E+02 -0.16697133382E+03  0.19736854758E+03  0.81807259742E+02 0.  0.
         23    2    1    2    0    0 -0.21148301789E+02  0.16964951806E+02 -0.55460130726E+02  0.10987427014E+03  0.90892622803E+02 0.  0.
        -11    1    3    3    0    0 -0.26785994687E+02 -0.47454654553E+02 -0.10146120737E+03  0.11516861704E+03  0.00000000000E+00 0.  1.
         12    1    3    3    0    0  0.47159119966E+02 -0.15532846400E+02 -0.65510126452E+02  0.82199930542E+02  0.00000000000E+00 0. -1.
        -11    1    4    4    0    0 -0.44695297435E+02  0.14201810692E+02  0.27938910792E+01  0.46980494538E+02  0.00000000000E+00 0.  1.
         11    1    4    4    0    0  0.23546995646E+02  0.27631411141E+01 -0.58254021805E+02  0.62893775600E+02  0.00000000000E+00 0. -1.
         -2    1    1    2    0  502  0.77517650931E+00  0.46022549147E+02  0.12581922281E+02  0.47717718898E+02  0.00000000000E+00 0.  1.
<scales pt_clust_5="13000.00000" pt_clust_6="13000.00000" pt_clust_7="13000.00000" pt_clust_8="13000.00000" pt_clust_9="46.02908"></scales>
<clustering>
<clus scale="   46.029">  1  9  2 -1</clus>
<clus scale="   81.807">  5  6 -1 -1</clus>
<clus scale="   90.893">  7  8 -1 -1</clus>
<clus scale="   96.335">  2  5  1 -1</clus>
<clus scale="   46.029">  1  5  2 -1</clus>
</clustering>
</event>
<event>
 9    2  0.3745229E-005  0.9972234E+02  0.7546771E-02  0.1284792E+00
         21   -1    0    0  501  502  0.00000000000E+00  0.00000000000E+00  0.76591053537E+02  0.76591053537E+02  0.00000000000E+00 0. -1.
          2   -1    0    0  502    0 -0.00000000000E+00 -0.00000000000E+00 -0.40523952680E+03  0.40523952680E+03  0.00000000000E+00 0. -1.
         23    2    1    2    0    0  0.15795928412E+02  0.44357078803E+02 -0.33579428252E+03  0.35084259382E+03  0.90086978354E+02 0.  0.
         24    2    1    2    0    0 -0.43371852723E+01 -0.24596375214E+02 -0.26923119254E+02  0.89969940603E+02  0.82133689872E+02 0.  0.
        -11    1    4    4    0    0  0.35462422498E+02 -0.25956542357E+02 -0.42673735182E+01  0.44153549997E+02  0.00000000000E+00 0.  1.
         12    1    4    4    0    0 -0.39799607770E+02  0.13601671437E+01 -0.22655745736E+02  0.45816390606E+02  0.00000000000E+00 0. -1.
        -11    1    3    3    0    0 -0.31246719509E+02  0.81217813365E+01 -0.54463666277E+02  0.63313598512E+02  0.00000000000E+00 0.  1.
         11    1    3    3    0    0  0.47042647921E+02  0.36235297466E+02 -0.28133061624E+03  0.28752899531E+03  0.00000000000E+00 0. -1.
          1    1    1    2  501    0 -0.11458743139E+02 -0.19760703589E+02  0.34068928513E+02  0.41018045915E+02  0.00000000000E+00 0. -1.
<scales pt_clust_5="13000.00000" pt_clust_6="13000.00000" pt_clust_7="13000.00000" pt_clust_8="13000.00000" pt_clust_9="22.84268"></scales>
<clustering>
<clus scale="   22.843">  1  9  2 -1</clus>
<clus scale="   82.134">  5  6 -1 -1</clus>
<clus scale="   90.087">  7  8 -1 -1</clus>
<clus scale="   92.600">  1  5  2 -1</clus>
<clus scale="   22.843">  1  5  2 -1</clus>
</clustering>
</event>
<event>
 9    2  0.3745229E-005  0.2181063E+03  0.7546771E-02  0.1161605E+00
         21   -1    0    0  501  502  0.00000000000E+00  0.00000000000E+00  0.36873809867E+03  0.36873809867E+03  0.00000000000E+00 0. -1.
          2   -1    0    0  502    0 -0.00000000000E+00 -0.00000000000E+00 -0.54545043781E+03  0.54545043781E+03  0.00000000000E+00 0. -1.
         23    2    1    2    0    0  0.77357329800E+02 -0.64390091237E+01 -0.33287262619E+03  0.35275095158E+03  0.87197656267E+02 0.  0.
         24    2    1    2    0    0  0.13723234645E+03  0.34140996252E+02 -0.12600204324E+03  0.20586521549E+03  0.80657594244E+02 0.  0.
        -13    1    4    4    0    0  0.21740940580E+02 -0.15004199385E+02 -0.56555899531E+02  0.62420864046E+02  0.00000000000E+00 0.  1.
         14    1    4    4    0    0  0.11549140587E+03  0.49145195637E+02 -0.69446143714E+02  0.14344435145E+03  0.00000000000E+00 0. -1.
        -13    1    3    3    0    0  0.80415076064E+02 -0.31624286141E+02 -0.29313074463E+03  0.30560155984E+03  0.00000000000E+00 0. -1.
         13    1    3    3    0    0 -0.30577462642E+01  0.25185277018E+02 -0.39741881567E+02  0.47149391737E+02  0.00000000000E+00 0.  1.
          1    1    1    2  501    0 -0.21458967625E+03 -0.27701987129E+02  0.28216233030E+03  0.35557236940E+03  0.00000000000E+00 0. -1.
<scales pt_clust_5="13000.00000" pt_clust_6="13000.00000" pt_clust_7="13000.00000" pt_clust_8="13000.00000" pt_clust_9="202.64433"></scales>
<clustering>
<clus scale="   80.658">  5  6 -1 -1</clus>
<clus scale="   87.198">  7  8 -1 -1</clus>
<clus scale="  116.744">  2  7  1 -1</clus>
<clus scale="  202.644">  1  9  2 -1</clus>
<clus scale="  202.644">  1  5  2 -1</clus>
</clustering>
</event>
<event>
 9    2  0.3745229E-005  0.1733016E+03  0.7546771E-02  0.1204231E+00
          2   -1    0    0  502    0 -0.00000000000E+00  0.00000000000E+00  0.14232774834E+04  0.14232774834E+04  0.00000000000E+00 0. -1.
         21   -1    0    0  501  502  0.00000000000E+00 -0.00000000000E+00 -0.36052927585E+02  0.36052927585E+02  0.00000000000E+00 0.  1.
         24    2    1    2    0    0  0.99317507975E+01  0.78192446715E+01  0.15426357749E+03  0.17843239517E+03  0.88775492363E+02 0.  0.
         23    2    1    2    0    0 -0.11730840825E+03  0.90977317461E+02  0.41553477635E+03  0.45055103838E+03  0.91043686735E+02 0.  0.
        -13    1    3    3    0    0  0.31946245068E+02  0.50456448271E+01  0.12074800510E+02  0.34522773832E+02  0.00000000000E+00 0.  1.
         14    1    3    3    0    0 -0.22014494270E+02  0.27735998444E+01  0.14218877698E+03  0.14390962134E+03  0.00000000000E+00 0. -1.
        -13    1    4    4    0    0 -0.57958335354E+02  0.79280516955E+02  0.15821382898E+03  0.18621542548E+03  0.00000000000E+00 0.  1.
         13    1    4    4    0    0 -0.59350072897E+02  0.11696800506E+02  0.25732094737E+03  0.26433561290E+03  0.00000000000E+00 0. -1.
          1    1    1    2  501    0  0.10737665745E+03 -0.98796562133E+02  0.81742620195E+03  0.83034697741E+03  0.00000000000E+00 0. -1.
<scales pt_clust_5="13000.00000" pt_clust_6="13000.00000" pt_clust_7="13000.00000" pt_clust_8="13000.00000" pt_clust_9="147.46016"></scales>
<clustering>
<clus scale="   88.775">  5  6 -1 -1</clus>
<clus scale="   89.671">  1  5  2 -1</clus>
<clus scale="   91.044">  7  8 -1 -1</clus>
<clus scale="  147.460">  2  9  1 -1</clus>
<clus scale="  147.460">  2  5  1 -1</clus>
</clustering>
</event>
<event>
 9    2  0.3745229E-005  0.1557387E+03  0.7546771E-02  0.1195156E+00
         21   -1    0    0  501  502  0.00000000000E+00  0.00000000000E+00  0.25924139713E+03  0.25924139713E+03  0.00000000000E+00 0.  1.
         -1   -1    0    0    0  501 -0.00000000000E+00 -0.00000000000E+00 -0.15260308225E+03  0.15260308225E+03  0.00000000000E+00 0.  1.
         23    2    1    2    0    0 -0.12691136457E+03 -0.73410195965E+02 -0.30613401869E+02  0.17446864172E+03  0.89479468255E+02 0.  0.
         24    2    1    2    0    0  0.86351031734E+02  0.25110806964E+02  0.12422785488E+03  0.17297403214E+03  0.80002515942E+02 0.  0.
        -13    1    4    4    0    0  0.61960408249E+02 -0.10064165655E+02  0.11211056140E+03  0.12848796674E+03  0.00000000000E+00 0.  1.
         14    1    4    4    0    0  0.24390623485E+02  0.35174972620E+02  0.12117293482E+02  0.44486065392E+02  0.00000000000E+00 0. -1.
        -11    1    3    3    0    0 -0.30856356794E+02 -0.61311816929E+02  0.10221009026E+02  0.69395408171E+02  0.00000000000E+00 0. -1.
         11    1    3    3    0    0 -0.96055007780E+02 -0.12098379037E+02 -0.40834410895E+02  0.10507323355E+03  0.00000000000E+00 0.  1.
         -2    1    1    2    0  502  0.40560332841E+02  0.48299389001E+02  0.13023861868E+02  0.64401805534E+02  0.00000000000E+00 0.  1.
<scales pt_clust_5="13000.00000" pt_clust_6="13000.00000" pt_clust_7="13000.00000" pt_clust_8="13000.00000" pt_clust_9="63.07119"></scales>
<clustering>
<clus scale="   63.071">  1  9  2 -1</clus>
<clus scale="   80.003">  5  6 -1 -1</clus>
<clus scale="   89.479">  7  8 -1 -1</clus>
<clus scale="  150.494">  1  5  2 -1</clus>
<clus scale="   63.071">  1  5  2 -1</clus>
</clustering>
</event>
<event>
 9    2  0.3745229E-005  0.9149598E+02  0.7546771E-02  0.1306218E+00
         -3   -1    0    0    0  501 -0.00000000000E+00  0.00000000000E+00  0.89760227350E+02  0.89760227350E+02  0.00000000000E+00 0.  1.
         21   -1    0    0  501  502  0.00000000000E+00 -0.00000000000E+00 -0.21704527876E+03  0.21704527876E+03  0.00000000000E+00 0.  1.
         24    2    1    2    0    0  0.11842294145E+02  0.26954612313E+02  0.23776663106E+01  0.85422538689E+02  0.80153388971E+02 0.  0.
         23    2    1    2    0    0  0.31683291784E+02  0.30237501367E+02 -0.46041011989E+02  0.11111962733E+03  0.91157332820E+02 0.  0.
        -11    1    3    3    0    0  0.45212327704E+02  0.21395474460E+02  0.93396371905E+01  0.50883688217E+02  0.00000000000E+00 0.  1.
         12    1    3    3    0    0 -0.33370033559E+02  0.55591378527E+01 -0.69619708799E+01  0.34538850472E+02  0.00000000000E+00 0. -1.
        -13    1    4    4    0    0  0.62509301723E+02  0.32062249208E+02 -0.32082724299E+02  0.77231482082E+02  0.00000000000E+00 0. -1.
         13    1    4    4    0    0 -0.30826009939E+02 -0.18247478412E+01 -0.13958287690E+02  0.33888145253E+02  0.00000000000E+00 0.  1.
         -4    1    1    2    0  502 -0.43525585928E+02 -0.57192113680E+02 -0.83621705734E+02  0.11026334009E+03  0.00000000000E+00 0.  1.
<scales pt_clust_5="13000.00000" pt_clust_6="13000.00000" pt_clust_7="13000.00000" pt_clust_8="13000.00000" pt_clust_9="71.87082"></scales>
<clustering>
<clus scale="   71.871">  2  9  1 -1</clus>
<clus scale="   80.153">  5  6 -1 -1</clus>
<clus scale="   80.538">  1  5  2 -1</clus>
<clus scale="   91.157">  7  8 -1 -1</clus>
<clus scale="   71.871">  2  5  1 -1</clus>
</clustering>
</event>
<event>
 9    2  0.3745229E-005  0.2345856E+03  0.7546771E-02  0.1123453E+00
         21   -1    0    0  501  502  0.00000000000E+00  0.00000000000E+00  0.13469380338E+03  0.13469380338E+03  0.00000000000E+00 0.  1.
          4   -1    0    0  502    0 -0.00000000000E+00 -0.00000000000E+00 -0.30147642040E+03  0.30147642040E+03  0.00000000000E+00 0. -1.
         24    2    1    2    0    0  0.14545696914E+02  0.63810452820E+02 -0.18093114140E+02  0.10204616546E+03  0.76175507335E+02 0.  0.
         23    2    1    2    0    0  0.28658665595E+02  0.87642364023E+02 -0.31272522121E+02  0.13767732244E+03  0.97337410021E+02 0.  0.
        -13    1    3    3    0    0  0.37967205119E+02  0.29257821239E+02  0.13383449297E+02  0.49765906837E+02  0.00000000000E+00 0.  1.
         14    1    3    3    0    0 -0.23421508205E+02  0.34552631581E+02 -0.31476563437E+02  0.52280258622E+02  0.00000000000E+00 0. -1.
        -11    1    4    4    0    0 -0.34049865721E+02  0.47631172134E+02 -0.49002019376E+01  0.58754862722E+02  0.00000000000E+00 0.  1.
         11    1    4    4    0    0  0.62708531316E+02  0.40011191889E+02 -0.26372320184E+02  0.78922459719E+02  0.00000000000E+00 0. -1.
          3    1    1    2  501    0 -0.43204362509E+02 -0.15145281684E+03 -0.11741698076E+03  0.19644673588E+03  0.00000000000E+00 0. -1.
<scales pt_clust_5="13000.00000" pt_clust_6="13000.00000" pt_clust_7="13000.00000" pt_clust_8="13000.00000" pt_clust_9="157.49475"></scales>
<clustering>
<clus scale="   76.176">  5  6 -1 -1</clus>
<clus scale="   97.337">  7  8 -1 -1</clus>
<clus scale="   97.706">  5  7 -1 -1</clus>
<clus scale="  157.495">  1  9  2 -1</clus>
<clus scale="  157.495">  1  5  2 -1</clus>
</clustering>
</event>
<event>
 9    2  0.3745229E-005  0.1550933E+03  0.7546771E-02  0.1202351E+00
          2   -1    0    0  502    0 -0.00000000000E+00  0.00000000000E+00  0.46683835317E+03  0.46683835317E+03  0.00000000000E+00 0. -1.
         21   -1    0    0  501  502  0.00000000000E+00 -0.00000000000E+00 -0.14368103595E+03  0.14368103595E+03  0.00000000000E+00 0. -1.
         23    2    1    2    0    0  0.30912299132E+02 -0.87776841754E+02  0.23869221029E+03  0.27193661550E+03  0.91187759099E+02 0.  0.
         24    2    1    2    0    0  0.10244472874E+03  0.10118793906E+03 -0.24495986977E+02  0.16585039566E+03  0.78564488812E+02 0.  0.
        -13    1    4    4    0    0  0.38728482326E+02 -0.61255929343E+01 -0.48150361273E+01  0.39504465633E+02  0.00000000000E+00 0.  1.
         14    1    4    4    0    0  0.63716246419E+02  0.10731353200E+03 -0.19680950849E+02  0.12634593002E+03  0.00000000000E+00 0. -1.
        -11    1    3    3    0    0 -0.57654454116E+01 -0.66273720514E+02  0.21089845939E+03  0.22114159845E+03  0.00000000000E+00 0. -1.
         11    1    3    3    0    0  0.36677744543E+02 -0.21503121241E+02  0.27793750899E+02  0.50795017048E+02  0.00000000000E+00 0.  1.
          1    1    1    2  501    0 -0.13335702788E+03 -0.13411097307E+02  0.10896109391E+03  0.17273237797E+03  0.00000000000E+00 0. -1.
<scales pt_clust_5="13000.00000" pt_clust_6="13000.00000" pt_clust_7="13000.00000" pt_clust_8="13000.00000" pt_clust_9="133.72201"></scales>
<clustering>
<clus scale="   78.564">  5  6 -1 -1</clus>
<clus scale="   91.188">  7  8 -1 -1</clus>
<clus scale="  130.290">  1  7  2 -1</clus>
<clus scale="  133.722">  2  9  1 -1</clus>
<clus scale="  133.722">  2  5  1 -1</clus>
</clustering>
</event>
<event>
 9    2  0.3745229E-005  0.8921673E+02  0.7546771E-02  0.1309075E+00
         -3   -1    0    0    0  501 -0.00000000000E+00  0.00000000000E+00  0.57763571726E+02  0.57763571726E+02  0.00000000000E+00 0.  1.
         21   -1    0    0  501  502  0.00000000000E+00 -0.00000000000E+00 -0.22970480172E+03  0.22970480172E+03  0.00000000000E+00 0.  1.
         23    2    1    2    0    0 -0.38556433442E+01  0.26813660008E+02 -0.31082889379E+02  0.97385215238E+02  0.88226389398E+02 0.  0.
         24    2    1    2    0    0  0.72353499895E+01  0.15493430572E+02 -0.10851846526E+03  0.13672418644E+03  0.81393176465E+02 0.  0.
        -11    1    4    4    0    0  0.93956176115E+01  0.35873124938E+02 -0.11009225624E+03  0.11616997722E+03  0.00000000000E+00 0.  1.
         12    1    4    4    0    0 -0.21602676220E+01 -0.20379694366E+02  0.15737909799E+01  0.20554209221E+02  0.00000000000E+00 0. -1.
        -11    1    3    3    0    0  0.34332902265E+02  0.39140417224E+02 -0.15321635642E+02  0.54272211648E+02  0.00000000000E+00 0.  1.
         11    1    3    3    0    0 -0.38188545609E+02 -0.12326757216E+02 -0.15761253737E+02  0.43113003590E+02  0.00000000000E+00 0. -1.
         -4    1    1    2    0  502 -0.33797066452E+01 -0.42307090580E+02 -0.32339875357E+02  0.53358971771E+02  0.00000000000E+00 0.  1.
<scales pt_clust_5="13000.00000" pt_clust_6="13000.00000" pt_clust_7="13000.00000" pt_clust_8="13000.00000" pt_clust_9="42.44187"></scales>
<clustering>
<clus scale="   42.442">  2  9  1 -1</clus>
<clus scale="   81.393">  5  6 -1 -1</clus>
<clus scale="   82.466">  2  5  1 -1</clus>
<clus scale="   88.226">  7  8 -1 -1</clus>
<clus scale="   42.442">  2  5  1 -1</clus>
</clustering>
</event>
<event>
 9    2  0.3745229E-005  0.9294838E+02  0.7546771E-02  0.1296261E+00
         -1   -1    0    0    0  501 -0.00000000000E+00  0.00000000000E+00  0.61294352975E+03  0.61294352975E+03  0.00000000000E+00 0.  1.
         21   -1    0    0  501  502  0.00000000000E+00 -0.00000000000E+00 -0.37874472285E+02  0.37874472285E+02  0.00000000000E+00 0.  1.
         24    2    1    2    0    0 -0.88912086089E+01  0.30638120929E+02  0.31720948313E+03  0.33121107428E+03  0.89784026914E+02 0.  0.
         23    2    1    2    0    0 -0.57161014440E+02  0.10756984776E+02  0.17823222846E+03  0.20817549074E+03  0.90483221584E+02 0.  0.
        -11    1    3    3    0    0  0.38265635957E+02  0.24868675530E+02  0.12067958263E+03  0.12902043087E+03  0.00000000000E+00 0.  1.
         12    1    3    3    0    0 -0.47156844566E+02  0.57694453988E+01  0.19652990051E+03  0.20219064341E+03  0.00000000000E+00 0. -1.
        -13    1    4    4    0    0 -0.74905387759E+02  0.29683128196E+02  0.14642891085E+03  0.16713267528E+03  0.00000000000E+00 0.  1.
         13    1    4    4    0    0  0.17744373320E+02 -0.18926143419E+02  0.31803317609E+02  0.41042815451E+02  0.00000000000E+00 0. -1.
         -2    1    1    2    0  502  0.66052223048E+02 -0.41395105705E+02  0.79627345866E+02  0.11143143702E+03  0.00000000000E+00 0.  1.
<scales pt_clust_5="13000.00000" pt_clust_6="13000.00000" pt_clust_7="13000.00000" pt_clust_8="13000.00000" pt_clust_9="77.95159"></scales>
<clustering>
<clus scale="   77.952">  2  9  1 -1</clus>
<clus scale="   89.784">  5  6 -1 -1</clus>
<clus scale="   90.483">  7  8 -1 -1</clus>
<clus scale="   92.268">  1  5  2 -1</clus>
<clus scale="   77.952">  2  5  1 -1</clus>
</clustering>
</event>
<event>
 9    2  0.3745229E-005  0.9595857E+02  0.7546771E-02  0.1300202E+00
          2   -1    0    0  502    0 -0.00000000000E+00  0.00000000000E+00  0.20841206921E+03  0.20841206921E+03  0.00000000000E+00 0. -1.
         21   -1    0    0  501  502  0.00000000000E+00 -0.00000000000E+00 -0.84893783691E+02  0.84893783691E+02  0.00000000000E+00 0. -1.
         24    2    1    2    0    0  0.48292529767E+01 -0.12045636607E+02  0.76172456779E+02  0.10588490063E+03  0.72394405610E+02 0.  0.
         23    2    1    2    0    0 -0.19739218066E+01  0.62734763776E+02  0.70673091857E+02  0.13154876122E+03  0.91492315041E+02 0.  0.
        -13    1    3    3    0    0  0.26555045057E+02  0.64475057095E+01  0.72049698793E+02  0.77057769524E+02  0.00000000000E+00 0.  1.
         14    1    3    3    0    0 -0.21725792081E+02 -0.18493142317E+02  0.41227579869E+01  0.28827131104E+02  0.00000000000E+00 0. -1.
        -11    1    4    4    0    0  0.16500320027E+02  0.20577571147E+02  0.80303806062E+02  0.84524542373E+02  0.00000000000E+00 0.  1.
         11    1    4    4    0    0 -0.18474241833E+02  0.42157192629E+02 -0.96307142057E+01  0.47024218843E+02  0.00000000000E+00 0. -1.
          1    1    1    2  501    0 -0.28553311701E+01 -0.50689127169E+02 -0.23327263116E+02  0.55872191059E+02  0.00000000000E+00 0. -1.
<scales pt_clust_5="13000.00000" pt_clust_6="13000.00000" pt_clust_7="13000.00000" pt_clust_8="13000.00000" pt_clust_9="50.76948"></scales>
<clustering>
<clus scale="   50.769">  2  9  1 -1</clus>
<clus scale="   72.394">  5  6 -1 -1</clus>
<clus scale="   77.963">  1  5  2 -1</clus>
<clus scale="   91.492">  7  8 -1 -1</clus>
<clus scale="   50.769">  2  5  1 -1</clus>
</clustering>
</event>
<event>
 9    2  0.3745229E-005  0.2694777E+03  0.7546771E-02  0.1101579E+00
          2   -1    0    0  502    0 -0.00000000000E+00  0.00000000000E+00  0.19030660478E+04  0.19030660478E+04  0.00000000000E+00 0. -1.
         21   -1    0    0  501  502  0.00000000000E+00 -0.00000000000E+00 -0.30643330968E+02  0.30643330968E+02  0.00000000000E+00 0. -1.
         24    2    1    2    0    0 -0.63283988144E+02  0.46897470797E+02  0.62408049824E+03  0.63416219792E+03  0.80504590259E+02 0.  0.
         23    2    1    2    0    0 -0.10225466168E+03  0.67956564070E+02  0.65285723507E+03  0.67090033285E+03  0.93864672789E+02 0.  0.
        -13    1    3    3    0    0 -0.29147742545E+02 -0.12834396654E+02  0.86118975320E+02  0.91819336434E+02  0.00000000000E+00 0.  1.
         14    1    3    3    0    0 -0.34136245599E+02  0.59731867451E+02  0.53796152292E+03  0.54234286148E+03  0.00000000000E+00 0. -1.
        -11    1    4    4    0    0 -0.88566295384E+02  0.90270498948E+02  0.57559921849E+03  0.58932776278E+03  0.00000000000E+00 0. -1.
         11    1    4    4    0    0 -0.13688366293E+02 -0.22313934878E+02  0.77258016583E+02  0.81572570070E+02  0.00000000000E+00 0.  1.
          1    1    1    2  501    0  0.16553864982E+03 -0.11485403487E+03  0.59548498348E+03  0.62864684797E+03  0.00000000000E+00 0. -1.
<scales pt_clust_5="13000.00000" pt_clust_6="13000.00000" pt_clust_7="13000.00000" pt_clust_8="13000.00000" pt_clust_9="201.48075"></scales>
<clustering>
<clus scale="   80.505">  5  6 -1 -1</clus>
<clus scale="   93.865">  7  8 -1 -1</clus>
<clus scale="   98.772">  5  7 -1 -1</clus>
<clus scale="  201.481">  2  9  1 -1</clus>
<clus scale="  201.481">  2  5  1 -1</clus>
</clustering>
</event>
<event>
 9    2  0.3745229E-005  0.1221320E+03  0.7546771E-02  0.1243086E+00
         21   -1    0    0  501  502  0.00000000000E+00  0.00000000000E+00  0.41586310662E+02  0.41586310662E+02  0.00000000000E+00 0. -1.
          2   -1    0    0  502    0 -0.00000000000E+00 -0.00000000000E+00 -0.10008006848E+04  0.10008006848E+04  0.00000000000E+00 0. -1.
         24    2    1    2    0    0 -0.87350318753E+02 -0.13771100159E+02 -0.42888785436E+03  0.44516400284E+03  0.80040467377E+02 0.  0.
         23    2    1    2    0    0  0.22684511253E+02  0.11272991535E+03 -0.36940940034E+03  0.39755117917E+03  0.91438581185E+02 0.  0.
        -13    1    3    3    0    0 -0.91634288904E+02 -0.28785615893E+02 -0.29206444432E+03  0.30745258858E+03  0.00000000000E+00 0.  1.
         14    1    3    3    0    0  0.42839701516E+01  0.15014515734E+02 -0.13682341004E+03  0.13771141426E+03  0.00000000000E+00 0. -1.
        -11    1    4    4    0    0  0.52437822328E+02  0.33387511395E+02 -0.15389168093E+03  0.16597319238E+03  0.00000000000E+00 0.  1.
         11    1    4    4    0    0 -0.29753311075E+02  0.79342403957E+02 -0.21551771941E+03  0.23157798679E+03  0.00000000000E+00 0. -1.
          1    1    1    2  501    0  0.64665807499E+02 -0.98958815194E+02 -0.16091711945E+03  0.19967181347E+03  0.00000000000E+00 0. -1.
<scales pt_clust_5="13000.00000" pt_clust_6="13000.00000" pt_clust_7="13000.00000" pt_clust_8="13000.00000" pt_clust_9="118.21385"></scales>
<clustering>
<clus scale="   80.040">  5  6 -1 -1</clus>
<clus scale="   91.439">  7  8 -1 -1</clus>
<clus scale="  118.214">  1  9  2 -1</clus>
<clus scale="  113.849">  2  5  1 -1</clus>
<clus scale="  118.214">  1  5  2 -1</clus>
</clustering>
</event>
<event>
 9    2  0.3745229E-005  0.9550603E+02  0.7546771E-02  0.1298375E+00
         -3   -1    0    0    0  501 -0.00000000000E+00  0.00000000000E+00  0.48966442188E+02  0.48966442188E+02  0.00000000000E+00 0.  1.
         21   -1    0    0  501  502  0.00000000000E+00 -0.00000000000E+00 -0.37991188339E+03  0.37991188339E+03  0.00000000000E+00 0. -1.
         23    2    1    2    0    0  0.12192550924E+02  0.22149839636E+02 -0.11297498957E+03  0.14685101624E+03  0.90347102928E+02 0.  0.
         24    2    1    2    0    0 -0.38826760959E+01 -0.43431213656E+02 -0.23681359014E+03  0.25241287420E+03  0.75698329509E+02 0.  0.
        -13    1    4    4    0    0  0.35449945501E+02 -0.19267132139E+02 -0.93087125343E+02  0.10145508327E+03  0.00000000000E+00 0.  1.
         14    1    4    4    0    0 -0.39332621597E+02 -0.24164081518E+02 -0.14372646480E+03  0.15095779093E+03  0.00000000000E+00 0. -1.
        -11    1    3    3    0    0  0.26480320228E+02 -0.29829373389E+02 -0.46411924220E+02  0.61196940986E+02  0.00000000000E+00 0.  1.
         11    1    3    3    0    0 -0.14287769304E+02  0.51979213025E+02 -0.66563065349E+02  0.85654075251E+02  0.00000000000E+00 0. -1.
         -4    1    1    2    0  502 -0.83098748283E+01  0.21281374020E+02  0.18843138513E+02  0.29614435143E+02  0.00000000000E+00 0.  1.
<scales pt_clust_5="13000.00000" pt_clust_6="13000.00000" pt_clust_7="13000.00000" pt_clust_8="13000.00000" pt_clust_9="22.84626"></scales>
<clustering>
<clus scale="   22.846">  2  9  1 -1</clus>
<clus scale="   75.698">  5  6 -1 -1</clus>
<clus scale="   81.787">  2  5  1 -1</clus>
<clus scale="   90.347">  7  8 -1 -1</clus>
<clus scale="   22.846">  2  5  1 -1</clus>
</clustering>
</event>
<event>
 9    2  0.3745229E-005  0.1340084E+03  0.7546771E-02  0.1224316E+00
         -3   -1    0    0    0  501 -0.00000000000E+00  0.00000000000E+00  0.33347157949E+03  0.33347157949E+03  0.00000000000E+00 0.  1.
         21   -1    0    0  501  502  0.00000000000E+00 -0.00000000000E+00 -0.92463186752E+02  0.92463186752E+02  0.00000000000E+00 0.  1.
         24    2    1    2    0    0  0.46015921005E+02 -0.10094768996E+03  0.21550931296E+03  0.25520739223E+03  0.79866438380E+02 0.  0.
         23    2    1    2    0    0 -0.51560651910E+02  0.47619619517E+02  0.13099233333E+02  0.11569662506E+03  0.91038399305E+02 0.  0.
        -11    1    3    3    0    0  0.51567013179E+02 -0.11251719440E+03  0.19792732061E+03  0.23344057087E+03  0.00000000000E+00 0.  1.
         12    1    3    3    0    0 -0.55510921741E+01  0.11569504431E+02  0.17581992347E+02  0.21766821357E+02  0.00000000000E+00 0. -1.
        -13    1    4    4    0    0 -0.34367365414E+01  0.52774457283E+02 -0.20561873608E+02  0.56742798185E+02  0.00000000000E+00 0. -1.
         13    1    4    4    0    0 -0.48123915368E+02 -0.51548377659E+01  0.33661106941E+02  0.58953826875E+02  0.00000000000E+00 0.  1.
         -4    1    1    2    0  502  0.55447309046E+01  0.53328070448E+02  0.12399846442E+02  0.55030748952E+02  0.00000000000E+00 0.  1.
<scales pt_clust_5="13000.00000" pt_clust_6="13000.00000" pt_clust_7="13000.00000" pt_clust_8="13000.00000" pt_clust_9="53.61555"></scales>
<clustering>
<clus scale="   53.616">  2  9  1 -1</clus>
<clus scale="   79.866">  5  6 -1 -1</clus>
<clus scale="   91.038">  7  8 -1 -1</clus>
<clus scale="  126.684">  1  5  2 -1</clus>
<clus scale="   53.616">  2  5  1 -1</clus>
</clustering>
</event>
<event>
 9    2  0.3745229E-005  0.9755310E+02  0.7546771E-02  0.1294037E+00
         21   -1    0    0  501  502  0.00000000000E+00  0.00000000000E+00  0.39970668739E+02  0.39970668739E+02  0.00000000000E+00 0.  1.
          2   -1    0    0  502    0 -0.00000000000E+00 -0.00000000000E+00 -0.43142935775E+03  0.43142935775E+03  0.00000000000E+00 0. -1.
         24    2    1    2    0    0 -0.30568104984E+02 -0.37907027428E+01 -0.23350791021E+03  0.24810245308E+03  0.77975025634E+02 0.  0.
         23    2    1    2    0    0  0.21864973631E+02 -0.25669075041E+02 -0.49831199865E+02  0.11089887968E+03  0.93158115856E+02 0.  0.
        -11    1    3    3    0    0 -0.18057574786E+02 -0.40863456517E+02 -0.12811540162E+03  0.13568144390E+03  0.00000000000E+00 0.  1.
         12    1    3    3    0    0 -0.12510530198E+02  0.37072753774E+02 -0.10539250859E+03  0.11242100918E+03  0.00000000000E+00 0. -1.
        -11    1    4    4    0    0 -0.23772235642E+01 -0.44736635093E+02  0.78568951127E+01  0.45483497140E+02  0.00000000000E+00 0.  1.
         11    1    4    4    0    0  0.24242197195E+02  0.19067560052E+02 -0.57688094978E+02  0.65415382544E+02  0.00000000000E+00 0. -1.
          1    1    1    2  501    0  0.87031313533E+01  0.29459777784E+02 -0.10811957893E+03  0.11239869372E+03  0.00000000000E+00 0. -1.
<scales pt_clust_5="13000.00000" pt_clust_6="13000.00000" pt_clust_7="13000.00000" pt_clust_8="13000.00000" pt_clust_9="30.71846"></scales>
<clustering>
<clus scale="   30.718">  1  9  2 -1</clus>
<clus scale="   77.975">  5  6 -1 -1</clus>
<clus scale="   83.176">  2  5  1 -1</clus>
<clus scale="   93.158">  7  8 -1 -1</clus>
<clus scale="   30.718">  1  5  2 -1</clus>
</clustering>
</event>
<event>
 9    2  0.3745229E-005  0.9193295E+02  0.7546771E-02  0.1304684E+00
         -3   -1    0    0    0  501 -0.00000000000E+00  0.00000000000E+00  0.43188576220E+03  0.43188576220E+03  0.00000000000E+00 0.  1.
         21   -1    0    0  501  502  0.00000000000E+00 -0.00000000000E+00 -0.94617734057E+02  0.94617734057E+02  0.00000000000E+00 0. -1.
         23    2    1    2    0    0 -0.60577468086E+01 -0.17087769331E+02  0.27926145401E+03  0.29416449834E+03  0.90648244499E+02 0.  0.
         24    2    1    2    0    0 -0.34403325293E+02 -0.72489229235E+01 -0.59384386823E+02  0.10580832709E+03  0.80204494941E+02 0.  0.
        -11    1    4    4    0    0  0.37790605828E+01  0.25713562381E+02  0.23393417478E+01  0.26094848323E+02  0.00000000000E+00 0.  1.
         12    1    4    4    0    0 -0.38182385876E+02 -0.32962485304E+02 -0.61723728571E+02  0.79713478768E+02  0.00000000000E+00 0. -1.
        -11    1    3    3    0    0  0.20257054526E+02 -0.47843669595E+02  0.15921329551E+03  0.16747608320E+03  0.00000000000E+00 0.  1.
         11    1    3    3    0    0 -0.26314801334E+02  0.30755900264E+02  0.12004815850E+03  0.12668841514E+03  0.00000000000E+00 0. -1.
         -4    1    1    2    0  502  0.40461072101E+02  0.24336692255E+02  0.11739096095E+03  0.12653067082E+03  0.00000000000E+00 0.  1.
<scales pt_clust_5="13000.00000" pt_clust_6="13000.00000" pt_clust_7="13000.00000" pt_clust_8="13000.00000" pt_clust_9="47.21626"></scales>
<clustering>
<clus scale="   47.216">  2  9  1 -1</clus>
<clus scale="   80.204">  5  6 -1 -1</clus>
<clus scale="   81.654">  2  5  1 -1</clus>
<clus scale="   90.648">  7  8 -1 -1</clus>
<clus scale="   47.216">  2  5  1 -1</clus>
</clustering>
</event>
<event>
 9    2  0.3745229E-005  0.1065644E+03  0.7546771E-02  0.1270898E+00
          2   -1    0    0  502    0 -0.00000000000E+00  0.00000000000E+00  0.55393609252E+03  0.55393609252E+03  0.00000000000E+00 0. -1.
         21   -1    0    0  501  502  0.00000000000E+00 -0.00000000000E+00 -0.31528444771E+02  0.31528444771E+02  0.00000000000E+00 0.  1.
         23    2    1    2    0    0 -0.43625954536E+02  0.18541838627E+02  0.24428908515E+03  0.26533097063E+03  0.92067057977E+02 0.  0.
         24    2    1    2    0    0  0.51166626966E+02 -0.43692912361E+02  0.12379663996E+03  0.16359381433E+03  0.83127815547E+02 0.  0.
        -11    1    4    4    0    0  0.47656113917E+02 -0.56978751960E+02  0.52441283267E+02  0.90927287209E+02  0.00000000000E+00 0.  1.
         12    1    4    4    0    0  0.35105130486E+01  0.13285839599E+02  0.71355356692E+02  0.72666527125E+02  0.00000000000E+00 0. -1.
        -13    1    3    3    0    0  0.27973102434E+02  0.11952591125E+02  0.92495136441E+02  0.97368933236E+02  0.00000000000E+00 0.  1.
         13    1    3    3    0    0 -0.71599056969E+02  0.65892475024E+01  0.15179394871E+03  0.16796203739E+03  0.00000000000E+00 0. -1.
          1    1    1    2  501    0 -0.75406724300E+01  0.25151073733E+02  0.15432192264E+03  0.15653975233E+03  0.00000000000E+00 0. -1.
<scales pt_clust_5="13000.00000" pt_clust_6="13000.00000" pt_clust_7="13000.00000" pt_clust_8="13000.00000" pt_clust_9="26.25717"></scales>
<clustering>
<clus scale="   26.257">  2  9  1 -1</clus>
<clus scale="   83.128">  5  6 -1 -1</clus>
<clus scale="   92.067">  7  8 -1 -1</clus>
<clus scale="   98.944">  2  5  1 -1</clus>
<clus scale="   26.257">  2  5  1 -1</clus>
</clustering>
</event>
<event>
 9    2  0.3745229E-005  0.1302985E+03  0.7546771E-02  0.1232805E+00
         21   -1    0    0  501  502  0.00000000000E+00  0.00000000000E+00  0.65235237399E+02  0.65235237399E+02  0.00000000000E+00 0.  1.
          2   -1    0    0  502    0 -0.00000000000E+00 -0.00000000000E+00 -0.52171536959E+03  0.52171536959E+03  0.00000000000E+00 0. -1.
         24    2    1    2    0    0  0.13271768477E+02 -0.81298634756E+02 -0.11649618200E+03  0.16412466880E+03  0.81116820924E+02 0.  0.
         23    2    1    2    0    0  0.86379973892E+02  0.17122684943E+02 -0.12900318205E+03  0.18083026299E+03  0.91121220378E+02 0.  0.
        -13    1    3    3    0    0 -0.32398416904E+02 -0.47779459626E+02 -0.70726497935E+02  0.91294970782E+02  0.00000000000E+00 0.  1.
         14    1    3    3    0    0  0.45670185381E+02 -0.33519175130E+02 -0.45769684070E+02  0.72829698022E+02  0.00000000000E+00 0. -1.
        -13    1    4    4    0    0 -0.54831221141E+01 -0.23975593986E+02 -0.15200886142E+02  0.28912984533E+02  0.00000000000E+00 0. -1.
         13    1    4    4    0    0  0.91863096006E+02  0.41098278928E+02 -0.11380229591E+03  0.15191727845E+03  0.00000000000E+00 0.  1.
          1    1    1    2  501    0 -0.99651742368E+02  0.64175949814E+02 -0.21098076814E+03  0.24199567520E+03  0.00000000000E+00 0. -1.
<scales pt_clust_5="13000.00000" pt_clust_6="13000.00000" pt_clust_7="13000.00000" pt_clust_8="13000.00000" pt_clust_9="93.13766"></scales>
<clustering>
<clus scale="   81.117">  5  6 -1 -1</clus>
<clus scale="   91.121">  7  8 -1 -1</clus>
<clus scale="  115.610">  2  5  1 -1</clus>
<clus scale="   93.138">  1  9  2 -1</clus>
<clus scale="   93.138">  1  5  2 -1</clus>
</clustering>
</event>
<event>
 9    2  0.3745229E-005  0.1271474E+03  0.7546771E-02  0.1235067E+00
         -1   -1    0    0    0  501 -0.00000000000E+00  0.00000000000E+00  0.25173359872E+03  0.25173359872E+03  0.00000000000E+00 0.  1.
         21   -1    0    0  501  502  0.00000000000E+00 -0.00000000000E+00 -0.13539711931E+03  0.13539711931E+03  0.00000000000E+00 0.  1.
         23    2    1    2    0    0  0.51719675888E+02  0.82069208621E+02  0.18232349323E+03  0.22596977147E+03  0.91707151063E+02 0.  0.
         24    2    1    2    0    0 -0.26161101857E+02 -0.43848794200E+02 -0.65632882689E+02  0.11518088356E+03  0.79698435640E+02 0.  0.
        -11    1    4    4    0    0 -0.24479621445E+01  0.22912533361E+02 -0.22666709615E+02  0.32322692160E+02  0.00000000000E+00 0.  1.
         12    1    4    4    0    0 -0.23713139713E+02 -0.66761327561E+02 -0.42966173074E+02  0.82858191396E+02  0.00000000000E+00 0. -1.
        -13    1    3    3    0    0  0.33053986128E+02  0.35136778854E+02  0.16603371642E+03  0.17289983868E+03  0.00000000000E+00 0.  1.
         13    1    3    3    0    0  0.18665689760E+02  0.46932429768E+02  0.16289776817E+02  0.53069932795E+02  0.00000000000E+00 0. -1.
         -2    1    1    2    0  502 -0.25558574031E+02 -0.38220414422E+02 -0.35413112476E+00  0.45980063005E+02  0.00000000000E+00 0.  1.
<scales pt_clust_5="13000.00000" pt_clust_6="13000.00000" pt_clust_7="13000.00000" pt_clust_8="13000.00000" pt_clust_9="45.97870"></scales>
<clustering>
<clus scale="   45.979">  2  9  1 -1</clus>
<clus scale="   79.698">  5  6 -1 -1</clus>
<clus scale="   91.707">  7  8 -1 -1</clus>
<clus scale="  118.778">  2  5  1 -1</clus>
<clus scale="   45.979">  2  5  1 -1</clus>
</clustering>
</event>
<event>
 9    2  0.3745229E-005  0.9222717E+02  0.7546771E-02  0.1303626E+00
         21   -1    0    0  501  502  0.00000000000E+00  0.00000000000E+00  0.61750799281E+02  0.61750799281E+02  0.00000000000E+00 0.  1.
         -1   -1    0    0    0  501 -0.00000000000E+00 -0.00000000000E+00 -0.31873473266E+03  0.31873473266E+03  0.00000000000E+00 0.  1.
         23    2    1    2    0    0  0.37971379674E+02  0.12324927634E+01 -0.11074098688E+03  0.14678950713E+03  0.88545177813E+02 0.  0.
         24    2    1    2    0    0  0.18374435248E+02  0.54109846904E+02 -0.49643608744E+02  0.10891999557E+03  0.78317189323E+02 0.  0.
        -11    1    4    4    0    0  0.25053431420E+02  0.10662549310E+02  0.14739789313E+02  0.30961682330E+02  0.00000000000E+00 0.  1.
         12    1    4    4    0    0 -0.66789961720E+01  0.43447297593E+02 -0.64383398057E+02  0.77958313241E+02  0.00000000000E+00 0. -1.
        -11    1    3    3    0    0  0.14304671612E+02 -0.42716220301E+02 -0.40217328187E+02  0.60388182563E+02  0.00000000000E+00 0.  1.
         11    1    3    3    0    0  0.23666708062E+02  0.43948713065E+02 -0.70523658697E+02  0.86401324565E+02  0.00000000000E+00 0. -1.
         -2    1    1    2    0  502 -0.56345814922E+02 -0.55342339667E+02 -0.96599337747E+02  0.12477602924E+03  0.00000000000E+00 0.  1.
<scales pt_clust_5="13000.00000" pt_clust_6="13000.00000" pt_clust_7="13000.00000" pt_clust_8="13000.00000" pt_clust_9="78.97868"></scales>
<clustering>
<clus scale="   78.317">  5  6 -1 -1</clus>
<clus scale="   78.979">  1  9  2 -1</clus>
<clus scale="   82.457">  1  5  2 -1</clus>
<clus scale="   88.545">  7  8 -1 -1</clus>
<clus scale="   78.979">  1  5  2 -1</clus>
</clustering>
</event>
<event>
 9    2  0.3745229E-005  0.1051717E+03  0.7546771E-02  0.1272744E+00
         21   -1    0    0  501  502  0.00000000000E+00  0.00000000000E+00  0.82556155209E+03  0.82556155209E+03  0.00000000000E+00 0. -1.
         -1   -1    0    0    0  501 -0.00000000000E+00 -0.00000000000E+00 -0.31891604654E+02  0.31891604654E+02  0.00000000000E+00 0.  1.
         23    2    1    2    0    0 -0.42083337230E+02  0.45463275543E+02  0.10176491191E+03  0.14691398332E+03  0.85963390484E+02 0.  0.
         24    2    1    2    0    0  0.22681035290E+02 -0.50828834170E+02  0.68071655414E+03  0.68750831031E+03  0.78706098353E+02 0.  0.
        -11    1    4    4    0    0 -0.15352927367E+02 -0.45137966653E+02  0.21580756221E+03  0.22101143029E+03  0.00000000000E+00 0.  1.
         12    1    4    4    0    0  0.38033962657E+02 -0.56908675171E+01  0.46490899193E+03  0.46649688002E+03  0.00000000000E+00 0. -1.
        -11    1    3    3    0    0 -0.31641726865E+02 -0.21052544163E+02  0.44537199426E+02  0.58548873835E+02  0.00000000000E+00 0. -1.
         11    1    3    3    0    0 -0.10441610365E+02  0.66515819706E+02  0.57227712481E+02  0.88365109483E+02  0.00000000000E+00 0.  1.
         -2    1    1    2    0  502  0.19402301940E+02  0.53655586263E+01  0.11188481381E+02  0.23030863109E+02  0.00000000000E+00 0.  1.
<scales pt_clust_5="13000.00000" pt_clust_6="13000.00000" pt_clust_7="13000.00000" pt_clust_8="13000.00000" pt_clust_9="20.13055"></scales>
<clustering>
<clus scale="   20.131">  1  9  2 -1</clus>
<clus scale="   78.706">  5  6 -1 -1</clus>
<clus scale="   85.963">  7  8 -1 -1</clus>
<clus scale="   99.328">  1  5  2 -1</clus>
<clus scale="   20.131">  1  5  2 -1</clus>
</clustering>
</event>
<event>
 9    2  0.3745229E-005  0.1086841E+03  0.7546771E-02  0.1266411E+00
         -1   -1    0    0    0  501 -0.00000000000E+00  0.00000000000E+00  0.47712987716E+03  0.47712987716E+03  0.00000000000E+00 0.  1.
         21   -1    0    0  501  502  0.00000000000E+00 -0.00000000000E+00 -0.41288881908E+02  0.41288881908E+02  0.00000000000E+00 0.  1.
         24    2    1    2    0    0  0.13593819633E+02 -0.64999142134E+02  0.28637117512E+03  0.30523688532E+03  0.82167060376E+02 0.  0.
         23    2    1    2    0    0 -0.34652752753E+02  0.40332587720E+02  0.14695174717E+03  0.18065099207E+03  0.90622480849E+02 0.  0.
        -13    1    3    3    0    0  0.29854308656E+02 -0.69411928708E+02  0.27428318746E+03  0.28450054924E+03  0.00000000000E+00 0.  1.
         14    1    3    3    0    0 -0.16260489022E+02  0.44127865750E+01  0.12087987662E+02  0.20736336087E+02  0.00000000000E+00 0. -1.
        -11    1    4    4    0    0 -0.22979329155E+02  0.69710627692E+02  0.10544724161E+03  0.12847856609E+03  0.00000000000E+00 0. -1.
         11    1    4    4    0    0 -0.11673423598E+02 -0.29378039972E+02  0.41504505556E+02  0.52172425979E+02  0.00000000000E+00 0.  1.
         -2    1    1    2    0  502  0.21058933120E+02  0.24666554413E+02  0.25180729574E+01  0.32530881669E+02  0.00000000000E+00 0.  1.
<scales pt_clust_5="13000.00000" pt_clust_6="13000.00000" pt_clust_7="13000.00000" pt_clust_8="13000.00000" pt_clust_9="32.43328"></scales>
<clustering>
<clus scale="   32.433">  2  9  1 -1</clus>
<clus scale="   82.167">  5  6 -1 -1</clus>
<clus scale="   90.622">  7  8 -1 -1</clus>
<clus scale="  101.741">  1  5  2 -1</clus>
<clus scale="   32.433">  2  5  1 -1</clus>
</clustering>
</event>
<event>
 9    2  0.3745229E-005  0.9893662E+02  0.7546771E-02  0.1287845E+00
         21   -1    0    0  501  502  0.00000000000E+00  0.00000000000E+00  0.70959153778E+03  0.70959153778E+03  0.00000000000E+00 0.  1.
         -1   -1    0    0    0  501 -0.00000000000E+00 -0.00000000000E+00 -0.37949441222E+02  0.37949441222E+02  0.00000000000E+00 0.  1.
         23    2    1    2    0    0 -0.64868151320E+01  0.35177158408E+02  0.69909174106E+02  0.12015598403E+03  0.90943150540E+02 0.  0.
         24    2    1    2    0    0  0.71992691929E+02 -0.27375575467E+02  0.36724696638E+03  0.38379610321E+03  0.80602386468E+02 0.  0.
        -11    1    4    4    0    0  0.75084558849E+02 -0.88546323870E+01  0.17498839245E+03  0.19062275044E+03  0.00000000000E+00 0.  1.
         12    1    4    4    0    0 -0.30918669197E+01 -0.18520943080E+02  0.19225857393E+03  0.19317335278E+03  0.00000000000E+00 0. -1.
        -13    1    3    3    0    0 -0.25868434358E+02  0.60516954997E+02  0.46328554185E+02  0.80484859887E+02  0.00000000000E+00 0. -1.
         13    1    3    3    0    0  0.19381619226E+02 -0.25339796589E+02  0.23580619921E+02  0.39671124144E+02  0.00000000000E+00 0.  1.
         -2    1    1    2    0  502 -0.65505876797E+02 -0.78015829406E+01  0.23448595608E+03  0.24358889176E+03  0.00000000000E+00 0.  1.
<scales pt_clust_5="13000.00000" pt_clust_6="13000.00000" pt_clust_7="13000.00000" pt_clust_8="13000.00000" pt_clust_9="65.96882"></scales>
<clustering>
<clus scale="   65.969">  1  9  2 -1</clus>
<clus scale="   80.602">  5  6 -1 -1</clus>
<clus scale="   89.524">  1  5  2 -1</clus>
<clus scale="   90.943">  7  8 -1 -1</clus>
<clus scale="   65.969">  1  5  2 -1</clus>
</clustering>
</event>
<event>
 9    2  0.3745229E-005  0.9687176E+02  0.7546771E-02  0.1289814E+00
          2   -1    0    0  502    0 -0.00000000000E+00  0.00000000000E+00  0.50022435047E+03  0.50022435047E+03  0.00000000000E+00 0. -1.
         21   -1    0    0  501  502  0.00000000000E+00 -0.00000000000E+00 -0.45579897057E+02  0.45579897057E+02  0.00000000000E+00 0.  1.
         23    2    1    2    0    0  0.74407169007E+01 -0.20608136240E+02  0.13625336169E+03  0.16475411025E+03  0.89993770480E+02 0.  0.
         24    2    1    2    0    0 -0.52707293115E+02 -0.59384502977E+02  0.21220631481E+03  0.24061121069E+03  0.80979359878E+02 0.  0.
        -13    1    4    4    0    0 -0.30976322932E+02 -0.74548208270E+02  0.18848846983E+03  0.20504846061E+03  0.00000000000E+00 0.  1.
         14    1    4    4    0    0 -0.21730970183E+02  0.15163705293E+02  0.23717844974E+02  0.35562750083E+02  0.00000000000E+00 0. -1.
        -13    1    3    3    0    0 -0.40864247460E+02 -0.14129151765E+02  0.73813075908E+02  0.85544665673E+02  0.00000000000E+00 0.  1.
         13    1    3    3    0    0  0.48304964361E+02 -0.64789844747E+01  0.62440285782E+02  0.79209444578E+02  0.00000000000E+00 0. -1.
          1    1    1    2  501    0  0.45266576215E+02  0.79992639217E+02  0.10618477691E+03  0.14043892658E+03  0.00000000000E+00 0. -1.
<scales pt_clust_5="13000.00000" pt_clust_6="13000.00000" pt_clust_7="13000.00000" pt_clust_8="13000.00000" pt_clust_9="91.91238"></scales>
<clustering>
<clus scale="   80.979">  5  6 -1 -1</clus>
<clus scale="   89.994">  7  8 -1 -1</clus>
<clus scale="   91.912">  2  9  1 -1</clus>
<clus scale="   91.912">  2  5  1 -1</clus>
<clus scale="   91.912">  2  5  1 -1</clus>
</clustering>
</event>
<event>
 9    2  0.3745229E-005  0.4614608E+03  0.7546771E-02  0.1069392E+00
         21   -1    0    0  501  502  0.00000000000E+00  0.00000000000E+00  0.11511474358E+03  0.11511474358E+03  0.00000000000E+00 0. -1.
          2   -1    0    0  502    0 -0.00000000000E+00 -0.00000000000E+00 -0.26221588839E+04  0.26221588839E+04  0.00000000000E+00 0. -1.
         24    2    1    2    0    0 -0.66287162564E+02 -0.67969221440E+02 -0.68785857848E+03  0.69941279053E+03  0.83755743598E+02 0.  0.
         23    2    1    2    0    0 -0.30906276462E+03  0.32881026572E+03 -0.94215191254E+03  0.10488645578E+04  0.93971543355E+02 0.  0.
        -13    1    3    3    0    0 -0.15614423732E+02 -0.62091930952E+02 -0.23078731637E+03  0.23950366075E+03  0.00000000000E+00 0.  1.
         14    1    3    3    0    0 -0.50672738833E+02 -0.58772904882E+01 -0.45707126211E+03  0.45990912978E+03  0.00000000000E+00 0. -1.
        -13    1    4    4    0    0 -0.17744512902E+03  0.19413135091E+03 -0.65099379734E+03  0.70211585895E+03  0.00000000000E+00 0.  1.
         13    1    4    4    0    0 -0.13161763560E+03  0.13467891481E+03 -0.29115811520E+03  0.34674869883E+03  0.00000000000E+00 0. -1.
          1    1    1    2  501    0  0.37534992718E+03 -0.26084104428E+03 -0.87703364933E+03  0.98899627920E+03  0.00000000000E+00 0. -1.
<scales pt_clust_5="13000.00000" pt_clust_6="13000.00000" pt_clust_7="13000.00000" pt_clust_8="13000.00000" pt_clust_9="451.79135"></scales>
<clustering>
<clus scale="   83.756">  5  6 -1 -1</clus>
<clus scale="   93.972">  7  8 -1 -1</clus>
<clus scale="  126.605">  2  5  1 -1</clus>
<clus scale="  451.791">  1  9  2 -1</clus>
<clus scale="  451.791">  1  5  2 -1</clus>
</clustering>
</event>
<event>
 9    2  0.3745229E-005  0.1177228E+03  0.7546771E-02  0.1250742E+00
         21   -1    0    0  501  502  0.00000000000E+00  0.00000000000E+00  0.52582809409E+03  0.52582809409E+03  0.00000000000E+00 0.  1.
         -1   -1    0    0    0  501 -0.00000000000E+00 -0.00000000000E+00 -0.21211264036E+03  0.21211264036E+03  0.00000000000E+00 0.  1.
         23    2    1    2    0    0  0.69490396873E+02  0.34267640284E+02 -0.18163001015E+03  0.21747022928E+03  0.91107922869E+02 0.  0.
         24    2    1    2    0    0 -0.20041290796E+01 -0.35153729116E+02  0.34277220272E+03  0.35363591189E+03  0.79534734673E+02 0.  0.
        -11    1    4    4    0    0 -0.26192375342E+02 -0.50539459046E+02  0.25594949283E+03  0.26220301358E+03  0.00000000000E+00 0.  1.
         12    1    4    4    0    0  0.24188246263E+02  0.15385729931E+02  0.86822709884E+02  0.91432898316E+02  0.00000000000E+00 0. -1.
        -11    1    3    3    0    0  0.59964660988E+02  0.58318946537E+02 -0.92729607178E+02  0.12488250534E+03  0.00000000000E+00 0.  1.
         11    1    3    3    0    0  0.95257358854E+01 -0.24051306253E+02 -0.88900402971E+02  0.92587723944E+02  0.00000000000E+00 0. -1.
         -2    1    1    2    0  502 -0.67486267794E+02  0.88608883160E+00  0.15257326115E+03  0.16683459327E+03  0.00000000000E+00 0.  1.
<scales pt_clust_5="13000.00000" pt_clust_6="13000.00000" pt_clust_7="13000.00000" pt_clust_8="13000.00000" pt_clust_9="67.49208"></scales>
<clustering>
<clus scale="   67.492">  1  9  2 -1</clus>
<clus scale="   79.535">  5  6 -1 -1</clus>
<clus scale="   91.108">  7  8 -1 -1</clus>
<clus scale="  109.013">  1  5  2 -1</clus>
<clus scale="   67.492">  1  5  2 -1</clus>
</clustering>
</event>
<event>
 9    2  0.3745229E-005  0.1846124E+03  0.7546771E-02  0.1165117E+00
          2   -1    0    0  502    0 -0.00000000000E+00  0.00000000000E+00  0.80177650675E+03  0.80177650675E+03  0.00000000000E+00 0. -1.
         21   -1    0    0  501  502  0.00000000000E+00 -0.00000000000E+00 -0.55119476195E+02  0.55119476195E+02  0.00000000000E+00 0.  1.
         24    2    1    2    0    0 -0.15118056965E+03 -0.50559946807E+02  0.31716739157E+03  0.36265250760E+03  0.74228122261E+02 0.  0.
         23    2    1    2    0    0  0.16187913488E+03  0.30037394141E+02  0.24639398302E+03  0.30969089828E+03  0.89951977488E+02 0.  0.
        -13    1    3    3    0    0 -0.13550589404E+03 -0.58796595686E+02  0.31029332199E+03  0.34365801701E+03  0.00000000000E+00 0.  1.
         14    1    3    3    0    0 -0.15674675605E+02  0.82366488797E+01  0.68740695749E+01  0.18994490586E+02  0.00000000000E+00 0. -1.
        -13    1    4    4    0    0  0.15884971331E+02 -0.13530506945E+02  0.85897654163E+02  0.88395780007E+02  0.00000000000E+00 0. -1.
         13    1    4    4    0    0  0.14599416355E+03  0.43567901086E+02  0.16049632885E+03  0.22129511827E+03  0.00000000000E+00 0.  1.
          1    1    1    2  501    0 -0.10698565235E+02  0.20522552666E+02  0.18309565597E+03  0.18455257707E+03  0.00000000000E+00 0. -1.
<scales pt_clust_5="13000.00000" pt_clust_6="13000.00000" pt_clust_7="13000.00000" pt_clust_8="13000.00000" pt_clust_9="23.14379"></scales>
<clustering>
<clus scale="   23.144">  2  9  1 -1</clus>
<clus scale="   74.228">  5  6 -1 -1</clus>
<clus scale="   89.952">  7  8 -1 -1</clus>
<clus scale="  177.483">  1  5  2 -1</clus>
<clus scale="   23.144">  2  5  1 -1</clus>
</clustering>
</event>
<event>
 9    2  0.3745229E-005  0.1020680E+03  0.7546771E-02  0.1281565E+00
          2   -1    0    0  502    0 -0.00000000000E+00  0.00000000000E+00  0.48059857812E+03  0.48059857812E+03  0.00000000000E+00 0. -1.
         21   -1    0    0  501  502  0.00000000000E+00 -0.00000000000E+00 -0.40803682702E+02  0.40803682702E+02  0.00000000000E+00 0. -1.
         24    2    1    2    0    0  0.27446048351E+02 -0.34610587492E+02  0.33274786526E+03  0.34499313305E+03  0.79673971157E+02 0.  0.
         23    2    1    2    0    0 -0.52830947265E+02  0.23792827827E+02  0.65182305447E+02  0.12626860332E+03  0.91311661884E+02 0.  0.
        -13    1    3    3    0    0  0.99857489130E+01  0.26055566762E+02  0.95982153124E+02  0.99955897570E+02  0.00000000000E+00 0.  1.
         14    1    3    3    0    0  0.17460299438E+02 -0.60666154254E+02  0.23676571214E+03  0.24503723548E+03  0.00000000000E+00 0. -1.
        -11    1    4    4    0    0  0.31411854554E+00  0.46208791821E+02  0.46706430842E+02  0.65702677221E+02  0.00000000000E+00 0.  1.
         11    1    4    4    0    0 -0.53145065811E+02 -0.22415963994E+02  0.18475874605E+02  0.60565926099E+02  0.00000000000E+00 0. -1.
          1    1    1    2  501    0  0.25384898914E+02  0.10817759665E+02  0.41864724704E+02  0.50140524445E+02  0.00000000000E+00 0. -1.
<scales pt_clust_5="13000.00000" pt_clust_6="13000.00000" pt_clust_7="13000.00000" pt_clust_8="13000.00000" pt_clust_9="27.59379"></scales>
<clustering>
<clus scale="   27.594">  2  9  1 -1</clus>
<clus scale="   79.674">  5  6 -1 -1</clus>
<clus scale="   91.312">  7  8 -1 -1</clus>
<clus scale="   91.804">  1  5  2 -1</clus>
<clus scale="   27.594">  2  5  1 -1</clus>
</clustering>
</event>
<event>
 9    2  0.3745229E-005  0.9675486E+02  0.7546771E-02  0.1292662E+00
          2   -1    0    0  502    0 -0.00000000000E+00  0.00000000000E+00  0.41447668978E+03  0.41447668978E+03  0.00000000000E+00 0. -1.
         21   -1    0    0  501  502  0.00000000000E+00 -0.00000000000E+00 -0.66645259618E+02  0.66645259618E+02  0.00000000000E+00 0. -1.
         24    2    1    2    0    0  0.33318887120E+02 -0.42644614868E+00  0.22295060306E+03  0.23900671244E+03  0.79416038014E+02 0.  0.
         23    2    1    2    0    0 -0.44456002013E+02 -0.72935540664E+02  0.41563052872E+02  0.13054522333E+03  0.89546852335E+02 0.  0.
        -11    1    3    3    0    0 -0.21350679823E+01  0.24527067949E+02  0.20712442536E+02  0.32173604915E+02  0.00000000000E+00 0.  1.
         12    1    3    3    0    0  0.35453955103E+02 -0.24953514098E+02  0.20223816052E+03  0.20683310753E+03  0.00000000000E+00 0. -1.
        -13    1    4    4    0    0 -0.88996765855E+01  0.19544546356E+02 -0.33955739501E+01  0.21742204535E+02  0.00000000000E+00 0.  1.
         13    1    4    4    0    0 -0.35556325428E+02 -0.92480087020E+02  0.44958626822E+02  0.10880301879E+03  0.00000000000E+00 0. -1.
          1    1    1    2  501    0  0.11137114893E+02  0.73361986813E+02  0.83317774235E+02  0.11157001363E+03  0.00000000000E+00 0. -1.
<scales pt_clust_5="13000.00000" pt_clust_6="13000.00000" pt_clust_7="13000.00000" pt_clust_8="13000.00000" pt_clust_9="74.20257"></scales>
<clustering>
<clus scale="   74.203">  2  9  1 -1</clus>
<clus scale="   79.416">  5  6 -1 -1</clus>
<clus scale="   87.463">  1  5  2 -1</clus>
<clus scale="   89.547">  7  8 -1 -1</clus>
<clus scale="   74.203">  2  5  1 -1</clus>
</clustering>
</event>
<event>
 9    2  0.3745229E-005  0.1538428E+03  0.7546771E-02  0.1196043E+00
         -1   -1    0    0    0  501 -0.00000000000E+00  0.00000000000E+00  0.33170956188E+03  0.33170956188E+03  0.00000000000E+00 0.  1.
         21   -1    0    0  501  502  0.00000000000E+00 -0.00000000000E+00 -0.17245890349E+03  0.17245890349E+03  0.00000000000E+00 0.  1.
         24    2    1    2    0    0 -0.71622342998E+02 -0.57557425139E+02 -0.76197255427E-01  0.12869097191E+03  0.90104068936E+02 0.  0.
         23    2    1    2    0    0  0.18113192422E+03  0.78265849754E+01  0.39571527727E+02  0.20575170459E+03  0.88869728979E+02 0.  0.
        -13    1    3    3    0    0 -0.79483312134E+02 -0.73100878757E+02 -0.10326886837E+02  0.10848032068E+03  0.00000000000E+00 0.  1.
         14    1    3    3    0    0  0.78609691365E+01  0.15543453617E+02  0.10250689582E+02  0.20210651227E+02  0.00000000000E+00 0. -1.
        -13    1    4    4    0    0  0.41983461031E+02 -0.17098285239E+02 -0.23379518128E+02  0.51005531329E+02  0.00000000000E+00 0.  1.
         13    1    4    4    0    0  0.13914846319E+03  0.24924870215E+02  0.62951045855E+02  0.15474617326E+03  0.00000000000E+00 0. -1.
         -2    1    1    2    0  502 -0.10950958122E+03  0.49730840164E+02  0.11975532792E+03  0.16972578888E+03  0.00000000000E+00 0.  1.
<scales pt_clust_5="13000.00000" pt_clust_6="13000.00000" pt_clust_7="13000.00000" pt_clust_8="13000.00000" pt_clust_9="120.27269"></scales>
<clustering>
<clus scale="   88.870">  7  8 -1 -1</clus>
<clus scale="   90.104">  5  6 -1 -1</clus>
<clus scale="  120.273">  2  9  1 -1</clus>
<clus scale="  153.123">  2  7  1 -1</clus>
<clus scale="  120.273">  2  5  1 -1</clus>
</clustering>
</event>
<event>
 9    2  0.3745229E-005  0.1731274E+03  0.7546771E-02  0.1187631E+00
         -1   -1    0    0    0  501 -0.00000000000E+00  0.00000000000E+00  0.33115901131E+03  0.33115901131E+03  0.00000000000E+00 0.  1.
         21   -1    0    0  501  502  0.00000000000E+00 -0.00000000000E+00 -0.19758631391E+03  0.19758631391E+03  0.00000000000E+00 0.  1.
         23    2    1    2    0    0 -0.79563263050E+01  0.89967036858E+02  0.15540758404E+02  0.13024313662E+03  0.92543982065E+02 0.  0.
         24    2    1    2    0    0 -0.14666760349E+03 -0.60879482356E+02  0.15565142554E+03  0.23673114279E+03  0.81219273613E+02 0.  0.
        -13    1    4    4    0    0 -0.12942751193E+03 -0.37290455827E+02  0.15776028953E+03  0.20743762410E+03  0.00000000000E+00 0.  1.
         14    1    4    4    0    0 -0.17240091565E+02 -0.23589026529E+02 -0.21088639895E+01  0.29293518687E+02  0.00000000000E+00 0. -1.
        -11    1    3    3    0    0 -0.31951388848E+02  0.54485653489E+02 -0.28066430673E+02  0.69118031050E+02  0.00000000000E+00 0. -1.
         11    1    3    3    0    0  0.23995062543E+02  0.35481383369E+02  0.43607189077E+02  0.61125105574E+02  0.00000000000E+00 0.  1.
         -2    1    1    2    0  502  0.15462392980E+03 -0.29087554502E+02 -0.37619486552E+02  0.16177104581E+03  0.00000000000E+00 0.  1.
<scales pt_clust_5="13000.00000" pt_clust_6="13000.00000" pt_clust_7="13000.00000" pt_clust_8="13000.00000" pt_clust_9="152.89386"></scales>
<clustering>
<clus scale="   81.219">  5  6 -1 -1</clus>
<clus scale="   92.544">  7  8 -1 -1</clus>
<clus scale="  129.313">  1  7  2 -1</clus>
<clus scale="  152.894">  2  9  1 -1</clus>
<clus scale="  152.894">  2  5  1 -1</clus>
</clustering>
</event>
<event>
 9    2  0.3745229E-005  0.1052276E+03  0.7546771E-02  0.1273698E+00
          2   -1    0    0  502    0 -0.00000000000E+00  0.00000000000E+00  0.91588298812E+03  0.91588298812E+03  0.00000000000E+00 0. -1.
         21   -1    0    0  501  502  0.00000000000E+00 -0.00000000000E+00 -0.19850701376E+02  0.19850701376E+02  0.00000000000E+00 0.  1.
         24    2    1    2    0    0 -0.56640326199E+02  0.37845012091E+02  0.56803286352E+03  0.57775646722E+03  0.80627724078E+02 0.  0.
         23    2    1    2    0    0  0.34935141739E+02 -0.63880997453E+00  0.26154858051E+03  0.27878674932E+03  0.89963989599E+02 0.  0.
        -11    1    3    3    0    0 -0.42150811539E+02 -0.37180208388E-01  0.10792042290E+03  0.11585987215E+03  0.00000000000E+00 0.  1.
         12    1    3    3    0    0 -0.14489514659E+02  0.37882192300E+02  0.46011244062E+03  0.46189659508E+03  0.00000000000E+00 0. -1.
        -11    1    4    4    0    0  0.23837945682E+02  0.39735241354E+02  0.79803401405E+02  0.92280658513E+02  0.00000000000E+00 0.  1.
         11    1    4    4    0    0  0.11097196056E+02 -0.40374051329E+02  0.18174517910E+03  0.18650609081E+03  0.00000000000E+00 0. -1.
          1    1    1    2  501    0  0.21705184460E+02 -0.37206202117E+02  0.66450842714E+02  0.79190472948E+02  0.00000000000E+00 0. -1.
<scales pt_clust_5="13000.00000" pt_clust_6="13000.00000" pt_clust_7="13000.00000" pt_clust_8="13000.00000" pt_clust_9="43.07455"></scales>
<clustering>
<clus scale="   43.075">  2  9  1 -1</clus>
<clus scale="   80.628">  5  6 -1 -1</clus>
<clus scale="   89.964">  7  8 -1 -1</clus>
<clus scale="   97.366">  1  5  2 -1</clus>
<clus scale="   43.075">  2  5  1 -1</clus>
</clustering>
</event>
<event>
 9    2  0.3745229E-005  0.1553253E+03  0.7546771E-02  0.1218796E+00
          2   -1    0    0  502    0 -0.00000000000E+00  0.00000000000E+00  0.18558593960E+03  0.18558593960E+03  0.00000000000E+00 0. -1.
         21   -1    0    0  501  502  0.00000000000E+00 -0.00000000000E+00 -0.30192343244E+03  0.30192343244E+03  0.00000000000E+00 0.  1.
         23    2    1    2    0    0 -0.44916528008E+01 -0.13203734622E+02 -0.10177036268E+03  0.13674019001E+03  0.90256076207E+02 0.  0.
         24    2    1    2    0    0 -0.11383448019E+03  0.68177867733E+02 -0.10855696362E+03  0.18996707430E+03  0.81831316974E+02 0.  0.
        -13    1    4    4    0    0 -0.76724032511E+02  0.80181909252E+02 -0.10137371749E+03  0.15030750591E+03  0.00000000000E+00 0.  1.
         14    1    4    4    0    0 -0.37110447675E+02 -0.12004041519E+02 -0.71832461351E+01  0.39659568385E+02  0.00000000000E+00 0. -1.
        -11    1    3    3    0    0  0.33419121784E+02 -0.30111379918E+02 -0.74649670565E+02  0.87155643632E+02  0.00000000000E+00 0.  1.
         11    1    3    3    0    0 -0.37910774585E+02  0.16907645296E+02 -0.27120692111E+02  0.49584546380E+02  0.00000000000E+00 0. -1.
          1    1    1    2  501    0  0.11832613299E+03 -0.54974133111E+02  0.93989833450E+02  0.16080210773E+03  0.00000000000E+00 0. -1.
<scales pt_clust_5="13000.00000" pt_clust_6="13000.00000" pt_clust_7="13000.00000" pt_clust_8="13000.00000" pt_clust_9="132.02118"></scales>
<clustering>
<clus scale="   81.831">  5  6 -1 -1</clus>
<clus scale="   90.256">  7  8 -1 -1</clus>
<clus scale="   91.327">  1  7  2 -1</clus>
<clus scale="  132.021">  2  9  1 -1</clus>
<clus scale="  132.021">  2  5  1 -1</clus>
</clustering>
</event>
<event>
 9    2  0.3745229E-005  0.1037922E+03  0.7546771E-02  0.1279362E+00
         21   -1    0    0  501  502  0.00000000000E+00  0.00000000000E+00  0.18587884764E+03  0.18587884764E+03  0.00000000000E+00 0. -1.
          2   -1    0    0  502    0 -0.00000000000E+00 -0.00000000000E+00 -0.15980445790E+03  0.15980445790E+03  0.00000000000E+00 0. -1.
         24    2    1    2    0    0 -0.47300080441E+02 -0.18219173740E+02 -0.11548613508E+03  0.14641317014E+03  0.74367554045E+02 0.  0.
         23    2    1    2    0    0  0.69907750986E+02  0.14362279888E+02  0.13111726496E+03  0.17407005456E+03  0.89528084946E+02 0.  0.
        -13    1    3    3    0    0 -0.92742641507E+00  0.25792021015E+02 -0.38362275293E+02  0.46235837112E+02  0.00000000000E+00 0.  1.
         14    1    3    3    0    0 -0.46372654026E+02 -0.44011194755E+02 -0.77123859787E+02  0.10017733303E+03  0.00000000000E+00 0. -1.
        -13    1    4    4    0    0 -0.18389338948E+02  0.12336640166E+02  0.47674167134E+02  0.52566022196E+02  0.00000000000E+00 0.  1.
         13    1    4    4    0    0  0.88297089935E+02  0.20256397224E+01  0.83443097825E+02  0.12150403237E+03  0.00000000000E+00 0. -1.
          1    1    1    2  501    0 -0.22607670545E+02  0.38568938517E+01  0.10443259855E+02  0.25200080834E+02  0.00000000000E+00 0. -1.
<scales pt_clust_5="13000.00000" pt_clust_6="13000.00000" pt_clust_7="13000.00000" pt_clust_8="13000.00000" pt_clust_9="22.93431"></scales>
<clustering>
<clus scale="   22.934">  1  9  2 -1</clus>
<clus scale="   74.368">  5  6 -1 -1</clus>
<clus scale="   89.528">  7  8 -1 -1</clus>
<clus scale="   91.039">  2  5  1 -1</clus>
<clus scale="   22.934">  1  5  2 -1</clus>
</clustering>
</event>
<event>
 9    2  0.3745229E-005  0.1356770E+03  0.7546771E-02  0.1220201E+00
          2   -1    0    0  502    0 -0.00000000000E+00  0.00000000000E+00  0.41444394654E+03  0.41444394654E+03  0.00000000000E+00 0. -1.
         21   -1    0    0  501  502  0.00000000000E+00 -0.00000000000E+00 -0.16521102403E+03  0.16521102403E+03  0.00000000000E+00 0.  1.
         23    2    1    2    0    0 -0.94499089481E+02 -0.30710186958E+02  0.24044014158E+03  0.27436181415E+03  0.87119170611E+02 0.  0.
         24    2    1    2    0    0  0.82938742586E+02  0.14484887901E+03 -0.18687229456E+02  0.18732522172E+03  0.82954767047E+02 0.  0.
        -11    1    4    4    0    0  0.38410353322E+02  0.27771340163E+02 -0.37787828889E+02  0.60617840516E+02  0.00000000000E+00 0.  1.
         12    1    4    4    0    0  0.44528389265E+02  0.11707753885E+03  0.19100599433E+02  0.12670738121E+03  0.00000000000E+00 0. -1.
        -11    1    3    3    0    0 -0.87226437699E+01  0.26748408814E+02  0.40123526912E+02  0.49004686513E+02  0.00000000000E+00 0. -1.
         11    1    3    3    0    0 -0.85776445711E+02 -0.57458595772E+02  0.20031661467E+03  0.22535712764E+03  0.00000000000E+00 0.  1.
          1    1    1    2  501    0  0.11560346895E+02 -0.11413869205E+03  0.27480010392E+02  0.11796793469E+03  0.00000000000E+00 0. -1.
<scales pt_clust_5="13000.00000" pt_clust_6="13000.00000" pt_clust_7="13000.00000" pt_clust_8="13000.00000" pt_clust_9="114.72263"></scales>
<clustering>
<clus scale="   82.955">  5  6 -1 -1</clus>
<clus scale="   87.119">  7  8 -1 -1</clus>
<clus scale="  114.723">  2  9  1 -1</clus>
<clus scale="  133.041">  2  5  1 -1</clus>
<clus scale="  114.723">  2  5  1 -1</clus>
</clustering>
</event>
<event>
 9    2  0.3745229E-005  0.1002101E+03  0.7546771E-02  0.1282912E+00
         21   -1    0    0  501  502  0.00000000000E+00  0.00000000000E+00  0.10644566397E+03  0.10644566397E+03  0.00000000000E+00 0. -1.
          4   -1    0    0  502    0 -0.00000000000E+00 -0.00000000000E+00 -0.43688417575E+03  0.43688417575E+03  0.00000000000E+00 0. -1.
         23    2    1    2    0    0 -0.13853227920E+02  0.41015892162E+02 -0.29526550996E+03  0.31066819604E+03  0.86364294246E+02 0.  0.
         24    2    1    2    0    0  0.23587127506E+02 -0.68536092315E+02 -0.10900028175E+03  0.15327286942E+03  0.79736833059E+02 0.  0.
        -13    1    4    4    0    0  0.31791974314E+02 -0.23448483531E+02 -0.52492856991E+01  0.39851173270E+02  0.00000000000E+00 0.  1.
         14    1    4    4    0    0 -0.82048468082E+01 -0.45087608785E+02 -0.10375099605E+03  0.11342169615E+03  0.00000000000E+00 0. -1.
        -13    1    3    3    0    0  0.15871637721E+02  0.59491203187E+02 -0.18410197001E+03  0.19412533967E+03  0.00000000000E+00 0. -1.
         13    1    3    3    0    0 -0.29724865641E+02 -0.18475311024E+02 -0.11116353995E+03  0.11654285636E+03  0.00000000000E+00 0.  1.
          3    1    1    2  501    0 -0.97338995857E+01  0.27520200153E+02  0.73827279925E+02  0.79388774261E+02  0.00000000000E+00 0. -1.
<scales pt_clust_5="13000.00000" pt_clust_6="13000.00000" pt_clust_7="13000.00000" pt_clust_8="13000.00000" pt_clust_9="29.19093"></scales>
<clustering>
<clus scale="   29.191">  1  9  2 -1</clus>
<clus scale="   79.737">  5  6 -1 -1</clus>
<clus scale="   86.364">  7  8 -1 -1</clus>
<clus scale="   94.558">  1  5  2 -1</clus>
<clus scale="   29.191">  1  5  2 -1</clus>
</clustering>
</event>
<event>
 9    2  0.3745229E-005  0.1950700E+03  0.7546771E-02  0.1179081E+00
         21   -1    0    0  501  502  0.00000000000E+00  0.00000000000E+00  0.43107075061E+03  0.43107075061E+03  0.00000000000E+00 0. -1.
          2   -1    0    0  502    0 -0.00000000000E+00 -0.00000000000E+00 -0.31814802943E+03  0.31814802943E+03  0.00000000000E+00 0. -1.
         23    2    1    2    0    0 -0.11667745508E+02 -0.59563396937E+02 -0.18337356848E+03  0.21354509976E+03  0.91058824254E+02 0.  0.
         24    2    1    2    0    0  0.12219505357E+03 -0.91271983738E+02 -0.15108636991E+02  0.17243735744E+03  0.79020030349E+02 0.  0.
        -11    1    4    4    0    0  0.48268429217E+02  0.14670550676E+01  0.14076200456E+02  0.50300426728E+02  0.00000000000E+00 0.  1.
         12    1    4    4    0    0  0.73926624348E+02 -0.92739038805E+02 -0.29184837447E+02  0.12213693071E+03  0.00000000000E+00 0. -1.
        -11    1    3    3    0    0 -0.36381924518E+02 -0.66705345642E+01 -0.24714105082E+02  0.44485137440E+02  0.00000000000E+00 0.  1.
         11    1    3    3    0    0  0.24714179010E+02 -0.52892862372E+02 -0.15865946339E+03  0.16905996232E+03  0.00000000000E+00 0. -1.
          1    1    1    2  501    0 -0.11052730806E+03  0.15083538067E+03  0.31140492665E+03  0.36323632285E+03  0.00000000000E+00 0. -1.
<scales pt_clust_5="13000.00000" pt_clust_6="13000.00000" pt_clust_7="13000.00000" pt_clust_8="13000.00000" pt_clust_9="178.34833"></scales>
<clustering>
<clus scale="   79.020">  5  6 -1 -1</clus>
<clus scale="   91.059">  7  8 -1 -1</clus>
<clus scale="  109.433">  2  7  1 -1</clus>
<clus scale="  178.348">  1  9  2 -1</clus>
<clus scale="  178.348">  1  5  2 -1</clus>
</clustering>
</event>
<event>
 9    2  0.3745229E-005  0.4054565E+03  0.7546771E-02  0.1069543E+00
         21   -1    0    0  501  502  0.00000000000E+00  0.00000000000E+00  0.17967023877E+04  0.17967023877E+04  0.00000000000E+00 0.  1.
         -1   -1    0    0    0  501 -0.00000000000E+00 -0.00000000000E+00 -0.20582760506E+03  0.20582760506E+03  0.00000000000E+00 0.  1.
         24    2    1    2    0    0  0.47693401993E+02  0.15962105930E+03  0.80274400758E+03  0.82398224910E+03  0.82433378966E+02 0.  0.
         23    2    1    2    0    0 -0.40597517021E+03  0.94365604307E+01  0.62353587736E+03  0.74955149123E+03  0.90141888976E+02 0.  0.
        -13    1    3    3    0    0  0.56195268507E+02  0.12210164049E+03  0.46447165114E+03  0.48352935126E+03  0.00000000000E+00 0.  1.
         14    1    3    3    0    0 -0.85018665142E+01  0.37519418808E+02  0.33827235644E+03  0.34045289784E+03  0.00000000000E+00 0. -1.
        -13    1    4    4    0    0 -0.22561201253E+03 -0.27692607664E+02  0.39855964338E+03  0.45882180642E+03  0.00000000000E+00 0.  1.
         13    1    4    4    0    0 -0.18036315768E+03  0.37129168095E+02  0.22497623398E+03  0.29072968481E+03  0.00000000000E+00 0. -1.
         -2    1    1    2    0  502  0.35828176822E+03 -0.16905761973E+03  0.16459489765E+03  0.42899625239E+03  0.00000000000E+00 0.  1.
<scales pt_clust_5="13000.00000" pt_clust_6="13000.00000" pt_clust_7="13000.00000" pt_clust_8="13000.00000" pt_clust_9="395.30948"></scales>
<clustering>
<clus scale="   82.433">  5  6 -1 -1</clus>
<clus scale="   90.142">  7  8 -1 -1</clus>
<clus scale="  185.873">  2  5  1 -1</clus>
<clus scale="  395.309">  1  9  2 -1</clus>
<clus scale="  395.309">  1  5  2 -1</clus>
</clustering>
</event>
<event>
 9    2  0.3745229E-005  0.1043905E+03  0.7546771E-02  0.1277148E+00
          2   -1    0    0  502    0 -0.00000000000E+00  0.00000000000E+00  0.10652101153E+03  0.10652101153E+03  0.00000000000E+00 0. -1.
         21   -1    0    0  501  502  0.00000000000E+00 -0.00000000000E+00 -0.16836372165E+03  0.16836372165E+03  0.00000000000E+00 0.  1.
         23    2    1    2    0    0  0.28171599968E+02  0.17781322660E+02  0.96910371384E+01  0.98994981212E+02  0.92716102291E+02 0.  0.
         24    2    1    2    0    0 -0.52111798374E+02 -0.41708630507E+02 -0.88128364622E+01  0.10461870727E+03  0.80075954170E+02 0.  0.
        -11    1    4    4    0    0 -0.38854121329E+02 -0.60096265418E+02 -0.26033470048E+02  0.76150807114E+02  0.00000000000E+00 0.  1.
         12    1    4    4    0    0 -0.13257677045E+02  0.18387634911E+02  0.17220633586E+02  0.28467900157E+02  0.00000000000E+00 0. -1.
        -11    1    3    3    0    0  0.15587109439E+02  0.54700707153E+02  0.16885734926E+02  0.59331723283E+02  0.00000000000E+00 0. -1.
         11    1    3    3    0    0  0.12584490529E+02 -0.36919384494E+02 -0.71946977878E+01  0.39663257929E+02  0.00000000000E+00 0.  1.
          1    1    1    2  501    0  0.23940198406E+02  0.23927307847E+02 -0.62720910794E+02  0.71271044691E+02  0.00000000000E+00 0. -1.
<scales pt_clust_5="13000.00000" pt_clust_6="13000.00000" pt_clust_7="13000.00000" pt_clust_8="13000.00000" pt_clust_9="33.84744"></scales>
<clustering>
<clus scale="   33.847">  2  9  1 -1</clus>
<clus scale="   80.076">  5  6 -1 -1</clus>
<clus scale="   92.716">  7  8 -1 -1</clus>
<clus scale="   93.345">  2  5  1 -1</clus>
<clus scale="   33.847">  2  5  1 -1</clus>
</clustering>
</event>
<event>
 9    2  0.3745229E-005  0.9179577E+02  0.7546771E-02  0.1304886E+00
         21   -1    0    0  501  502  0.00000000000E+00  0.00000000000E+00  0.41431386710E+02  0.41431386710E+02  0.00000000000E+00 0. -1.
         -1   -1    0    0    0  501 -0.00000000000E+00 -0.00000000000E+00 -0.45453215722E+03  0.45453215722E+03  0.00000000000E+00 0.  1.
         24    2    1    2    0    0 -0.19780015310E+02 -0.44939859516E+01 -0.31399345932E+03  0.32410202687E+03  0.77709628795E+02 0.  0.
         23    2    1    2    0    0  0.39567609966E+02  0.30415993474E+02 -0.95099701294E+02  0.13900485391E+03  0.88247763757E+02 0.  0.
        -13    1    3    3    0    0 -0.17267662821E+01 -0.36423644764E+02 -0.89689513851E+02  0.96818761170E+02  0.00000000000E+00 0.  1.
         14    1    3    3    0    0 -0.18053249027E+02  0.31929658812E+02 -0.22430394547E+03  0.22728326570E+03  0.00000000000E+00 0. -1.
        -11    1    4    4    0    0  0.64666969733E+02  0.26376196722E+02 -0.45744557249E+02  0.83487036394E+02  0.00000000000E+00 0. -1.
         11    1    4    4    0    0 -0.25099359767E+02  0.40397967526E+01 -0.49355144044E+02  0.55517817520E+02  0.00000000000E+00 0.  1.
         -2    1    1    2    0  502 -0.19787594656E+02 -0.25922007523E+02 -0.40076098970E+01  0.32856663150E+02  0.00000000000E+00 0.  1.
<scales pt_clust_5="13000.00000" pt_clust_6="13000.00000" pt_clust_7="13000.00000" pt_clust_8="13000.00000" pt_clust_9="32.61134"></scales>
<clustering>
<clus scale="   32.611">  1  9  2 -1</clus>
<clus scale="   77.710">  5  6 -1 -1</clus>
<clus scale="   81.716">  2  5  1 -1</clus>
<clus scale="   88.248">  7  8 -1 -1</clus>
<clus scale="   32.611">  1  5  2 -1</clus>
</clustering>
</event>
<event>
 9    2  0.3745229E-005  0.1487829E+03  0.7546771E-02  0.1204208E+00
         21   -1    0    0  501  502  0.00000000000E+00  0.00000000000E+00  0.40780932098E+02  0.40780932098E+02  0.00000000000E+00 0. -1.
          2   -1    0    0  502    0 -0.00000000000E+00 -0.00000000000E+00 -0.86198226559E+03  0.86198226559E+03  0.00000000000E+00 0. -1.
         24    2    1    2    0    0 -0.10292773556E+03 -0.44615566402E+02 -0.41026661552E+03  0.43281005226E+03  0.80132253273E+02 0.  0.
         23    2    1    2    0    0  0.10368085427E+03  0.67480352642E+02 -0.41839870464E+03  0.44588913217E+03  0.91958276463E+02 0.  0.
        -13    1    3    3    0    0 -0.74795791258E+02 -0.45072976611E+02 -0.17210755470E+03  0.19299480302E+03  0.00000000000E+00 0.  1.
         14    1    3    3    0    0 -0.28131944300E+02  0.45741020844E+00 -0.23815906082E+03  0.23981524923E+03  0.00000000000E+00 0. -1.
        -13    1    4    4    0    0  0.43406794134E+02  0.81325076606E+02 -0.24194844446E+03  0.25891498148E+03  0.00000000000E+00 0. -1.
         13    1    4    4    0    0  0.60274060132E+02 -0.13844723964E+02 -0.17645026018E+03  0.18697415069E+03  0.00000000000E+00 0.  1.
          1    1    1    2  501    0 -0.75311870825E+00 -0.22864786240E+02  0.74639866591E+01  0.24064013266E+02  0.00000000000E+00 0. -1.
<scales pt_clust_5="13000.00000" pt_clust_6="13000.00000" pt_clust_7="13000.00000" pt_clust_8="13000.00000" pt_clust_9="22.87719"></scales>
<clustering>
<clus scale="   22.877">  1  9  2 -1</clus>
<clus scale="   80.132">  5  6 -1 -1</clus>
<clus scale="   91.958">  7  8 -1 -1</clus>
<clus scale="  141.779">  2  5  1 -1</clus>
<clus scale="   22.877">  1  5  2 -1</clus>
</clustering>
</event>
<event>
 9    2  0.3745229E-005  0.2357418E+03  0.7546771E-02  0.1123207E+00
          2   -1    0    0  502    0 -0.00000000000E+00  0.00000000000E+00  0.29249123884E+03  0.29249123884E+03  0.00000000000E+00 0. -1.
         21   -1    0    0  501  502  0.00000000000E+00 -0.00000000000E+00 -0.41186779084E+03  0.41186779084E+03  0.00000000000E+00 0.  1.
         23    2    1    2    0    0 -0.20197296718E+03 -0.70329714533E+02  0.15439164235E+03  0.27887670183E+03  0.90532244955E+02 0.  0.
         24    2    1    2    0    0  0.23399626211E+03  0.26948068554E+02 -0.15135018050E+03  0.29171525888E+03  0.81917434324E+02 0.  0.
        -13    1    4    4    0    0  0.31588331880E+02  0.65788457254E+01 -0.61241469398E+02  0.69221539250E+02  0.00000000000E+00 0.  1.
         14    1    4    4    0    0  0.20240793023E+03  0.20369222829E+02 -0.90108711098E+02  0.22249371963E+03  0.00000000000E+00 0. -1.
        -11    1    3    3    0    0 -0.18943629919E+03 -0.88682243114E+02  0.14617022920E+03  0.25517912845E+03  0.00000000000E+00 0. -1.
         11    1    3    3    0    0 -0.12536667991E+02  0.18352528582E+02  0.82214131578E+01  0.23697573377E+02  0.00000000000E+00 0.  1.
          1    1    1    2  501    0 -0.32023294937E+02  0.43381645978E+02 -0.12241801386E+03  0.13376706898E+03  0.00000000000E+00 0. -1.
<scales pt_clust_5="13000.00000" pt_clust_6="13000.00000" pt_clust_7="13000.00000" pt_clust_8="13000.00000" pt_clust_9="53.92086"></scales>
<clustering>
<clus scale="   53.921">  2  9  1 -1</clus>
<clus scale="   81.917">  5  6 -1 -1</clus>
<clus scale="   90.532">  7  8 -1 -1</clus>
<clus scale="  232.569">  2  5  1 -1</clus>
<clus scale="   53.921">  2  5  1 -1</clus>
</clustering>
</event>
<event>
 9    2  0.3745229E-005  0.1023822E+03  0.7546771E-02  0.1279651E+00
         -1   -1    0    0    0  501 -0.00000000000E+00  0.00000000000E+00  0.51758172556E+02  0.51758172556E+02  0.00000000000E+00 0.  1.
         21   -1    0    0  501  502  0.00000000000E+00 -0.00000000000E+00 -0.45924952528E+03  0.45924952528E+03  0.00000000000E+00 0. -1.
         23    2    1    2    0    0 -0.40565386490E+02 -0.56950091270E+02 -0.14273774360E+03  0.18315167234E+03  0.91003341460E+02 0.  0.
         24    2    1    2    0    0  0.49753841665E+02 -0.33311811125E+02 -0.15817091500E+03  0.18788635228E+03  0.81842052156E+02 0.  0.
        -13    1    4    4    0    0  0.12760779460E+02 -0.27930399928E+02 -0.61248920649E+01  0.31312282500E+02  0.00000000000E+00 0.  1.
         14    1    4    4    0    0  0.36993062205E+02 -0.53814111971E+01 -0.15204602293E+03  0.15657406978E+03  0.00000000000E+00 0. -1.
        -11    1    3    3    0    0  0.21200636528E+02  0.16535918091E+01 -0.63031028268E+02  0.66521514412E+02  0.00000000000E+00 0. -1.
         11    1    3    3    0    0 -0.61766023018E+02 -0.58603683079E+02 -0.79706715332E+02  0.11663015793E+03  0.00000000000E+00 0.  1.
         -2    1    1    2    0  502 -0.91884551750E+01  0.90261902395E+02 -0.10658269412E+03  0.13996967321E+03  0.00000000000E+00 0.  1.
<scales pt_clust_5="13000.00000" pt_clust_6="13000.00000" pt_clust_7="13000.00000" pt_clust_8="13000.00000" pt_clust_9="90.72842"></scales>
<clustering>
<clus scale="   81.842">  5  6 -1 -1</clus>
<clus scale="   90.728">  2  9  1 -1</clus>
<clus scale="   91.003">  7  8 -1 -1</clus>
<clus scale="   94.333">  2  5  1 -1</clus>
<clus scale="   90.728">  2  5  1 -1</clus>
</clustering>
</event>
<event>
 9    2  0.3745229E-005  0.1357253E+03  0.7546771E-02  0.1223379E+00
         21   -1    0    0  501  502  0.00000000000E+00  0.00000000000E+00  0.26401438306E+02  0.26401438306E+02  0.00000000000E+00 0.  1.
         -3   -1    0    0    0  501 -0.00000000000E+00 -0.00000000000E+00 -0.95639873552E+03  0.95639873552E+03  0.00000000000E+00 0.  1.
         23    2    1    2    0    0  0.15969223421E+02  0.87931475936E+02 -0.59769244449E+03  0.61122390109E+03  0.91495565453E+02 0.  0.
         24    2    1    2    0    0  0.29491175565E+01 -0.75624032901E+02 -0.32053233131E+03  0.34612103674E+03  0.10644766325E+03 0.  0.
        -13    1    4    4    0    0 -0.10829338984E+02  0.24563856347E+02 -0.99389650983E+02  0.10295125227E+03  0.00000000000E+00 0.  1.
         14    1    4    4    0    0  0.13778456540E+02 -0.10018788925E+03 -0.22114268033E+03  0.24316978447E+03  0.00000000000E+00 0. -1.
        -11    1    3    3    0    0 -0.20201869151E+02  0.85023422346E+02 -0.48569515718E+03  0.49349456286E+03  0.00000000000E+00 0.  1.
         11    1    3    3    0    0  0.36171092572E+02  0.29080535901E+01 -0.11199728731E+03  0.11772933823E+03  0.00000000000E+00 0. -1.
         -4    1    1    2    0  502 -0.18918340978E+02 -0.12307443035E+02 -0.11772521409E+02  0.25455235999E+02  0.00000000000E+00 0.  1.
<scales pt_clust_5="13000.00000" pt_clust_6="13000.00000" pt_clust_7="13000.00000" pt_clust_8="13000.00000" pt_clust_9="22.56938"></scales>
<clustering>
<clus scale="   22.569">  1  9  2 -1</clus>
<clus scale="   91.496">  7  8 -1 -1</clus>
<clus scale="  106.448">  5  6 -1 -1</clus>
<clus scale="  124.345">  2  7  1 -1</clus>
<clus scale="   22.569">  1  5  2 -1</clus>
</clustering>
</event>
<event>
 9    2  0.3745229E-005  0.1178017E+03  0.7546771E-02  0.1252197E+00
          2   -1    0    0  502    0 -0.00000000000E+00  0.00000000000E+00  0.81751562837E+03  0.81751562837E+03  0.00000000000E+00 0. -1.
         21   -1    0    0  501  502  0.00000000000E+00 -0.00000000000E+00 -0.23105027713E+02  0.23105027713E+02  0.00000000000E+00 0. -1.
         23    2    1    2    0    0  0.21302547916E+02 -0.61245524680E+02  0.38985835771E+03  0.40646513583E+03  0.94971336329E+02 0.  0.
         24    2    1    2    0    0 -0.62174935700E+02  0.51879250644E+02  0.32499160836E+03  0.34422124565E+03  0.79445208657E+02 0.  0.
        -11    1    4    4    0    0  0.16260258237E+02  0.26302562079E+02  0.91325320272E+02  0.96418540192E+02  0.00000000000E+00 0.  1.
         12    1    4    4    0    0 -0.78435193937E+02  0.25576688565E+02  0.23366628808E+03  0.24780270546E+03  0.00000000000E+00 0. -1.
        -11    1    3    3    0    0  0.57652739319E+02 -0.50345199097E+02  0.24209487309E+03  0.25390629177E+03  0.00000000000E+00 0. -1.
         11    1    3    3    0    0 -0.36350191404E+02 -0.10900325583E+02  0.14776348462E+03  0.15255884406E+03  0.00000000000E+00 0.  1.
          1    1    1    2  501    0  0.40872387784E+02  0.93662740364E+01  0.79560634584E+02  0.89934274601E+02  0.00000000000E+00 0. -1.
<scales pt_clust_5="13000.00000" pt_clust_6="13000.00000" pt_clust_7="13000.00000" pt_clust_8="13000.00000" pt_clust_9="41.93184"></scales>
<clustering>
<clus scale="   41.932">  2  9  1 -1</clus>
<clus scale="   79.445">  5  6 -1 -1</clus>
<clus scale="   94.971">  7  8 -1 -1</clus>
<clus scale="  105.685">  2  5  1 -1</clus>
<clus scale="   41.932">  2  5  1 -1</clus>
</clustering>
</event>
<event>
 9    2  0.3745229E-005  0.1785858E+03  0.7546771E-02  0.1170683E+00
         21   -1    0    0  501  502  0.00000000000E+00  0.00000000000E+00  0.94591626081E+02  0.94591626081E+02  0.00000000000E+00 0. -1.
          2   -1    0    0  502    0 -0.00000000000E+00 -0.00000000000E+00 -0.11962499623E+04  0.11962499623E+04  0.00000000000E+00 0. -1.
         24    2    1    2    0    0  0.15260826028E+03  0.28795300968E+02 -0.10534207117E+04  0.10677910560E+04  0.79775265972E+02 0.  0.
         23    2    1    2    0    0 -0.13381378022E+03  0.15873775024E+02 -0.14225650743E+02  0.16384434017E+03  0.92111313946E+02 0.  0.
        -11    1    3    3    0    0  0.22608682404E+02  0.24780257721E+02 -0.98530293702E+02  0.10408377621E+03  0.00000000000E+00 0.  1.
         12    1    3    3    0    0  0.12999957788E+03  0.40150432469E+01 -0.95489041796E+03  0.96370727980E+03  0.00000000000E+00 0. -1.
        -13    1    4    4    0    0  0.16851742787E+01  0.20690359126E+02 -0.19048532465E+02  0.28174054769E+02  0.00000000000E+00 0.  1.
         13    1    4    4    0    0 -0.13549895450E+03 -0.48165841018E+01  0.48228817212E+01  0.13567028541E+03  0.00000000000E+00 0. -1.
          1    1    1    2  501    0 -0.18794480060E+02 -0.44669075992E+02 -0.34011973780E+02  0.59206192168E+02  0.00000000000E+00 0. -1.
<scales pt_clust_5="13000.00000" pt_clust_6="13000.00000" pt_clust_7="13000.00000" pt_clust_8="13000.00000" pt_clust_9="48.46193"></scales>
<clustering>
<clus scale="   48.462">  1  9  2 -1</clus>
<clus scale="   79.775">  5  6 -1 -1</clus>
<clus scale="   92.111">  7  8 -1 -1</clus>
<clus scale="  172.547">  2  5  1 -1</clus>
<clus scale="   48.462">  1  5  2 -1</clus>
</clustering>
</event>
<event>
 9    2  0.3745229E-005  0.1738008E+03  0.7546771E-02  0.1197873E+00
          2   -1    0    0  502    0 -0.00000000000E+00  0.00000000000E+00  0.73491534905E+03  0.73491534905E+03  0.00000000000E+00 0. -1.
         21   -1    0    0  501  502  0.00000000000E+00 -0.00000000000E+00 -0.64564446595E+02  0.64564446595E+02  0.00000000000E+00 0. -1.
         24    2    1    2    0    0 -0.15388623157E+02  0.59956969600E+02  0.13541736851E+03  0.16955749988E+03  0.81118642412E+02 0.  0.
         23    2    1    2    0    0  0.62578392824E+02  0.10974431096E+03  0.23794867028E+03  0.28463197121E+03  0.91847266200E+02 0.  0.
        -11    1    3    3    0    0 -0.59434096597E+01  0.56728852623E+02  0.31495061836E+02  0.65156931775E+02  0.00000000000E+00 0.  1.
         12    1    3    3    0    0 -0.94452134974E+01  0.32281169762E+01  0.10392230667E+03  0.10440056811E+03  0.00000000000E+00 0. -1.
        -11    1    4    4    0    0  0.84474882391E+02  0.76273117986E+02  0.19615827789E+03  0.22678550277E+03  0.00000000000E+00 0. -1.
         11    1    4    4    0    0 -0.21896489567E+02  0.33471192974E+02  0.41790392397E+02  0.57846468441E+02  0.00000000000E+00 0.  1.
          1    1    1    2  501    0 -0.47189769667E+02 -0.16970128056E+03  0.29698486367E+03  0.34529032456E+03  0.00000000000E+00 0. -1.
<scales pt_clust_5="13000.00000" pt_clust_6="13000.00000" pt_clust_7="13000.00000" pt_clust_8="13000.00000" pt_clust_9="147.54942"></scales>
<clustering>
<clus scale="   81.119">  5  6 -1 -1</clus>
<clus scale="   91.847">  7  8 -1 -1</clus>
<clus scale="  102.039">  1  5  2 -1</clus>
<clus scale="  147.549">  2  9  1 -1</clus>
<clus scale="  147.549">  2  5  1 -1</clus>
</clustering>
</event>
<event>
 9    2  0.3745229E-005  0.9606662E+02  0.7546771E-02  0.1297324E+00
          2   -1    0    0  502    0 -0.00000000000E+00  0.00000000000E+00  0.18811649483E+03  0.18811649483E+03  0.00000000000E+00 0. -1.
         21   -1    0    0  501  502  0.00000000000E+00 -0.00000000000E+00 -0.10745786815E+03  0.10745786815E+03  0.00000000000E+00 0. -1.
         24    2    1    2    0    0  0.18171440067E+02  0.13444383222E+02  0.11744078273E+03  0.14410898351E+03  0.80399682866E+02 0.  0.
         23    2    1    2    0    0  0.28126923248E+02 -0.33915774124E+01 -0.31497488301E+02  0.10379437085E+03  0.94755226986E+02 0.  0.
        -11    1    3    3    0    0 -0.20543563701E+02  0.58548749321E+01  0.12444844761E+01  0.21397810908E+02  0.00000000000E+00 0.  1.
         12    1    3    3    0    0  0.38715003769E+02  0.75895082898E+01  0.11619629825E+03  0.12271117260E+03  0.00000000000E+00 0. -1.
        -11    1    4    4    0    0 -0.34347896814E+02 -0.23027315691E+01 -0.21304602193E+02  0.40484153231E+02  0.00000000000E+00 0.  1.
         11    1    4    4    0    0  0.62474820063E+02 -0.10888458433E+01 -0.10192886108E+02  0.63310217614E+02  0.00000000000E+00 0. -1.
          1    1    1    2  501    0 -0.46298363316E+02 -0.10052805809E+02 -0.52846677426E+01  0.47671008627E+02  0.00000000000E+00 0. -1.
<scales pt_clust_5="13000.00000" pt_clust_6="13000.00000" pt_clust_7="13000.00000" pt_clust_8="13000.00000" pt_clust_9="47.37718"></scales>
<clustering>
<clus scale="   47.377">  2  9  1 -1</clus>
<clus scale="   80.400">  5  6 -1 -1</clus>
<clus scale="   81.941">  1  5  2 -1</clus>
<clus scale="   94.755">  7  8 -1 -1</clus>
<clus scale="   47.377">  2  5  1 -1</clus>
</clustering>
</event>
<event>
 9    2  0.3745229E-005  0.1023045E+03  0.7546771E-02  0.1283404E+00
          2   -1    0    0  502    0 -0.00000000000E+00  0.00000000000E+00  0.15200163822E+03  0.15200163822E+03  0.00000000000E+00 0. -1.
         21   -1    0    0  501  502  0.00000000000E+00 -0.00000000000E+00 -0.26410321416E+03  0.26410321416E+03  0.00000000000E+00 0.  1.
         24    2    1    2    0    0  0.31943408174E+02 -0.21628761107E+02  0.11805540344E+03  0.14749716359E+03  0.79562242004E+02 0.  0.
         23    2    1    2    0    0 -0.30619035305E+02 -0.29751305384E+01 -0.22058368795E+03  0.24217374552E+03  0.95103012072E+02 0.  0.
        -11    1    3    3    0    0  0.23572640272E+02  0.21427848967E+02  0.14432388128E+02  0.34973074041E+02  0.00000000000E+00 0.  1.
         12    1    3    3    0    0  0.83707679014E+01 -0.43056610074E+02  0.10362301531E+03  0.11252408955E+03  0.00000000000E+00 0. -1.
        -11    1    4    4    0    0  0.15145365206E+02  0.36497844689E+02 -0.88185797447E+02  0.96634412222E+02  0.00000000000E+00 0. -1.
         11    1    4    4    0    0 -0.45764400511E+02 -0.39472975227E+02 -0.13239789051E+03  0.14553933330E+03  0.00000000000E+00 0.  1.
          1    1    1    2  501    0 -0.13243728689E+01  0.24603891645E+02 -0.95732914252E+01  0.26433943261E+02  0.00000000000E+00 0. -1.
<scales pt_clust_5="13000.00000" pt_clust_6="13000.00000" pt_clust_7="13000.00000" pt_clust_8="13000.00000" pt_clust_9="24.63951"></scales>
<clustering>
<clus scale="   24.640">  2  9  1 -1</clus>
<clus scale="   79.562">  5  6 -1 -1</clus>
<clus scale="   88.044">  1  5  2 -1</clus>
<clus scale="   95.103">  7  8 -1 -1</clus>
<clus scale="   24.640">  2  5  1 -1</clus>
</clustering>
</event>
<event>
 9    2  0.3745229E-005  0.9380639E+02  0.7546771E-02  0.1300396E+00
          2   -1    0    0  502    0 -0.00000000000E+00  0.00000000000E+00  0.55004529609E+03  0.55004529609E+03  0.00000000000E+00 0. -1.
         21   -1    0    0  501  502  0.00000000000E+00 -0.00000000000E+00 -0.43907636868E+02  0.43907636868E+02  0.00000000000E+00 0.  1.
         24    2    1    2    0    0 -0.22035453624E+02 -0.24638585132E+02  0.18123559037E+03  0.20105586404E+03  0.80526394124E+02 0.  0.
         23    2    1    2    0    0  0.58088745494E+01 -0.34531442096E+02  0.47639972903E+02  0.10892759198E+03  0.91484915471E+02 0.  0.
        -13    1    3    3    0    0 -0.20189583821E+02  0.17460915060E+02  0.17342118016E+02  0.31831618037E+02  0.00000000000E+00 0.  1.
         14    1    3    3    0    0 -0.18458698036E+01 -0.42099500192E+02  0.16389347236E+03  0.16922424600E+03  0.00000000000E+00 0. -1.
        -11    1    4    4    0    0  0.36952013394E+02 -0.22219648317E+02 -0.81278674562E+01  0.43877400727E+02  0.00000000000E+00 0.  1.
         11    1    4    4    0    0 -0.31143138845E+02 -0.12311793779E+02  0.55767840359E+02  0.65050191249E+02  0.00000000000E+00 0. -1.
          1    1    1    2  501    0  0.16226579075E+02  0.59170027229E+02  0.27726209594E+03  0.28396947695E+03  0.00000000000E+00 0. -1.
<scales pt_clust_5="13000.00000" pt_clust_6="13000.00000" pt_clust_7="13000.00000" pt_clust_8="13000.00000" pt_clust_9="61.35469"></scales>
<clustering>
<clus scale="   61.355">  2  9  1 -1</clus>
<clus scale="   80.526">  5  6 -1 -1</clus>
<clus scale="   83.154">  1  5  2 -1</clus>
<clus scale="   91.485">  7  8 -1 -1</clus>
<clus scale="   61.355">  2  5  1 -1</clus>
</clustering>
</event>
<event>
 9    2  0.3745229E-005  0.2736429E+03  0.7546771E-02  0.1099588E+00
         -1   -1    0    0    0  501 -0.00000000000E+00  0.00000000000E+00  0.78032923058E+03  0.78032923058E+03  0.00000000000E+00 0.  1.
         21   -1    0    0  501  502  0.00000000000E+00 -0.00000000000E+00 -0.20498150549E+03  0.20498150549E+03  0.00000000000E+00 0.  1.
         24    2    1    2    0    0 -0.24367003792E+03 -0.44295235635E+02  0.44369001701E+03  0.51500410364E+03  0.83852491247E+02 0.  0.
         23    2    1    2    0    0  0.30602416981E+03  0.21826519700E+01  0.10601650933E+01  0.31958428604E+03  0.92072989831E+02 0.  0.
        -13    1    3    3    0    0 -0.24498738132E+03 -0.33115652676E+02  0.43650570906E+03  0.50164997508E+03  0.00000000000E+00 0.  1.
         14    1    3    3    0    0  0.13173433966E+01 -0.11179582960E+02  0.71843079510E+01  0.13354128557E+02  0.00000000000E+00 0. -1.
        -11    1    4    4    0    0  0.31762904542E+02  0.30270223506E+02 -0.72553821354E+00  0.43882740819E+02  0.00000000000E+00 0.  1.
         11    1    4    4    0    0  0.27426126527E+03 -0.28087571536E+02  0.17857033068E+01  0.27570154522E+03  0.00000000000E+00 0. -1.
         -2    1    1    2    0  502 -0.62354131886E+02  0.42112583665E+02  0.13059754300E+03  0.15072234640E+03  0.00000000000E+00 0.  1.
<scales pt_clust_5="13000.00000" pt_clust_6="13000.00000" pt_clust_7="13000.00000" pt_clust_8="13000.00000" pt_clust_9="75.24303"></scales>
<clustering>
<clus scale="   75.243">  2  9  1 -1</clus>
<clus scale="   83.852">  5  6 -1 -1</clus>
<clus scale="   92.073">  7  8 -1 -1</clus>
<clus scale="  270.988">  1  5  2 -1</clus>
<clus scale="   75.243">  2  5  1 -1</clus>
</clustering>
</event>
<event>
 9    2  0.3745229E-005  0.1777151E+03  0.7546771E-02  0.1181120E+00
          2   -1    0    0  502    0 -0.00000000000E+00  0.00000000000E+00  0.12848199454E+03  0.12848199454E+03  0.00000000000E+00 0. -1.
         21   -1    0    0  501  502  0.00000000000E+00 -0.00000000000E+00 -0.56527648483E+03  0.56527648483E+03  0.00000000000E+00 0. -1.
         23    2    1    2    0    0 -0.10237982986E+03  0.15555988339E+02 -0.21551249485E+02  0.13991364960E+03  0.91584685692E+02 0.  0.
         24    2    1    2    0    0 -0.11992265855E+03 -0.22232086883E-01 -0.16783240949E+03  0.22087063649E+03  0.78959963650E+02 0.  0.
        -11    1    4    4    0    0 -0.31658708136E+02 -0.33052315950E+02 -0.79337526656E+02  0.91592426141E+02  0.00000000000E+00 0.  1.
         12    1    4    4    0    0 -0.88263950418E+02  0.33030083864E+02 -0.88494882834E+02  0.12927821035E+03  0.00000000000E+00 0. -1.
        -11    1    3    3    0    0 -0.75854587376E+02  0.91218405130E+01  0.29600885299E+02  0.81934966961E+02  0.00000000000E+00 0. -1.
         11    1    3    3    0    0 -0.26525242484E+02  0.64341478260E+01 -0.51152134784E+02  0.57978682635E+02  0.00000000000E+00 0.  1.
          1    1    1    2  501    0  0.22230248841E+03 -0.15533756252E+02 -0.24741083132E+03  0.33297419328E+03  0.00000000000E+00 0. -1.
<scales pt_clust_5="13000.00000" pt_clust_6="13000.00000" pt_clust_7="13000.00000" pt_clust_8="13000.00000" pt_clust_9="159.21059"></scales>
<clustering>
<clus scale="   78.960">  5  6 -1 -1</clus>
<clus scale="   91.585">  7  8 -1 -1</clus>
<clus scale="  138.244">  1  7  2 -1</clus>
<clus scale="  159.211">  2  9  1 -1</clus>
<clus scale="  159.211">  2  5  1 -1</clus>
</clustering>
</event>
<event>
 9    2  0.3745229E-005  0.2311140E+03  0.7546771E-02  0.1126209E+00
         21   -1    0    0  501  502  0.00000000000E+00  0.00000000000E+00  0.11482857823E+03  0.11482857823E+03  0.00000000000E+00 0.  1.
          2   -1    0    0  502    0 -0.00000000000E+00 -0.00000000000E+00 -0.14764682295E+04  0.14764682295E+04  0.00000000000E+00 0. -1.
         23    2    1    2    0    0 -0.19280341353E+03 -0.45479588564E+02 -0.89043381946E+03  0.91617578244E+03  0.85229855454E+02 0.  0.
         24    2    1    2    0    0  0.27514253709E+03  0.16997060898E+03 -0.30343647322E+03  0.45056746126E+03  0.79648730230E+02 0.  0.
        -13    1    4    4    0    0  0.22609661804E+03  0.14752326529E+03 -0.20746461619E+03  0.34047666802E+03  0.00000000000E+00 0.  1.
         14    1    4    4    0    0  0.49045919050E+02  0.22447343688E+02 -0.95971857034E+02  0.11009079324E+03  0.00000000000E+00 0. -1.
        -11    1    3    3    0    0 -0.10989883423E+03 -0.29963915718E+02 -0.67988623474E+03  0.68936266377E+03  0.00000000000E+00 0. -1.
         11    1    3    3    0    0 -0.82904579303E+02 -0.15515672847E+02 -0.21054758472E+03  0.22681311867E+03  0.00000000000E+00 0.  1.
          1    1    1    2  501    0 -0.82339123562E+02 -0.12449102041E+03 -0.16776935857E+03  0.22455356401E+03  0.00000000000E+00 0. -1.
<scales pt_clust_5="13000.00000" pt_clust_6="13000.00000" pt_clust_7="13000.00000" pt_clust_8="13000.00000" pt_clust_9="149.25731"></scales>
<clustering>
<clus scale="   79.649">  5  6 -1 -1</clus>
<clus scale="   85.230">  7  8 -1 -1</clus>
<clus scale="  149.257">  1  9  2 -1</clus>
<clus scale="  229.115">  1  5  2 -1</clus>
<clus scale="  149.257">  1  5  2 -1</clus>
</clustering>
</event>
<event>
 9    2  0.3745229E-005  0.1893718E+03  0.7546771E-02  0.1194496E+00
         21   -1    0    0  501  502  0.00000000000E+00  0.00000000000E+00  0.37359124979E+03  0.37359124979E+03  0.00000000000E+00 0. -1.
          2   -1    0    0  502    0 -0.00000000000E+00 -0.00000000000E+00 -0.62324922389E+03  0.62324922389E+03  0.00000000000E+00 0. -1.
         24    2    1    2    0    0 -0.24628063499E+02  0.28019058270E+00 -0.21125474423E+03  0.22768582527E+03  0.81275137977E+02 0.  0.
         23    2    1    2    0    0 -0.12811145492E+03  0.70400921992E+02 -0.36422874763E+03  0.40242934497E+03  0.88982933181E+02 0.  0.
        -11    1    3    3    0    0  0.27898762375E+02 -0.35585163339E+01 -0.43001442391E+02  0.51382176173E+02  0.00000000000E+00 0.  1.
         12    1    3    3    0    0 -0.52526825874E+02  0.38387069166E+01 -0.16825330183E+03  0.17630364910E+03  0.00000000000E+00 0. -1.
        -11    1    4    4    0    0 -0.98659808408E+02  0.50983930635E+02 -0.34461470980E+03  0.36206686839E+03  0.00000000000E+00 0.  1.
         11    1    4    4    0    0 -0.29451646510E+02  0.19416991357E+02 -0.19614037825E+02  0.40362476576E+02  0.00000000000E+00 0. -1.
          1    1    1    2  501    0  0.15273951842E+03 -0.70681112574E+02  0.32582551776E+03  0.36672530344E+03  0.00000000000E+00 0. -1.
<scales pt_clust_5="13000.00000" pt_clust_6="13000.00000" pt_clust_7="13000.00000" pt_clust_8="13000.00000" pt_clust_9="167.16369"></scales>
<clustering>
<clus scale="   81.275">  5  6 -1 -1</clus>
<clus scale="   84.925">  2  5  1 -1</clus>
<clus scale="   88.983">  7  8 -1 -1</clus>
<clus scale="  167.164">  1  9  2 -1</clus>
<clus scale="  167.164">  1  5  2 -1</clus>
</clustering>
</event>
<event>
 9    2  0.3745229E-005  0.1814398E+03  0.7546771E-02  0.1185976E+00
          2   -1    0    0  502    0 -0.00000000000E+00  0.00000000000E+00  0.10227754524E+04  0.10227754524E+04  0.00000000000E+00 0. -1.
         21   -1    0    0  501  502  0.00000000000E+00 -0.00000000000E+00 -0.63389705327E+02  0.63389705327E+02  0.00000000000E+00 0. -1.
         24    2    1    2    0    0  0.74883738848E+01 -0.81470490517E+02  0.24476553376E+03  0.27109733767E+03  0.83006526267E+02 0.  0.
         23    2    1    2    0    0  0.63008337720E+02 -0.78986933135E+02  0.57537065719E+03  0.59122231523E+03  0.91013442103E+02 0.  0.
        -13    1    3    3    0    0 -0.30748400451E+02 -0.56180906081E+02  0.18501496976E+03  0.19578635645E+03  0.00000000000E+00 0.  1.
         14    1    3    3    0    0  0.38236774335E+02 -0.25289584436E+02  0.59750564007E+02  0.75310981216E+02  0.00000000000E+00 0. -1.
        -13    1    4    4    0    0  0.46287471685E+02 -0.97158736483E+02  0.51245656398E+03  0.52363544578E+03  0.00000000000E+00 0. -1.
         13    1    4    4    0    0  0.16720866035E+02  0.18171803347E+02  0.62914093205E+02  0.67586869447E+02  0.00000000000E+00 0.  1.
          1    1    1    2  501    0 -0.70496711604E+02  0.16045742365E+03  0.13924955611E+03  0.22384550482E+03  0.00000000000E+00 0. -1.
<scales pt_clust_5="13000.00000" pt_clust_6="13000.00000" pt_clust_7="13000.00000" pt_clust_8="13000.00000" pt_clust_9="156.96161"></scales>
<clustering>
<clus scale="   83.007">  5  6 -1 -1</clus>
<clus scale="   91.013">  7  8 -1 -1</clus>
<clus scale="  116.549">  1  5  2 -1</clus>
<clus scale="  156.962">  2  9  1 -1</clus>
<clus scale="  156.962">  2  5  1 -1</clus>
</clustering>
</event>
<event>
 9    2  0.3745229E-005  0.1272522E+03  0.7546771E-02  0.1235394E+00
         21   -1    0    0  501  502  0.00000000000E+00  0.00000000000E+00  0.16463278617E+04  0.16463278617E+04  0.00000000000E+00 0. -1.
         -1   -1    0    0    0  501 -0.00000000000E+00 -0.00000000000E+00 -0.32100274395E+02  0.32100274395E+02  0.00000000000E+00 0.  1.
         23    2    1    2    0    0 -0.43506628395E+01 -0.78972125591E+02  0.26895814355E+03  0.29439240233E+03  0.89849199676E+02 0.  0.
         24    2    1    2    0    0 -0.80875978521E+02  0.13216667113E+03  0.11647082445E+04  0.11774066294E+04  0.75710787907E+02 0.  0.
        -13    1    4    4    0    0 -0.58862778182E+02  0.11357999465E+03  0.68559597230E+03  0.69742890611E+03  0.00000000000E+00 0.  1.
         14    1    4    4    0    0 -0.22013200339E+02  0.18586676479E+02  0.47911227219E+03  0.47997772333E+03  0.00000000000E+00 0. -1.
        -11    1    3    3    0    0  0.36198258966E+02 -0.68115269836E+02  0.18771186123E+03  0.20294271799E+03  0.00000000000E+00 0.  1.
         11    1    3    3    0    0 -0.40548921806E+02 -0.10856855755E+02  0.81246282313E+02  0.91449684342E+02  0.00000000000E+00 0. -1.
         -2    1    1    2    0  502  0.85226641361E+02 -0.53194545542E+02  0.18056119928E+03  0.20662910433E+03  0.00000000000E+00 0.  1.
<scales pt_clust_5="13000.00000" pt_clust_6="13000.00000" pt_clust_7="13000.00000" pt_clust_8="13000.00000" pt_clust_9="100.46517"></scales>
<clustering>
<clus scale="   75.711">  5  6 -1 -1</clus>
<clus scale="   89.849">  7  8 -1 -1</clus>
<clus scale="  100.465">  1  9  2 -1</clus>
<clus scale="  117.696">  1  5  2 -1</clus>
<clus scale="  100.465">  1  5  2 -1</clus>
</clustering>
</event>
<event>
 9    2  0.3745229E-005  0.1438117E+03  0.7546771E-02  0.1210015E+00
         21   -1    0    0  501  502  0.00000000000E+00  0.00000000000E+00  0.69000477336E+03  0.69000477336E+03  0.00000000000E+00 0.  1.
          2   -1    0    0  502    0 -0.00000000000E+00 -0.00000000000E+00 -0.25782326518E+03  0.25782326518E+03  0.00000000000E+00 0. -1.
         23    2    1    2    0    0  0.11116947582E+03 -0.26118386300E+01 -0.18897419176E+03  0.23663481669E+03  0.88990545911E+02 0.  0.
         24    2    1    2    0    0 -0.15191623830E+03 -0.11034094451E+03  0.50236773889E+03  0.54228730259E+03  0.80302590140E+02 0.  0.
        -13    1    4    4    0    0 -0.15651086057E+03 -0.95191787534E+02  0.41697609987E+03  0.45544065887E+03  0.00000000000E+00 0.  1.
         14    1    4    4    0    0  0.45946222782E+01 -0.15149156975E+02  0.85391639025E+02  0.86846643725E+02  0.00000000000E+00 0. -1.
        -13    1    3    3    0    0  0.85095120707E+02 -0.41743587674E+02 -0.11565076337E+03  0.14952861180E+03  0.00000000000E+00 0. -1.
         13    1    3    3    0    0  0.26074355109E+02  0.39131749044E+02 -0.73323428395E+02  0.87106204884E+02  0.00000000000E+00 0.  1.
          1    1    1    2  501    0  0.40746762480E+02  0.11295278314E+03  0.11878796105E+03  0.16890591926E+03  0.00000000000E+00 0. -1.
<scales pt_clust_5="13000.00000" pt_clust_6="13000.00000" pt_clust_7="13000.00000" pt_clust_8="13000.00000" pt_clust_9="120.07760"></scales>
<clustering>
<clus scale="   80.303">  5  6 -1 -1</clus>
<clus scale="   88.991">  7  8 -1 -1</clus>
<clus scale="  120.078">  1  9  2 -1</clus>
<clus scale="  138.604">  1  5  2 -1</clus>
<clus scale="  120.078">  1  5  2 -1</clus>
</clustering>
</event>
<event>
 9    2  0.3745229E-005  0.1031737E+03  0.7546771E-02  0.1278337E+00
         21   -1    0    0  501  502  0.00000000000E+00  0.00000000000E+00  0.17960708567E+03  0.17960708567E+03  0.00000000000E+00 0.  1.
          2   -1    0    0  502    0 -0.00000000000E+00 -0.00000000000E+00 -0.18027201450E+03  0.18027201450E+03  0.00000000000E+00 0. -1.
         23    2    1    2    0    0  0.53042239295E+02 -0.12730592119E+02 -0.12950509645E+03  0.16674033321E+03  0.89750886267E+02 0.  0.
         24    2    1    2    0    0 -0.17811686728E+02  0.47246896368E+02  0.78999098094E+02  0.12301958766E+03  0.79645690704E+02 0.  0.
        -13    1    4    4    0    0  0.18391053894E+02  0.43372041611E+02  0.71846128046E+02  0.85914090649E+02  0.00000000000E+00 0.  1.
         14    1    4    4    0    0 -0.36202740622E+02  0.38748547574E+01  0.71529700482E+01  0.37105497011E+02  0.00000000000E+00 0. -1.
        -11    1    3    3    0    0  0.71019734976E+02 -0.29881418798E+02 -0.78445623000E+02  0.10995643552E+03  0.00000000000E+00 0. -1.
         11    1    3    3    0    0 -0.17977495681E+02  0.17150826679E+02 -0.51059473454E+02  0.56783897684E+02  0.00000000000E+00 0.  1.
          1    1    1    2  501    0 -0.35230552567E+02 -0.34516304250E+02  0.49841069530E+02  0.70119179296E+02  0.00000000000E+00 0. -1.
<scales pt_clust_5="13000.00000" pt_clust_6="13000.00000" pt_clust_7="13000.00000" pt_clust_8="13000.00000" pt_clust_9="49.32106"></scales>
<clustering>
<clus scale="   49.321">  1  9  2 -1</clus>
<clus scale="   79.646">  5  6 -1 -1</clus>
<clus scale="   89.751">  7  8 -1 -1</clus>
<clus scale="   94.515">  1  5  2 -1</clus>
<clus scale="   49.321">  1  5  2 -1</clus>
</clustering>
</event>
<event>
 9    2  0.3745229E-005  0.2729822E+03  0.7546771E-02  0.1139604E+00
          2   -1    0    0  502    0 -0.00000000000E+00  0.00000000000E+00  0.89747663483E+03  0.89747663483E+03  0.00000000000E+00 0. -1.
         21   -1    0    0  501  502  0.00000000000E+00 -0.00000000000E+00 -0.12459615555E+03  0.12459615555E+03  0.00000000000E+00 0. -1.
         23    2    1    2    0    0 -0.34118245128E+02 -0.23920772082E+02  0.27919736875E+02  0.10404711747E+03  0.91159382174E+02 0.  0.
         24    2    1    2    0    0 -0.69761148548E+02  0.25852946003E+03  0.40587763579E+03  0.49280864822E+03  0.80122462355E+02 0.  0.
        -13    1    4    4    0    0  0.14902861486E+02  0.51204210315E+02  0.55436509706E+02  0.76923163240E+02  0.00000000000E+00 0.  1.
         14    1    4    4    0    0 -0.84664010034E+02  0.20732524971E+03  0.35044112608E+03  0.41588548498E+03  0.00000000000E+00 0. -1.
        -11    1    3    3    0    0  0.28490574661E+02  0.83916402987E+01  0.10127773319E+02  0.31379997830E+02  0.00000000000E+00 0.  1.
         11    1    3    3    0    0 -0.62608819788E+02 -0.32312412380E+02  0.17791963556E+02  0.72667119637E+02  0.00000000000E+00 0. -1.
          1    1    1    2  501    0  0.10387939368E+03 -0.23460868795E+03  0.33908310662E+03  0.42521702469E+03  0.00000000000E+00 0. -1.
<scales pt_clust_5="13000.00000" pt_clust_6="13000.00000" pt_clust_7="13000.00000" pt_clust_8="13000.00000" pt_clust_9="260.95909"></scales>
<clustering>
<clus scale="   80.122">  5  6 -1 -1</clus>
<clus scale="   91.159">  7  8 -1 -1</clus>
<clus scale="  100.231">  1  7  2 -1</clus>
<clus scale="  260.959">  2  9  1 -1</clus>
<clus scale="  260.959">  2  5  1 -1</clus>
</clustering>
</event>
<event>
 9    2  0.3745229E-005  0.5003246E+03  0.7546771E-02  0.1064145E+00
         -1   -1    0    0    0  501 -0.00000000000E+00  0.00000000000E+00  0.52166745969E+03  0.52166745969E+03  0.00000000000E+00 0.  1.
         21   -1    0    0  501  502  0.00000000000E+00 -0.00000000000E+00 -0.14336623726E+04  0.14336623726E+04  0.00000000000E+00 0. -1.
         23    2    1    2    0    0  0.64893175692E+02  0.19617437614E+02  0.29940448351E+03  0.32066886722E+03  0.92679606976E+02 0.  0.
         24    2    1    2    0    0  0.14521300082E+03 -0.46915442465E+03 -0.25967464622E+03  0.56134455866E+03  0.80523921139E+02 0.  0.
        -11    1    4    4    0    0  0.35586585315E+02 -0.24427834647E+03 -0.11474191956E+03  0.27222054242E+03  0.00000000000E+00 0.  1.
         12    1    4    4    0    0  0.10962641551E+03 -0.22487607818E+03 -0.14493272666E+03  0.28912401624E+03  0.00000000000E+00 0. -1.
        -11    1    3    3    0    0 -0.51798807025E+01  0.40034542692E+02  0.83179264619E+02  0.92457481229E+02  0.00000000000E+00 0. -1.
         11    1    3    3    0    0  0.70073056394E+02 -0.20417105077E+02  0.21622521889E+03  0.22821138599E+03  0.00000000000E+00 0.  1.
         -2    1    1    2    0  502 -0.21010617651E+03  0.44953698704E+03 -0.95172475024E+03  0.10733164064E+04  0.00000000000E+00 0.  1.
<scales pt_clust_5="13000.00000" pt_clust_6="13000.00000" pt_clust_7="13000.00000" pt_clust_8="13000.00000" pt_clust_9="493.80214"></scales>
<clustering>
<clus scale="   80.524">  5  6 -1 -1</clus>
<clus scale="   92.680">  7  8 -1 -1</clus>
<clus scale="  114.828">  1  7  2 -1</clus>
<clus scale="  493.802">  2  9  1 -1</clus>
<clus scale="  493.802">  2  5  1 -1</clus>
</clustering>
</event>
<event>
 9    2  0.3745229E-005  0.8778847E+02  0.7546771E-02  0.1309435E+00
          4   -1    0    0  502    0 -0.00000000000E+00  0.00000000000E+00  0.24194691296E+03  0.24194691296E+03  0.00000000000E+00 0. -1.
         21   -1    0    0  501  502  0.00000000000E+00 -0.00000000000E+00 -0.16283813136E+03  0.16283813136E+03  0.00000000000E+00 0. -1.
         24    2    1    2    0    0 -0.37744611840E+02  0.25092791228E+01  0.21398251109E+03  0.23161685544E+03  0.80167951621E+02 0.  0.
         23    2    1    2    0    0  0.13398073866E+02 -0.44289640072E+01 -0.78330897212E+02  0.11157654187E+03  0.78195083805E+02 0.  0.
        -11    1    3    3    0    0 -0.40667590175E+02 -0.30447269578E+02  0.16389640536E+03  0.17158939596E+03  0.00000000000E+00 0.  1.
         12    1    3    3    0    0  0.29229783349E+01  0.32956548700E+02  0.50086105721E+02  0.60027459474E+02  0.00000000000E+00 0. -1.
        -11    1    4    4    0    0  0.41132894464E+02 -0.21923921309E+02 -0.48026943488E+02  0.66926531610E+02  0.00000000000E+00 0.  1.
         11    1    4    4    0    0 -0.27734820598E+02  0.17494957302E+02 -0.30303953725E+02  0.44650010257E+02  0.00000000000E+00 0. -1.
          3    1    1    2  501    0  0.24346537974E+02  0.19196848844E+01 -0.56542832268E+02  0.61591647016E+02  0.00000000000E+00 0. -1.
<scales pt_clust_5="13000.00000" pt_clust_6="13000.00000" pt_clust_7="13000.00000" pt_clust_8="13000.00000" pt_clust_9="24.42210"></scales>
<clustering>
<clus scale="   24.422">  2  9  1 -1</clus>
<clus scale="   78.195">  7  8 -1 -1</clus>
<clus scale="   80.168">  5  6 -1 -1</clus>
<clus scale="   85.991">  2  7  1 -1</clus>
<clus scale="   24.422">  2  5  1 -1</clus>
</clustering>
</event>
<event>
 9    2  0.3745229E-005  0.9693130E+02  0.7546771E-02  0.1292673E+00
         -1   -1    0    0    0  501 -0.00000000000E+00  0.00000000000E+00  0.80917225285E+02  0.80917225285E+02  0.00000000000E+00 0.  1.
         21   -1    0    0  501  502  0.00000000000E+00 -0.00000000000E+00 -0.15751004281E+03  0.15751004281E+03  0.00000000000E+00 0. -1.
         23    2    1    2    0    0 -0.37183321719E+02  0.16607774580E+01  0.67950435157E+01  0.99334815742E+02  0.91847021761E+02 0.  0.
         24    2    1    2    0    0  0.16585487304E+02 -0.12442672211E+02 -0.79425651208E+02  0.11550815368E+03  0.81263774316E+02 0.  0.
        -11    1    4    4    0    0  0.12958513373E+02  0.23468057936E+02  0.15498379552E+01  0.26852836160E+02  0.00000000000E+00 0.  1.
         12    1    4    4    0    0  0.36269739312E+01 -0.35910730147E+02 -0.80975489163E+02  0.88655317521E+02  0.00000000000E+00 0. -1.
        -13    1    3    3    0    0  0.81884758289E+01 -0.35352070691E+02 -0.11370784320E+02  0.38027815801E+02  0.00000000000E+00 0.  1.
         13    1    3    3    0    0 -0.45371797548E+02  0.37012848149E+02  0.18165827835E+02  0.61306999941E+02  0.00000000000E+00 0. -1.
         -2    1    1    2    0  502  0.20597834415E+02  0.10781894753E+02 -0.39622098322E+01  0.23584298671E+02  0.00000000000E+00 0.  1.
<scales pt_clust_5="13000.00000" pt_clust_6="13000.00000" pt_clust_7="13000.00000" pt_clust_8="13000.00000" pt_clust_9="23.24910"></scales>
<clustering>
<clus scale="   23.249">  2  9  1 -1</clus>
<clus scale="   81.264">  5  6 -1 -1</clus>
<clus scale="   86.969">  2  5  1 -1</clus>
<clus scale="   91.847">  7  8 -1 -1</clus>
<clus scale="   23.249">  2  5  1 -1</clus>
</clustering>
</event>
<event>
 9    2  0.3745229E-005  0.1236671E+03  0.7546771E-02  0.1239508E+00
         21   -1    0    0  501  502  0.00000000000E+00  0.00000000000E+00  0.54782245112E+03  0.54782245112E+03  0.00000000000E+00 0.  1.
         -3   -1    0    0    0  501 -0.00000000000E+00 -0.00000000000E+00 -0.89709877347E+02  0.89709877347E+02  0.00000000000E+00 0.  1.
         24    2    1    2    0    0  0.52557157583E+02  0.73442457815E+02 -0.28003411625E+02  0.12488942813E+03  0.81591229760E+02 0.  0.
         23    2    1    2    0    0 -0.41727585269E+02 -0.43440385486E+02  0.22517491599E+03  0.24975956940E+03  0.89709761178E+02 0.  0.
        -11    1    3    3    0    0  0.30823625356E+02  0.55975999506E+02 -0.56299081788E+02  0.85164517324E+02  0.00000000000E+00 0.  1.
         12    1    3    3    0    0  0.21733532227E+02  0.17466458309E+02  0.28295670163E+02  0.39724910810E+02  0.00000000000E+00 0. -1.
        -11    1    4    4    0    0 -0.18135144666E+02  0.17096038887E+02  0.14223294651E+03  0.14440003148E+03  0.00000000000E+00 0.  1.
         11    1    4    4    0    0 -0.23592440603E+02 -0.60536424373E+02  0.82941969480E+02  0.10535953792E+03  0.00000000000E+00 0. -1.
         -4    1    1    2    0  502 -0.10829572314E+02 -0.30002072329E+02  0.26094106940E+03  0.26288333093E+03  0.00000000000E+00 0.  1.
<scales pt_clust_5="13000.00000" pt_clust_6="13000.00000" pt_clust_7="13000.00000" pt_clust_8="13000.00000" pt_clust_9="31.89677"></scales>
<clustering>
<clus scale="   31.897">  1  9  2 -1</clus>
<clus scale="   81.591">  5  6 -1 -1</clus>
<clus scale="   89.710">  7  8 -1 -1</clus>
<clus scale="  117.910">  2  5  1 -1</clus>
<clus scale="   31.897">  1  5  2 -1</clus>
</clustering>
</event>
<event>
 9    2  0.3745229E-005  0.1485571E+03  0.7546771E-02  0.1209188E+00
         21   -1    0    0  501  502  0.00000000000E+00  0.00000000000E+00  0.79890948523E+02  0.79890948523E+02  0.00000000000E+00 0.  1.
          2   -1    0    0  502    0 -0.00000000000E+00 -0.00000000000E+00 -0.70548070345E+03  0.70548070345E+03  0.00000000000E+00 0. -1.
         24    2    1    2    0    0 -0.17056241094E+02 -0.95446731061E+02 -0.48322097905E+02  0.13680046624E+03  0.83536510497E+02 0.  0.
         23    2    1    2    0    0 -0.10594219362E+03 -0.53457893396E+01 -0.24128120638E+03  0.27685268724E+03  0.84725816754E+02 0.  0.
        -11    1    3    3    0    0 -0.27079826182E+02 -0.10699156819E+03 -0.50476103663E+02  0.12136041237E+03  0.00000000000E+00 0.  1.
         12    1    3    3    0    0  0.10023585089E+02  0.11544837133E+02  0.21540057578E+01  0.15440053862E+02  0.00000000000E+00 0. -1.
        -13    1    4    4    0    0 -0.75713248587E+02  0.25531688788E+02 -0.20637855865E+03  0.22130628688E+03  0.00000000000E+00 0.  1.
         13    1    4    4    0    0 -0.30228945038E+02 -0.30877478127E+02 -0.34902647729E+02  0.55546400352E+02  0.00000000000E+00 0. -1.
          1    1    1    2  501    0  0.12299843472E+03  0.10079252040E+03 -0.33598645064E+03  0.37171849850E+03  0.00000000000E+00 0. -1.
<scales pt_clust_5="13000.00000" pt_clust_6="13000.00000" pt_clust_7="13000.00000" pt_clust_8="13000.00000" pt_clust_9="122.02766"></scales>
<clustering>
<clus scale="   83.537">  5  6 -1 -1</clus>
<clus scale="   84.726">  7  8 -1 -1</clus>
<clus scale="  127.982">  2  5  1 -1</clus>
<clus scale="  122.028">  1  9  2 -1</clus>
<clus scale="  122.028">  1  5  2 -1</clus>
</clustering>
</event>
<event>
 9    2  0.3745229E-005  0.1177263E+03  0.7546771E-02  0.1250144E+00
         21   -1    0    0  501  502  0.00000000000E+00  0.00000000000E+00  0.48961510164E+03  0.48961510164E+03  0.00000000000E+00 0.  1.
         -1   -1    0    0    0  501 -0.00000000000E+00 -0.00000000000E+00 -0.94535559173E+02  0.94535559173E+02  0.00000000000E+00 0.  1.
         23    2    1    2    0    0 -0.66820756672E+02  0.28737186413E+02 -0.19546781973E+02  0.11831255124E+03  0.91241129384E+02 0.  0.
         24    2    1    2    0    0  0.90037422484E+02 -0.14522611525E+02  0.42056093983E+03  0.43797617549E+03  0.81449263322E+02 0.  0.
        -11    1    4    4    0    0  0.43029669291E+02  0.33483590703E+02  0.20952471297E+03  0.21650244487E+03  0.00000000000E+00 0.  1.
         12    1    4    4    0    0  0.47007753193E+02 -0.48006202228E+02  0.21103622685E+03  0.22147373063E+03  0.00000000000E+00 0. -1.
        -13    1    3    3    0    0 -0.16227616523E+02  0.56573311338E+02 -0.12146499767E+02  0.60095029331E+02  0.00000000000E+00 0.  1.
         13    1    3    3    0    0 -0.50593140149E+02 -0.27836124925E+02 -0.74002822069E+01  0.58217521913E+02  0.00000000000E+00 0. -1.
         -2    1    1    2    0  502 -0.23216665812E+02 -0.14214574888E+02 -0.59346153883E+01  0.27861934076E+02  0.00000000000E+00 0.  1.
<scales pt_clust_5="13000.00000" pt_clust_6="13000.00000" pt_clust_7="13000.00000" pt_clust_8="13000.00000" pt_clust_9="27.22257"></scales>
<clustering>
<clus scale="   27.223">  1  9  2 -1</clus>
<clus scale="   81.449">  5  6 -1 -1</clus>
<clus scale="   91.241">  7  8 -1 -1</clus>
<clus scale="  110.311">  1  5  2 -1</clus>
<clus scale="   27.223">  1  5  2 -1</clus>
</clustering>
</event>
<event>
 9    2  0.3745229E-005  0.1252979E+03  0.7546771E-02  0.1236582E+00
         21   -1    0    0  501  502  0.00000000000E+00  0.00000000000E+00  0.14875297541E+03  0.14875297541E+03  0.00000000000E+00 0. -1.
         -1   -1    0    0    0  501 -0.00000000000E+00 -0.00000000000E+00 -0.23748835050E+03  0.23748835050E+03  0.00000000000E+00 0.  1.
         24    2    1    2    0    0 -0.93090321767E+02 -0.29811926439E+02 -0.14380093195E+03  0.19092109695E+03  0.78851748647E+02 0.  0.
         23    2    1    2    0    0  0.79456843577E+02 -0.31885227978E+02  0.20314521054E+02  0.12320889087E+03  0.86242062069E+02 0.  0.
        -13    1    3    3    0    0 -0.56402829944E+02 -0.44281931238E+02 -0.13120182065E+03  0.14951951847E+03  0.00000000000E+00 0.  1.
         14    1    3    3    0    0 -0.36687491823E+02  0.14470004799E+02 -0.12599111299E+02  0.41401578481E+02  0.00000000000E+00 0. -1.
        -13    1    4    4    0    0  0.81387269600E+02 -0.52122227415E+02  0.33063235898E+01  0.96703391974E+02  0.00000000000E+00 0. -1.
         13    1    4    4    0    0 -0.19304260230E+01  0.20236999437E+02  0.17008197464E+02  0.26505498898E+02  0.00000000000E+00 0.  1.
         -2    1    1    2    0  502  0.13633478190E+02  0.61697154417E+02  0.34751035806E+02  0.72111338085E+02  0.00000000000E+00 0.  1.
<scales pt_clust_5="13000.00000" pt_clust_6="13000.00000" pt_clust_7="13000.00000" pt_clust_8="13000.00000" pt_clust_9="63.18553"></scales>
<clustering>
<clus scale="   63.186">  1  9  2 -1</clus>
<clus scale="   78.852">  5  6 -1 -1</clus>
<clus scale="   86.242">  7  8 -1 -1</clus>
<clus scale="  120.331">  2  5  1 -1</clus>
<clus scale="   63.186">  1  5  2 -1</clus>
</clustering>
</event>
<event>
 9    2  0.3745229E-005  0.1691349E+03  0.7546771E-02  0.1202805E+00
         21   -1    0    0  501  502  0.00000000000E+00  0.00000000000E+00  0.10061550701E+04  0.10061550701E+04  0.00000000000E+00 0. -1.
          2   -1    0    0  502    0 -0.00000000000E+00 -0.00000000000E+00 -0.16221164764E+03  0.16221164764E+03  0.00000000000E+00 0. -1.
         24    2    1    2    0    0  0.16344369414E+02 -0.55218703029E+02  0.33985742944E+03  0.35411729527E+03  0.81115614345E+02 0.  0.
         23    2    1    2    0    0  0.24108699625E+02  0.18837739095E+03 -0.70849461843E+02  0.22271035849E+03  0.92265848038E+02 0.  0.
        -13    1    3    3    0    0  0.43266465811E+02 -0.54925915397E+02  0.27793288231E+03  0.28659296975E+03  0.00000000000E+00 0.  1.
         14    1    3    3    0    0 -0.26922096397E+02 -0.29278763185E+00  0.61924547132E+02  0.67524325517E+02  0.00000000000E+00 0. -1.
        -11    1    4    4    0    0  0.34593937262E+01  0.60642648600E+02 -0.70842247730E+02  0.93317320459E+02  0.00000000000E+00 0. -1.
         11    1    4    4    0    0  0.20649305899E+02  0.12773474235E+03 -0.72141127839E-02  0.12939303803E+03  0.00000000000E+00 0.  1.
          1    1    1    2  501    0 -0.40453069039E+02 -0.13315868793E+03  0.57493545491E+03  0.59153906403E+03  0.00000000000E+00 0. -1.
<scales pt_clust_5="13000.00000" pt_clust_6="13000.00000" pt_clust_7="13000.00000" pt_clust_8="13000.00000" pt_clust_9="141.75198"></scales>
<clustering>
<clus scale="   81.116">  5  6 -1 -1</clus>
<clus scale="   92.266">  7  8 -1 -1</clus>
<clus scale="   99.479">  2  5  1 -1</clus>
<clus scale="  141.752">  1  9  2 -1</clus>
<clus scale="  141.752">  1  5  2 -1</clus>
</clustering>
</event>
<event>
 9    2  0.3745229E-005  0.1003540E+03  0.7546771E-02  0.1284434E+00
         -3   -1    0    0    0  501 -0.00000000000E+00  0.00000000000E+00  0.54853513665E+02  0.54853513665E+02  0.00000000000E+00 0.  1.
         21   -1    0    0  501  502  0.00000000000E+00 -0.00000000000E+00 -0.43207599964E+03  0.43207599964E+03  0.00000000000E+00 0.  1.
         24    2    1    2    0    0  0.26418223395E+02 -0.43051707483E+02 -0.97832650985E+01  0.95410547152E+02  0.80349786479E+02 0.  0.
         23    2    1    2    0    0 -0.18789226153E+02  0.87494526141E+00 -0.24520903388E+03  0.26199175093E+03  0.90323898886E+02 0.  0.
        -11    1    3    3    0    0  0.40897370928E+02 -0.58836041482E+02  0.48856258522E+00  0.71655519114E+02  0.00000000000E+00 0.  1.
         12    1    3    3    0    0 -0.14479147533E+02  0.15784334000E+02 -0.10271827684E+02  0.23755028037E+02  0.00000000000E+00 0. -1.
        -13    1    4    4    0    0  0.28725240500E+02  0.94389550876E+01 -0.16966092526E+03  0.17233416050E+03  0.00000000000E+00 0.  1.
         13    1    4    4    0    0 -0.47514466653E+02 -0.85640098262E+01 -0.75548108617E+02  0.89657590427E+02  0.00000000000E+00 0. -1.
         -4    1    1    2    0  502 -0.76289972421E+01  0.42176762221E+02 -0.12223018700E+03  0.12952721523E+03  0.00000000000E+00 0.  1.
<scales pt_clust_5="13000.00000" pt_clust_6="13000.00000" pt_clust_7="13000.00000" pt_clust_8="13000.00000" pt_clust_9="42.86118"></scales>
<clustering>
<clus scale="   42.861">  2  9  1 -1</clus>
<clus scale="   80.350">  5  6 -1 -1</clus>
<clus scale="   90.324">  7  8 -1 -1</clus>
<clus scale="   91.480">  1  5  2 -1</clus>
<clus scale="   42.861">  2  5  1 -1</clus>
</clustering>
</event>
<event>
 9    2  0.3745229E-005  0.2772936E+03  0.7546771E-02  0.1124106E+00
          2   -1    0    0  502    0 -0.00000000000E+00  0.00000000000E+00  0.13746490825E+04  0.13746490825E+04  0.00000000000E+00 0. -1.
         21   -1    0    0  501  502  0.00000000000E+00 -0.00000000000E+00 -0.12127255772E+03  0.12127255772E+03  0.00000000000E+00 0. -1.
         23    2    1    2    0    0 -0.71241259788E+02  0.78215833101E+02  0.17733075247E+03  0.22577794728E+03  0.91304173291E+02 0.  0.
         24    2    1    2    0    0 -0.86210449097E+02 -0.28755447646E+03  0.90706195534E+03  0.95842388504E+03  0.75466112396E+02 0.  0.
        -13    1    4    4    0    0 -0.14827261712E+02 -0.11098943814E+03  0.24237440270E+03  0.26699036341E+03  0.00000000000E+00 0.  1.
         14    1    4    4    0    0 -0.71383187385E+02 -0.17656503832E+03  0.66468755264E+03  0.69143352163E+03  0.00000000000E+00 0. -1.
        -11    1    3    3    0    0 -0.41835962799E+02  0.87152568714E+02  0.16770282250E+03  0.19357183342E+03  0.00000000000E+00 0.  1.
         11    1    3    3    0    0 -0.29405296989E+02 -0.89367356135E+01  0.96279299676E+01  0.32206113859E+02  0.00000000000E+00 0. -1.
          1    1    1    2  501    0  0.15745170889E+03  0.20933864336E+03  0.16898381692E+03  0.31171980787E+03  0.00000000000E+00 0. -1.
<scales pt_clust_5="13000.00000" pt_clust_6="13000.00000" pt_clust_7="13000.00000" pt_clust_8="13000.00000" pt_clust_9="266.82689"></scales>
<clustering>
<clus scale="   75.466">  5  6 -1 -1</clus>
<clus scale="   91.304">  7  8 -1 -1</clus>
<clus scale="  139.748">  1  7  2 -1</clus>
<clus scale="  266.827">  2  9  1 -1</clus>
<clus scale="  266.827">  2  5  1 -1</clus>
</clustering>
</event>
<event>
 9    2  0.3745229E-005  0.9777084E+02  0.7546771E-02  0.1289594E+00
         21   -1    0    0  501  502  0.00000000000E+00  0.00000000000E+00  0.29326234536E+03  0.29326234536E+03  0.00000000000E+00 0.  1.
          2   -1    0    0  502    0 -0.00000000000E+00 -0.00000000000E+00 -0.17462992367E+03  0.17462992367E+03  0.00000000000E+00 0. -1.
         23    2    1    2    0    0 -0.27510301024E+02  0.22280254628E+02 -0.13104072148E+03  0.16262244596E+03  0.89560944805E+02 0.  0.
         24    2    1    2    0    0  0.76303797065E+02 -0.16818883144E+02  0.11010582700E+03  0.15731825134E+03  0.80750199921E+02 0.  0.
        -11    1    4    4    0    0  0.63874517664E+02 -0.13035258101E+02  0.12287739341E+03  0.13909969724E+03  0.00000000000E+00 0.  1.
         12    1    4    4    0    0  0.12429279400E+02 -0.37836250428E+01 -0.12771566409E+02  0.18218554098E+02  0.00000000000E+00 0. -1.
        -11    1    3    3    0    0 -0.52015288580E+02  0.26975055092E+02 -0.12327426434E+03  0.13649098172E+03  0.00000000000E+00 0. -1.
         11    1    3    3    0    0  0.24504987557E+02 -0.46948004642E+01 -0.77664571429E+01  0.26131464236E+02  0.00000000000E+00 0.  1.
          1    1    1    2  501    0 -0.48793496041E+02 -0.54613714841E+01  0.13956731618E+03  0.14795157174E+03  0.00000000000E+00 0. -1.
<scales pt_clust_5="13000.00000" pt_clust_6="13000.00000" pt_clust_7="13000.00000" pt_clust_8="13000.00000" pt_clust_9="49.09819"></scales>
<clustering>
<clus scale="   49.098">  1  9  2 -1</clus>
<clus scale="   80.750">  5  6 -1 -1</clus>
<clus scale="   89.561">  7  8 -1 -1</clus>
<clus scale="   89.770">  1  5  2 -1</clus>
<clus scale="   49.098">  1  5  2 -1</clus>
</clustering>
</event>
<event>
 9    2  0.3745229E-005  0.1004314E+03  0.7546771E-02  0.1282849E+00
          2   -1    0    0  502    0 -0.00000000000E+00  0.00000000000E+00  0.53081642795E+03  0.53081642795E+03  0.00000000000E+00 0. -1.
         21   -1    0    0  501  502  0.00000000000E+00 -0.00000000000E+00 -0.40839423368E+02  0.40839423368E+02  0.00000000000E+00 0.  1.
         23    2    1    2    0    0  0.40156137906E+02 -0.21713896380E+02  0.34232009025E+03  0.35723994531E+03  0.91396529633E+02 0.  0.
         24    2    1    2    0    0 -0.37053097320E+02 -0.20569605075E+02  0.47510649374E+02  0.10566482444E+03  0.84331208023E+02 0.  0.
        -13    1    4    4    0    0 -0.41453503296E+02 -0.20903087349E+01 -0.11991761542E+02  0.43203757603E+02  0.00000000000E+00 0.  1.
         14    1    4    4    0    0  0.44004059754E+01 -0.18479296340E+02  0.59502410916E+02  0.62461066840E+02  0.00000000000E+00 0. -1.
        -11    1    3    3    0    0  0.11349693194E+02 -0.52619587047E+02  0.12907523458E+03  0.13985010783E+03  0.00000000000E+00 0.  1.
         11    1    3    3    0    0  0.28806444713E+02  0.30905690667E+02  0.21324485567E+03  0.21738983748E+03  0.00000000000E+00 0. -1.
          1    1    1    2  501    0 -0.31030405860E+01  0.42283501455E+02  0.10014626496E+03  0.10875108156E+03  0.00000000000E+00 0. -1.
<scales pt_clust_5="13000.00000" pt_clust_6="13000.00000" pt_clust_7="13000.00000" pt_clust_8="13000.00000" pt_clust_9="42.39723"></scales>
<clustering>
<clus scale="   42.397">  2  9  1 -1</clus>
<clus scale="   84.331">  5  6 -1 -1</clus>
<clus scale="   91.397">  7  8 -1 -1</clus>
<clus scale="   94.047">  2  5  1 -1</clus>
<clus scale="   42.397">  2  5  1 -1</clus>
</clustering>
</event>
<event>
 9    2  0.3745229E-005  0.1216181E+03  0.7546771E-02  0.1250356E+00
         21   -1    0    0  501  502  0.00000000000E+00  0.00000000000E+00  0.65997704905E+03  0.65997704905E+03  0.00000000000E+00 0.  1.
         -3   -1    0    0    0  501 -0.00000000000E+00 -0.00000000000E+00 -0.99456194349E+02  0.99456194349E+02  0.00000000000E+00 0.  1.
         23    2    1    2    0    0 -0.37911539680E+02  0.13285541939E+02 -0.49308313365E+02  0.11116859060E+03  0.91177603081E+02 0.  0.
         24    2    1    2    0    0 -0.30391809415E+02  0.71088879089E+02  0.32059015725E+03  0.33932518333E+03  0.79913955626E+02 0.  0.
        -13    1    4    4    0    0 -0.51041813566E+02  0.37557948144E+02  0.25557101293E+03  0.26331047995E+03  0.00000000000E+00 0.  1.
         14    1    4    4    0    0  0.20650004151E+02  0.33530930945E+02  0.65019144327E+02  0.76014703384E+02  0.00000000000E+00 0. -1.
        -11    1    3    3    0    0  0.21322235643E+02  0.26361243245E+02 -0.35233352897E+02  0.48897259991E+02  0.00000000000E+00 0.  1.
         11    1    3    3    0    0 -0.59233775323E+02 -0.13075701306E+02 -0.14074960468E+02  0.62271330609E+02  0.00000000000E+00 0. -1.
         -4    1    1    2    0  502  0.68303349095E+02 -0.84374421028E+02  0.28923901081E+03  0.30893946947E+03  0.00000000000E+00 0.  1.
<scales pt_clust_5="13000.00000" pt_clust_6="13000.00000" pt_clust_7="13000.00000" pt_clust_8="13000.00000" pt_clust_9="91.67728"></scales>
<clustering>
<clus scale="   79.914">  5  6 -1 -1</clus>
<clus scale="   91.178">  7  8 -1 -1</clus>
<clus scale="   99.635">  2  7  1 -1</clus>
<clus scale="   91.677">  1  9  2 -1</clus>
<clus scale="   91.677">  1  5  2 -1</clus>
</clustering>
</event>
<event>
 9    2  0.3745229E-005  0.1519704E+03  0.7546771E-02  0.1199443E+00
         -3   -1    0    0    0  501 -0.00000000000E+00  0.00000000000E+00  0.69942733864E+03  0.69942733864E+03  0.00000000000E+00 0.  1.
         21   -1    0    0  501  502  0.00000000000E+00 -0.00000000000E+00 -0.50674006245E+02  0.50674006245E+02  0.00000000000E+00 0.  1.
         23    2    1    2    0    0  0.11260218979E+03  0.88814890154E+02  0.30779791107E+03  0.35174242505E+03  0.91737896536E+02 0.  0.
         24    2    1    2    0    0 -0.80860849454E+02 -0.50588952733E+02  0.13092592685E+03  0.18253231460E+03  0.84135179556E+02 0.  0.
        -11    1    4    4    0    0 -0.52538772875E+02 -0.65045008247E+02  0.54637213932E+02  0.99881934800E+02  0.00000000000E+00 0.  1.
         12    1    4    4    0    0 -0.28322076579E+02  0.14456055514E+02  0.76288712914E+02  0.82650379798E+02  0.00000000000E+00 0. -1.
        -11    1    3    3    0    0  0.56970482435E+02  0.25000654548E+02  0.22455285160E+03  0.23301212792E+03  0.00000000000E+00 0.  1.
         11    1    3    3    0    0  0.55631707355E+02  0.63814235606E+02  0.83245059463E+02  0.11873029712E+03  0.00000000000E+00 0. -1.
         -4    1    1    2    0  502 -0.31741340336E+02 -0.38225937421E+02  0.21002949448E+03  0.21582660524E+03  0.00000000000E+00 0.  1.
<scales pt_clust_5="13000.00000" pt_clust_6="13000.00000" pt_clust_7="13000.00000" pt_clust_8="13000.00000" pt_clust_9="49.68639"></scales>
<clustering>
<clus scale="   49.686">  2  9  1 -1</clus>
<clus scale="   84.135">  5  6 -1 -1</clus>
<clus scale="   91.738">  7  8 -1 -1</clus>
<clus scale="  147.506">  2  5  1 -1</clus>
<clus scale="   49.686">  2  5  1 -1</clus>
</clustering>
</event>
<event>
 9    2  0.3745229E-005  0.9476913E+02  0.7546771E-02  0.1297691E+00
          2   -1    0    0  502    0 -0.00000000000E+00  0.00000000000E+00  0.10307685878E+03  0.10307685878E+03  0.00000000000E+00 0. -1.
         21   -1    0    0  501  502  0.00000000000E+00 -0.00000000000E+00 -0.35817128863E+03  0.35817128863E+03  0.00000000000E+00 0. -1.
         23    2    1    2    0    0  0.22483693470E+02  0.27147706685E+02  0.39100884361E+02  0.10388942875E+03  0.89563495897E+02 0.  0.
         24    2    1    2    0    0 -0.43924985158E+02  0.26281520201E+02 -0.50110263558E+02  0.10657609719E+03  0.78913264754E+02 0.  0.
        -13    1    4    4    0    0 -0.60267318888E+02 -0.16685843905E+01 -0.41106267485E+02  0.72970261932E+02  0.00000000000E+00 0.  1.
         14    1    4    4    0    0  0.16342333730E+02  0.27950104591E+02 -0.90039960726E+01  0.33605835262E+02  0.00000000000E+00 0. -1.
        -11    1    3    3    0    0  0.31987295700E+02  0.12211879289E+01  0.60838873474E+02  0.68746250165E+02  0.00000000000E+00 0.  1.
         11    1    3    3    0    0 -0.95036022301E+01  0.25926518756E+02 -0.21737989113E+02  0.35143178582E+02  0.00000000000E+00 0. -1.
          1    1    1    2  501    0  0.21441291688E+02 -0.53429226885E+02 -0.24408505066E+03  0.25078262146E+03  0.00000000000E+00 0. -1.
<scales pt_clust_5="13000.00000" pt_clust_6="13000.00000" pt_clust_7="13000.00000" pt_clust_8="13000.00000" pt_clust_9="57.57092"></scales>
<clustering>
<clus scale="   57.571">  2  9  1 -1</clus>
<clus scale="   78.913">  5  6 -1 -1</clus>
<clus scale="   84.775">  2  5  1 -1</clus>
<clus scale="   89.563">  7  8 -1 -1</clus>
<clus scale="   57.571">  2  5  1 -1</clus>
</clustering>
</event>
<event>
 9    2  0.3745229E-005  0.1532790E+03  0.7546771E-02  0.1198933E+00
          2   -1    0    0  502    0 -0.00000000000E+00  0.00000000000E+00  0.50220212902E+03  0.50220212902E+03  0.00000000000E+00 0. -1.
         21   -1    0    0  501  502  0.00000000000E+00 -0.00000000000E+00 -0.91700177089E+02  0.91700177089E+02  0.00000000000E+00 0. -1.
         23    2    1    2    0    0 -0.12757509898E+03 -0.13433883970E+02  0.33350495210E+03  0.36944452824E+03  0.93850046604E+02 0.  0.
         24    2    1    2    0    0  0.10745032538E+03  0.19198610043E+02  0.11718932855E+03  0.17914043166E+03  0.80273261291E+02 0.  0.
        -11    1    4    4    0    0  0.96515083321E+02  0.36167508902E+02  0.61776157760E+02  0.12016465236E+03  0.00000000000E+00 0.  1.
         12    1    4    4    0    0  0.10935242057E+02 -0.16968898860E+02  0.55413170793E+02  0.58975779306E+02  0.00000000000E+00 0. -1.
        -11    1    3    3    0    0 -0.69983737377E+02  0.37762279400E+02  0.20105374028E+03  0.21620897235E+03  0.00000000000E+00 0.  1.
         11    1    3    3    0    0 -0.57591361600E+02 -0.51196163370E+02  0.13245121182E+03  0.15323555589E+03  0.00000000000E+00 0. -1.
          1    1    1    2  501    0  0.20124773599E+02 -0.57647260727E+01 -0.40192328726E+02  0.45317346210E+02  0.00000000000E+00 0. -1.
<scales pt_clust_5="13000.00000" pt_clust_6="13000.00000" pt_clust_7="13000.00000" pt_clust_8="13000.00000" pt_clust_9="20.93415"></scales>
<clustering>
<clus scale="   20.934">  2  9  1 -1</clus>
<clus scale="   80.273">  5  6 -1 -1</clus>
<clus scale="   93.850">  7  8 -1 -1</clus>
<clus scale="  145.363">  2  5  1 -1</clus>
<clus scale="   20.934">  2  5  1 -1</clus>
</clustering>
</event>
<event>
 9    2  0.3745229E-005  0.1261217E+03  0.7546771E-02  0.1237092E+00
         21   -1    0    0  501  502  0.00000000000E+00  0.00000000000E+00  0.29681116242E+03  0.29681116242E+03  0.00000000000E+00 0. -1.
         -3   -1    0    0    0  501 -0.00000000000E+00 -0.00000000000E+00 -0.11688486375E+03  0.11688486375E+03  0.00000000000E+00 0.  1.
         24    2    1    2    0    0  0.10419099872E+01  0.88232305562E+02 -0.57495063614E+02  0.13133503448E+03  0.78467723435E+02 0.  0.
         23    2    1    2    0    0  0.13940934391E+02 -0.74634503299E+02  0.23293685807E+03  0.26163669122E+03  0.91812415343E+02 0.  0.
        -11    1    3    3    0    0  0.66382207070E+01  0.89297930039E+02 -0.17879432567E+02  0.91311885274E+02  0.00000000000E+00 0.  1.
         12    1    3    3    0    0 -0.55963107197E+01 -0.10656244767E+01 -0.39615631048E+02  0.40023149208E+02  0.00000000000E+00 0. -1.
        -13    1    4    4    0    0  0.29560677156E+02 -0.51833095119E+02  0.22514930923E+03  0.23292212182E+03  0.00000000000E+00 0. -1.
         13    1    4    4    0    0 -0.15619742765E+02 -0.22801408180E+02  0.77875488337E+01  0.28714569401E+02  0.00000000000E+00 0.  1.
         -4    1    1    2    0  502 -0.14982844378E+02 -0.13597802263E+02  0.44845042100E+01  0.20724300472E+02  0.00000000000E+00 0.  1.
<scales pt_clust_5="13000.00000" pt_clust_6="13000.00000" pt_clust_7="13000.00000" pt_clust_8="13000.00000" pt_clust_9="20.23330"></scales>
<clustering>
<clus scale="   20.233">  1  9  2 -1</clus>
<clus scale="   78.468">  5  6 -1 -1</clus>
<clus scale="   91.812">  7  8 -1 -1</clus>
<clus scale="  116.766">  2  5  1 -1</clus>
<clus scale="   20.233">  1  5  2 -1</clus>
</clustering>
</event>
<event>
 9    2  0.3745229E-005  0.1351730E+03  0.7546771E-02  0.1222247E+00
         -1   -1    0    0    0  501 -0.00000000000E+00  0.00000000000E+00  0.15147965419E+03  0.15147965419E+03  0.00000000000E+00 0.  1.
         21   -1    0    0  501  502  0.00000000000E+00 -0.00000000000E+00 -0.14116647898E+03  0.14116647898E+03  0.00000000000E+00 0. -1.
         24    2    1    2    0    0 -0.95412207965E+02  0.38277783427E+02  0.13935106265E+02  0.13177326314E+03  0.81248554199E+02 0.  0.
         23    2    1    2    0    0  0.81380722199E+02 -0.53945204267E+02 -0.19107077125E+02  0.13475505202E+03  0.90889694898E+02 0.  0.
        -13    1    3    3    0    0 -0.21093045071E+02 -0.22346572785E+02  0.18297893456E+02  0.35764490358E+02  0.00000000000E+00 0.  1.
         14    1    3    3    0    0 -0.74319162894E+02  0.60624356212E+02 -0.43627871915E+01  0.96008772784E+02  0.00000000000E+00 0. -1.
        -13    1    4    4    0    0  0.61487763432E+02 -0.28244752173E+02  0.31478917460E+02  0.74628636070E+02  0.00000000000E+00 0.  1.
         13    1    4    4    0    0  0.19892958767E+02 -0.25700452094E+02 -0.50585994586E+02  0.60126415946E+02  0.00000000000E+00 0. -1.
         -2    1    1    2    0  502  0.14031485766E+02  0.15667420841E+02  0.15485146069E+02  0.26117818006E+02  0.00000000000E+00 0.  1.
<scales pt_clust_5="13000.00000" pt_clust_6="13000.00000" pt_clust_7="13000.00000" pt_clust_8="13000.00000" pt_clust_9="21.03214"></scales>
<clustering>
<clus scale="   21.032">  2  9  1 -1</clus>
<clus scale="   81.249">  5  6 -1 -1</clus>
<clus scale="   90.890">  7  8 -1 -1</clus>
<clus scale="  128.888">  1  5  2 -1</clus>
<clus scale="   21.032">  2  5  1 -1</clus>
</clustering>
</event>
<event>
 9    2  0.3745229E-005  0.1666352E+03  0.7546771E-02  0.1182233E+00
         21   -1    0    0  501  502  0.00000000000E+00  0.00000000000E+00  0.75263128993E+02  0.75263128993E+02  0.00000000000E+00 0.  1.
          2   -1    0    0  502    0 -0.00000000000E+00 -0.00000000000E+00 -0.64969308381E+03  0.64969308381E+03  0.00000000000E+00 0. -1.
         23    2    1    2    0    0  0.13733404947E+03  0.56307017343E+02 -0.43342570480E+03  0.46649426370E+03  0.87908674961E+02 0.  0.
         24    2    1    2    0    0 -0.13127785352E+03 -0.11518198023E+02 -0.14590776710E+03  0.21300031336E+03  0.81936031640E+02 0.  0.
        -11    1    4    4    0    0 -0.82358715303E+02  0.11293303486E+02 -0.36071984965E+02  0.90618346870E+02  0.00000000000E+00 0.  1.
         12    1    4    4    0    0 -0.48919138217E+02 -0.22811501509E+02 -0.10983578213E+03  0.12238196649E+03  0.00000000000E+00 0. -1.
        -13    1    3    3    0    0  0.26882415932E+02  0.34367018591E+02 -0.22885756580E+03  0.23297970229E+03  0.00000000000E+00 0.  1.
         13    1    3    3    0    0  0.11045163354E+03  0.21939998752E+02 -0.20456813900E+03  0.23351456141E+03  0.00000000000E+00 0. -1.
          1    1    1    2  501    0 -0.60561959471E+01 -0.44788819320E+02  0.49035170791E+01  0.45461635752E+02  0.00000000000E+00 0. -1.
<scales pt_clust_5="13000.00000" pt_clust_6="13000.00000" pt_clust_7="13000.00000" pt_clust_8="13000.00000" pt_clust_9="45.19641"></scales>
<clustering>
<clus scale="   45.196">  1  9  2 -1</clus>
<clus scale="   81.936">  5  6 -1 -1</clus>
<clus scale="   87.909">  7  8 -1 -1</clus>
<clus scale="  163.563">  1  5  2 -1</clus>
<clus scale="   45.196">  1  5  2 -1</clus>
</clustering>
</event>
<event>
 9    2  0.3745229E-005  0.2353247E+03  0.7546771E-02  0.1124041E+00
          2   -1    0    0  502    0 -0.00000000000E+00  0.00000000000E+00  0.17756194595E+04  0.17756194595E+04  0.00000000000E+00 0. -1.
         21   -1    0    0  501  502  0.00000000000E+00 -0.00000000000E+00 -0.74142526834E+02  0.74142526834E+02  0.00000000000E+00 0. -1.
         24    2    1    2    0    0  0.19924699630E+03 -0.39008010535E+02  0.41709555505E+03  0.46997282608E+03  0.75397379169E+02 0.  0.
         23    2    1    2    0    0 -0.22289728926E+03 -0.16336328511E+03  0.62499923558E+03  0.68964548906E+03  0.92822904639E+02 0.  0.
        -13    1    3    3    0    0  0.18800494883E+03 -0.24169464549E+02  0.32693793776E+03  0.37791326908E+03  0.00000000000E+00 0.  1.
         14    1    3    3    0    0  0.11242047470E+02 -0.14838545986E+02  0.90157617291E+02  0.92059556994E+02  0.00000000000E+00 0. -1.
        -13    1    4    4    0    0 -0.10408811745E+03 -0.67778917365E+02  0.39179329011E+03  0.41101131372E+03  0.00000000000E+00 0.  1.
         13    1    4    4    0    0 -0.11880917181E+03 -0.95584367748E+02  0.23320594547E+03  0.27863417534E+03  0.00000000000E+00 0. -1.
          1    1    1    2  501    0  0.23650292956E+02  0.20237129565E+03  0.65938214205E+03  0.69014367121E+03  0.00000000000E+00 0. -1.
<scales pt_clust_5="13000.00000" pt_clust_6="13000.00000" pt_clust_7="13000.00000" pt_clust_8="13000.00000" pt_clust_9="203.74867"></scales>
<clustering>
<clus scale="   75.397">  5  6 -1 -1</clus>
<clus scale="   92.823">  7  8 -1 -1</clus>
<clus scale="  203.749">  2  9  1 -1</clus>
<clus scale="  229.012">  1  5  2 -1</clus>
<clus scale="  203.749">  2  5  1 -1</clus>
</clustering>
</event>
<event>
 9    2  0.3745229E-005  0.1356513E+03  0.7546771E-02  0.1243428E+00
         21   -1    0    0  501  502  0.00000000000E+00  0.00000000000E+00  0.33666707558E+03  0.33666707558E+03  0.00000000000E+00 0.  1.
         -3   -1    0    0    0  501 -0.00000000000E+00 -0.00000000000E+00 -0.15752947164E+03  0.15752947164E+03  0.00000000000E+00 0.  1.
         24    2    1    2    0    0 -0.83663859945E+01 -0.14616480854E+02 -0.93933557569E+02  0.12503127607E+03  0.80781611958E+02 0.  0.
         23    2    1    2    0    0  0.90561719944E+02  0.64638742852E+02  0.11535165134E+03  0.18441207496E+03  0.91226189922E+02 0.  0.
        -13    1    3    3    0    0  0.33539982148E+02  0.36129323622E+01 -0.57165632337E+02  0.66376902634E+02  0.00000000000E+00 0.  1.
         14    1    3    3    0    0 -0.41906368143E+02 -0.18229413216E+02 -0.36767925232E+02  0.58654373435E+02  0.00000000000E+00 0. -1.
        -11    1    4    4    0    0  0.78148078512E+02  0.12144063268E+02  0.32403871045E+02  0.85467018823E+02  0.00000000000E+00 0.  1.
         11    1    4    4    0    0  0.12413641432E+02  0.52494679584E+02  0.82947780296E+02  0.98945056138E+02  0.00000000000E+00 0. -1.
         -4    1    1    2    0  502 -0.82195333950E+02 -0.50022261997E+02  0.15771951017E+03  0.18475319620E+03  0.00000000000E+00 0.  1.
<scales pt_clust_5="13000.00000" pt_clust_6="13000.00000" pt_clust_7="13000.00000" pt_clust_8="13000.00000" pt_clust_9="100.39448"></scales>
<clustering>
<clus scale="   80.782">  5  6 -1 -1</clus>
<clus scale="   82.519">  2  5  1 -1</clus>
<clus scale="   91.226">  7  8 -1 -1</clus>
<clus scale="  100.394">  1  9  2 -1</clus>
<clus scale="  100.394">  1  5  2 -1</clus>
</clustering>
</event>
<event>
 9    2  0.3745229E-005  0.1231962E+03  0.7546771E-02  0.1241721E+00
          2   -1    0    0  502    0 -0.00000000000E+00  0.00000000000E+00  0.13341156939E+04  0.13341156939E+04  0.00000000000E+00 0. -1.
         21   -1    0    0  501  502  0.00000000000E+00 -0.00000000000E+00 -0.28922708776E+02  0.28922708776E+02  0.00000000000E+00 0. -1.
         24    2    1    2    0    0  0.83645860477E+02  0.13840655173E+01  0.77257444771E+03  0.78114927407E+03  0.79525879577E+02 0.  0.
         23    2    1    2    0    0 -0.76401353506E+02 -0.28463222762E+02  0.53922406970E+03  0.55308988047E+03  0.92187291236E+02 0.  0.
        -11    1    3    3    0    0  0.85362615415E+02  0.84845205367E+01  0.42876094341E+03  0.43725817293E+03  0.00000000000E+00 0.  1.
         12    1    3    3    0    0 -0.17167549380E+01 -0.71004550194E+01  0.34381350430E+03  0.34389110115E+03  0.00000000000E+00 0. -1.
        -11    1    4    4    0    0 -0.75698035326E+02  0.16996862682E+02  0.33514208405E+03  0.34400479996E+03  0.00000000000E+00 0.  1.
         11    1    4    4    0    0 -0.70331818053E+00 -0.45460085444E+02  0.20408198565E+03  0.20908508051E+03  0.00000000000E+00 0. -1.
          1    1    1    2  501    0 -0.72445069711E+01  0.27079157245E+02 -0.66055322557E+01  0.28799248162E+02  0.00000000000E+00 0. -1.
<scales pt_clust_5="13000.00000" pt_clust_6="13000.00000" pt_clust_7="13000.00000" pt_clust_8="13000.00000" pt_clust_9="28.03148"></scales>
<clustering>
<clus scale="   28.031">  2  9  1 -1</clus>
<clus scale="   79.526">  5  6 -1 -1</clus>
<clus scale="   92.187">  7  8 -1 -1</clus>
<clus scale="  114.032">  1  5  2 -1</clus>
<clus scale="   28.031">  2  5  1 -1</clus>
</clustering>
</event>
<event>
 9    2  0.3745229E-005  0.3164149E+03  0.7546771E-02  0.1077750E+00
         21   -1    0    0  501  502  0.00000000000E+00  0.00000000000E+00  0.26889045983E+03  0.26889045983E+03  0.00000000000E+00 0. -1.
          2   -1    0    0  502    0 -0.00000000000E+00 -0.00000000000E+00 -0.64667540255E+03  0.64667540255E+03  0.00000000000E+00 0. -1.
         24    2    1    2    0    0 -0.25508417059E+03  0.16452822250E+03 -0.26423091348E+03  0.40957311001E+03  0.76122839655E+02 0.  0.
         23    2    1    2    0    0  0.16037696394E+03 -0.28523560575E+03 -0.71273018110E+02  0.34684687193E+03  0.90237398623E+02 0.  0.
        -13    1    3    3    0    0 -0.55459123511E+02  0.76896335410E+02 -0.85322425474E+02  0.12754872429E+03  0.00000000000E+00 0.  1.
         14    1    3    3    0    0 -0.19962504708E+03  0.87631887091E+02 -0.17890848801E+03  0.28202438571E+03  0.00000000000E+00 0. -1.
        -13    1    4    4    0    0  0.16959590234E+03 -0.24936536401E+03 -0.70965842926E+02  0.30980962819E+03  0.00000000000E+00 0. -1.
         13    1    4    4    0    0 -0.92189383964E+01 -0.35870241735E+02 -0.30717518355E+00  0.37037243740E+02  0.00000000000E+00 0.  1.
          1    1    1    2  501    0  0.94707206648E+02  0.12070738324E+03 -0.42281011136E+02  0.15914588045E+03  0.00000000000E+00 0. -1.
<scales pt_clust_5="13000.00000" pt_clust_6="13000.00000" pt_clust_7="13000.00000" pt_clust_8="13000.00000" pt_clust_9="153.42662"></scales>
<clustering>
<clus scale="   76.123">  5  6 -1 -1</clus>
<clus scale="   90.237">  7  8 -1 -1</clus>
<clus scale="  153.427">  1  9  2 -1</clus>
<clus scale="  312.682">  2  5  1 -1</clus>
<clus scale="  153.427">  1  5  2 -1</clus>
</clustering>
</event>
<event>
 9    2  0.3745229E-005  0.1437766E+03  0.7546771E-02  0.1225183E+00
          2   -1    0    0  502    0 -0.00000000000E+00  0.00000000000E+00  0.82548550662E+03  0.82548550662E+03  0.00000000000E+00 0. -1.
         21   -1    0    0  501  502  0.00000000000E+00 -0.00000000000E+00 -0.18220570606E+03  0.18220570606E+03  0.00000000000E+00 0. -1.
         23    2    1    2    0    0 -0.34096393579E+02  0.23351808202E+02  0.11634815065E+03  0.15390269760E+03  0.91876423358E+02 0.  0.
         24    2    1    2    0    0  0.13611878950E+02 -0.13947653326E+03  0.65789132009E+03  0.67756421959E+03  0.81445049196E+02 0.  0.
        -11    1    4    4    0    0  0.28760666897E+02 -0.92358082548E+01  0.99449133105E+02  0.10393558673E+03  0.00000000000E+00 0.  1.
         12    1    4    4    0    0 -0.15148787947E+02 -0.13024072500E+03  0.55844218698E+03  0.57362863285E+03  0.00000000000E+00 0. -1.
        -13    1    3    3    0    0  0.22533394685E+02  0.35421133469E+02  0.39150550905E+02  0.57403625394E+02  0.00000000000E+00 0.  1.
         13    1    3    3    0    0 -0.56629788263E+02 -0.12069325267E+02  0.77197599743E+02  0.96499072210E+02  0.00000000000E+00 0. -1.
          1    1    1    2  501    0  0.20484514629E+02  0.11612472505E+03 -0.13095967018E+03  0.17622429549E+03  0.00000000000E+00 0. -1.
<scales pt_clust_5="13000.00000" pt_clust_6="13000.00000" pt_clust_7="13000.00000" pt_clust_8="13000.00000" pt_clust_9="118.48378"></scales>
<clustering>
<clus scale="   81.445">  5  6 -1 -1</clus>
<clus scale="   91.876">  7  8 -1 -1</clus>
<clus scale="  100.743">  1  7  2 -1</clus>
<clus scale="  118.484">  2  9  1 -1</clus>
<clus scale="  118.484">  2  5  1 -1</clus>
</clustering>
</event>
<event>
 9    2  0.3745229E-005  0.2576167E+03  0.7546771E-02  0.1108584E+00
         21   -1    0    0  501  502  0.00000000000E+00  0.00000000000E+00  0.12990383602E+03  0.12990383602E+03  0.00000000000E+00 0. -1.
          4   -1    0    0  502    0 -0.00000000000E+00 -0.00000000000E+00 -0.36688248462E+03  0.36688248462E+03  0.00000000000E+00 0. -1.
         24    2    1    2    0    0 -0.78382746213E+02 -0.98519270281E+01 -0.93690922102E+02  0.14764717861E+03  0.82345522631E+02 0.  0.
         23    2    1    2    0    0 -0.93455474312E+02 -0.27841944784E+02 -0.75744680365E+02  0.16069481315E+03  0.10284195059E+03 0.  0.
        -13    1    3    3    0    0 -0.20251729788E+02 -0.37026525982E+02 -0.12213354213E+02  0.43934749423E+02  0.00000000000E+00 0.  1.
         14    1    3    3    0    0 -0.58131016425E+02  0.27174598954E+02 -0.81477567889E+02  0.10371242919E+03  0.00000000000E+00 0. -1.
        -13    1    4    4    0    0 -0.87009432868E+02  0.20329806101E+02 -0.30842270292E+02  0.94526123696E+02  0.00000000000E+00 0.  1.
         13    1    4    4    0    0 -0.64460414442E+01 -0.48171750885E+02 -0.44902410073E+02  0.66168689453E+02  0.00000000000E+00 0. -1.
          3    1    1    2  501    0  0.17183822053E+03  0.37693871812E+02 -0.67543046129E+02  0.18844432888E+03  0.00000000000E+00 0. -1.
<scales pt_clust_5="13000.00000" pt_clust_6="13000.00000" pt_clust_7="13000.00000" pt_clust_8="13000.00000" pt_clust_9="175.92385"></scales>
<clustering>
<clus scale="   82.346">  5  6 -1 -1</clus>
<clus scale="  102.842">  7  8 -1 -1</clus>
<clus scale="  107.107">  5  7 -1 -1</clus>
<clus scale="  175.924">  1  9  2 -1</clus>
<clus scale="  175.924">  1  5  2 -1</clus>
</clustering>
</event>
<event>
 9    2  0.3745229E-005  0.1525891E+03  0.7546771E-02  0.1200118E+00
          2   -1    0    0  502    0 -0.00000000000E+00  0.00000000000E+00  0.29680799674E+03  0.29680799674E+03  0.00000000000E+00 0. -1.
         21   -1    0    0  501  502  0.00000000000E+00 -0.00000000000E+00 -0.10855414821E+03  0.10855414821E+03  0.00000000000E+00 0.  1.
         23    2    1    2    0    0  0.94591600889E+02  0.38643911595E+02  0.79852441964E+02  0.15999044701E+03  0.93699561288E+02 0.  0.
         24    2    1    2    0    0 -0.13716831841E+03 -0.27141933996E+02  0.11952732313E+03  0.19988699300E+03  0.78206117661E+02 0.  0.
        -11    1    4    4    0    0 -0.95709863188E+02  0.80292902819E+01  0.10759155041E+03  0.14422478682E+03  0.00000000000E+00 0.  1.
         12    1    4    4    0    0 -0.41458455225E+02 -0.35171224278E+02  0.11935772725E+02  0.55662206185E+02  0.00000000000E+00 0. -1.
        -13    1    3    3    0    0  0.86871586938E+01  0.48703204967E+02  0.44540880843E+02  0.66568453238E+02  0.00000000000E+00 0. -1.
         13    1    3    3    0    0  0.85904442196E+02 -0.10059293372E+02  0.35311561121E+02  0.93421993775E+02  0.00000000000E+00 0.  1.
          1    1    1    2  501    0  0.42576717524E+02 -0.11501977599E+02 -0.11125916571E+02  0.45484704938E+02  0.00000000000E+00 0. -1.
<scales pt_clust_5="13000.00000" pt_clust_6="13000.00000" pt_clust_7="13000.00000" pt_clust_8="13000.00000" pt_clust_9="44.10297"></scales>
<clustering>
<clus scale="   44.103">  2  9  1 -1</clus>
<clus scale="   78.206">  5  6 -1 -1</clus>
<clus scale="   93.700">  7  8 -1 -1</clus>
<clus scale="  143.597">  2  5  1 -1</clus>
<clus scale="   44.103">  2  5  1 -1</clus>
</clustering>
</event>
<event>
 9    2  0.3745229E-005  0.1696920E+03  0.7546771E-02  0.1179832E+00
         21   -1    0    0  501  502  0.00000000000E+00  0.00000000000E+00  0.42410757200E+02  0.42410757200E+02  0.00000000000E+00 0.  1.
          2   -1    0    0  502    0 -0.00000000000E+00 -0.00000000000E+00 -0.87948950839E+03  0.87948950839E+03  0.00000000000E+00 0. -1.
         24    2    1    2    0    0 -0.15222795458E+03  0.20595413182E+01 -0.56125797406E+03  0.58690613998E+03  0.79187826319E+02 0.  0.
         23    2    1    2    0    0  0.12750623001E+03  0.18552201672E+01 -0.26450487208E+03  0.30752525722E+03  0.91365616832E+02 0.  0.
        -11    1    3    3    0    0 -0.69019174592E+02  0.17754004408E+00 -0.12508607720E+03  0.14286428767E+03  0.00000000000E+00 0.  1.
         12    1    3    3    0    0 -0.83208779993E+02  0.18820012741E+01 -0.43617189686E+03  0.44404185232E+03  0.00000000000E+00 0. -1.
        -13    1    4    4    0    0  0.11809189267E+02  0.29455415956E+02 -0.97195043583E+02  0.10224458410E+03  0.00000000000E+00 0. -1.
         13    1    4    4    0    0  0.11569704075E+03 -0.27600195789E+02 -0.16730982850E+03  0.20528067312E+03  0.00000000000E+00 0.  1.
          1    1    1    2  501    0  0.24721724571E+02 -0.39147614854E+01 -0.11315905045E+02  0.27468868383E+02  0.00000000000E+00 0. -1.
<scales pt_clust_5="13000.00000" pt_clust_6="13000.00000" pt_clust_7="13000.00000" pt_clust_8="13000.00000" pt_clust_9="25.02976"></scales>
<clustering>
<clus scale="   25.030">  1  9  2 -1</clus>
<clus scale="   79.188">  5  6 -1 -1</clus>
<clus scale="   91.366">  7  8 -1 -1</clus>
<clus scale="  163.458">  2  5  1 -1</clus>
<clus scale="   25.030">  1  5  2 -1</clus>
</clustering>
</event>
<event>
 9    2  0.3745229E-005  0.9749476E+02  0.7546771E-02  0.1290578E+00
         21   -1    0    0  501  502  0.00000000000E+00  0.00000000000E+00  0.50006972037E+03  0.50006972037E+03  0.00000000000E+00 0. -1.
          4   -1    0    0  502    0 -0.00000000000E+00 -0.00000000000E+00 -0.75580521011E+02  0.75580521011E+02  0.00000000000E+00 0. -1.
         23    2    1    2    0    0 -0.40180297354E+02 -0.17683964925E+02 -0.28710555130E+02  0.10354761447E+03  0.89278404865E+02 0.  0.
         24    2    1    2    0    0  0.37517523381E+01  0.21270202085E+02  0.20209256450E+03  0.21834147769E+03  0.79781571258E+02 0.  0.
        -13    1    4    4    0    0  0.20568334735E+02 -0.54571143060E+01  0.97205769228E+01  0.23395001732E+02  0.00000000000E+00 0.  1.
         14    1    4    4    0    0 -0.16816582397E+02  0.26727316391E+02  0.19237198757E+03  0.19494647596E+03  0.00000000000E+00 0. -1.
        -13    1    3    3    0    0 -0.57590794943E+02  0.76486813477E+01  0.45300418389E+01  0.58272834731E+02  0.00000000000E+00 0.  1.
         13    1    3    3    0    0  0.17410497589E+02 -0.25332646273E+02 -0.33240596969E+02  0.45274779738E+02  0.00000000000E+00 0. -1.
          3    1    1    2  501    0  0.36428545016E+02 -0.35862371606E+01  0.25110719000E+03  0.25376114923E+03  0.00000000000E+00 0. -1.
<scales pt_clust_5="13000.00000" pt_clust_6="13000.00000" pt_clust_7="13000.00000" pt_clust_8="13000.00000" pt_clust_9="36.60464"></scales>
<clustering>
<clus scale="   36.605">  1  9  2 -1</clus>
<clus scale="   79.782">  5  6 -1 -1</clus>
<clus scale="   88.880">  1  5  2 -1</clus>
<clus scale="   89.278">  7  8 -1 -1</clus>
<clus scale="   36.605">  1  5  2 -1</clus>
</clustering>
</event>
<event>
 9    2  0.3745229E-005  0.1027160E+03  0.7546771E-02  0.1284653E+00
          2   -1    0    0  502    0 -0.00000000000E+00  0.00000000000E+00  0.41979164565E+03  0.41979164565E+03  0.00000000000E+00 0. -1.
         21   -1    0    0  501  502  0.00000000000E+00 -0.00000000000E+00 -0.42688225059E+02  0.42688225059E+02  0.00000000000E+00 0.  1.
         24    2    1    2    0    0 -0.17177086749E+01 -0.10433647266E+02  0.22405488104E+03  0.23958643446E+03  0.84197733596E+02 0.  0.
         23    2    1    2    0    0  0.36663161949E+02 -0.22034720834E+02  0.12728656687E+03  0.16868034864E+03  0.10208561870E+03 0.  0.
        -13    1    3    3    0    0  0.18784607622E+02  0.25215268058E+02  0.16279148961E+03  0.16580030253E+03  0.00000000000E+00 0.  1.
         14    1    3    3    0    0 -0.20502316297E+02 -0.35648915324E+02  0.61263391424E+02  0.73786131936E+02  0.00000000000E+00 0. -1.
        -13    1    4    4    0    0  0.31388107979E+02 -0.56910645115E+02  0.11353605516E+03  0.13082228660E+03  0.00000000000E+00 0.  1.
         13    1    4    4    0    0  0.52750539700E+01  0.34875924282E+02  0.13750511706E+02  0.37858062035E+02  0.00000000000E+00 0. -1.
          1    1    1    2  501    0 -0.34945453275E+02  0.32468368100E+02  0.25761972685E+02  0.54213087610E+02  0.00000000000E+00 0. -1.
<scales pt_clust_5="13000.00000" pt_clust_6="13000.00000" pt_clust_7="13000.00000" pt_clust_8="13000.00000" pt_clust_9="47.70094"></scales>
<clustering>
<clus scale="   47.701">  2  9  1 -1</clus>
<clus scale="   84.198">  5  6 -1 -1</clus>
<clus scale="   84.961">  1  5  2 -1</clus>
<clus scale="  102.086">  7  8 -1 -1</clus>
<clus scale="   47.701">  2  5  1 -1</clus>
</clustering>
</event>
<event>
 9    2  0.3745229E-005  0.9488105E+02  0.7546771E-02  0.1302129E+00
          2   -1    0    0  502    0 -0.00000000000E+00  0.00000000000E+00  0.24226350986E+03  0.24226350986E+03  0.00000000000E+00 0. -1.
         21   -1    0    0  501  502  0.00000000000E+00 -0.00000000000E+00 -0.47462626948E+02  0.47462626948E+02  0.00000000000E+00 0. -1.
         24    2    1    2    0    0  0.26652669911E+02 -0.12821636540E+02  0.10853322336E+03  0.13420911217E+03  0.73197445578E+02 0.  0.
         23    2    1    2    0    0 -0.27534266955E+01  0.29917177965E+02  0.48016958246E+02  0.10728272654E+03  0.91111669057E+02 0.  0.
        -13    1    3    3    0    0  0.73924149389E+01 -0.30787164456E+02  0.11534075430E+02  0.33697658523E+02  0.00000000000E+00 0.  1.
         14    1    3    3    0    0  0.19260254972E+02  0.17965527916E+02  0.96999147929E+02  0.10051145365E+03  0.00000000000E+00 0. -1.
        -11    1    4    4    0    0  0.18821956137E+02 -0.27574860515E+02  0.24978620133E+02  0.41696168037E+02  0.00000000000E+00 0. -1.
         11    1    4    4    0    0 -0.21575382833E+02  0.57492038480E+02  0.23038338113E+02  0.65586558501E+02  0.00000000000E+00 0.  1.
          1    1    1    2  501    0 -0.23899243216E+02 -0.17095541425E+02  0.38250701303E+02  0.48234298099E+02  0.00000000000E+00 0. -1.
<scales pt_clust_5="13000.00000" pt_clust_6="13000.00000" pt_clust_7="13000.00000" pt_clust_8="13000.00000" pt_clust_9="29.38422"></scales>
<clustering>
<clus scale="   29.384">  2  9  1 -1</clus>
<clus scale="   73.197">  5  6 -1 -1</clus>
<clus scale="   77.839">  1  5  2 -1</clus>
<clus scale="   91.112">  7  8 -1 -1</clus>
<clus scale="   29.384">  2  5  1 -1</clus>
</clustering>
</event>
<event>
 9    2  0.3745229E-005  0.1003748E+03  0.7546771E-02  0.1282704E+00
         21   -1    0    0  501  502  0.00000000000E+00  0.00000000000E+00  0.39672012736E+02  0.39672012736E+02  0.00000000000E+00 0.  1.
          4   -1    0    0  502    0 -0.00000000000E+00 -0.00000000000E+00 -0.44114095464E+03  0.44114095464E+03  0.00000000000E+00 0. -1.
         23    2    1    2    0    0 -0.13951583676E+02 -0.44548024326E+02 -0.29917887245E+03  0.31574673628E+03  0.89492070000E+02 0.  0.
         24    2    1    2    0    0 -0.85827120141E+01  0.45766391728E+02 -0.10583656219E+03  0.14222205215E+03  0.82810075859E+02 0.  0.
        -13    1    4    4    0    0 -0.16339677600E+02  0.21813935140E+02  0.57292608562E+01  0.27850624056E+02  0.00000000000E+00 0.  1.
         14    1    4    4    0    0  0.77569655856E+01  0.23952456588E+02 -0.11156582305E+03  0.11437142809E+03  0.00000000000E+00 0. -1.
        -13    1    3    3    0    0  0.29545532104E+02  0.90377478541E+01 -0.11440528720E+03  0.11850396235E+03  0.00000000000E+00 0.  1.
         13    1    3    3    0    0 -0.43497115779E+02 -0.53585772180E+02 -0.18477358525E+03  0.19724277393E+03  0.00000000000E+00 0. -1.
          3    1    1    2  501    0  0.22534295690E+02 -0.12183674018E+01  0.35464927304E+01  0.22844178953E+02  0.00000000000E+00 0. -1.
<scales pt_clust_5="13000.00000" pt_clust_6="13000.00000" pt_clust_7="13000.00000" pt_clust_8="13000.00000" pt_clust_9="22.56721"></scales>
<clustering>
<clus scale="   22.567">  1  9  2 -1</clus>
<clus scale="   82.810">  5  6 -1 -1</clus>
<clus scale="   89.492">  7  8 -1 -1</clus>
<clus scale="   94.466">  1  5  2 -1</clus>
<clus scale="   22.567">  1  5  2 -1</clus>
</clustering>
</event>
<event>
 9    2  0.3745229E-005  0.1021134E+03  0.7546771E-02  0.1280897E+00
         21   -1    0    0  501  502  0.00000000000E+00  0.00000000000E+00  0.45060405579E+03  0.45060405579E+03  0.00000000000E+00 0.  1.
          2   -1    0    0  502    0 -0.00000000000E+00 -0.00000000000E+00 -0.39392400411E+02  0.39392400411E+02  0.00000000000E+00 0. -1.
         23    2    1    2    0    0  0.44852929150E+02 -0.27317733267E+02  0.64208568600E+02  0.12320852474E+03  0.91101901638E+02 0.  0.
         24    2    1    2    0    0 -0.21355678670E+02  0.25104168044E+02  0.20327998340E+03  0.22113989305E+03  0.80584219169E+02 0.  0.
        -13    1    4    4    0    0  0.10777823272E+02  0.42194258545E+02  0.15295127556E+03  0.15903021608E+03  0.00000000000E+00 0.  1.
         14    1    4    4    0    0 -0.32133501942E+02 -0.17090090501E+02  0.50328707841E+02  0.62109676970E+02  0.00000000000E+00 0. -1.
        -11    1    3    3    0    0  0.18889812050E+01 -0.44768975008E+02  0.62372260590E+02  0.76799272551E+02  0.00000000000E+00 0.  1.
         11    1    3    3    0    0  0.42963947945E+02  0.17451241741E+02  0.18363080098E+01  0.46409252185E+02  0.00000000000E+00 0. -1.
          1    1    1    2  501    0 -0.23497250480E+02  0.22135652232E+01  0.14372310338E+03  0.14564803842E+03  0.00000000000E+00 0. -1.
<scales pt_clust_5="13000.00000" pt_clust_6="13000.00000" pt_clust_7="13000.00000" pt_clust_8="13000.00000" pt_clust_9="23.60128"></scales>
<clustering>
<clus scale="   23.601">  1  9  2 -1</clus>
<clus scale="   80.584">  5  6 -1 -1</clus>
<clus scale="   91.102">  7  8 -1 -1</clus>
<clus scale="   92.852">  1  5  2 -1</clus>
<clus scale="   23.601">  1  5  2 -1</clus>
</clustering>
</event>
<event>
 9    2  0.3745229E-005  0.1030656E+03  0.7546771E-02  0.1278864E+00
         -3   -1    0    0    0  501 -0.00000000000E+00  0.00000000000E+00  0.30589956511E+03  0.30589956511E+03  0.00000000000E+00 0.  1.
         21   -1    0    0  501  502  0.00000000000E+00 -0.00000000000E+00 -0.82324126532E+02  0.82324126532E+02  0.00000000000E+00 0. -1.
         23    2    1    2    0    0  0.16456752680E+01 -0.38735610464E+02  0.14596871014E+03  0.17598591026E+03  0.90338366733E+02 0.  0.
         24    2    1    2    0    0  0.64798159074E+02  0.60511309014E+02  0.77746325319E+02  0.14231651382E+03  0.79681108603E+02 0.  0.
        -13    1    4    4    0    0  0.21160116513E+02  0.71037065396E+02  0.44472202622E+02  0.86439527978E+02  0.00000000000E+00 0.  1.
         14    1    4    4    0    0  0.43638042560E+02 -0.10525756382E+02  0.33274122697E+02  0.55876985845E+02  0.00000000000E+00 0. -1.
        -11    1    3    3    0    0  0.25607811571E+02  0.18469112169E+02  0.25869319146E+02  0.40817763178E+02  0.00000000000E+00 0. -1.
         11    1    3    3    0    0 -0.23962136303E+02 -0.57204722632E+02  0.12009939100E+03  0.13516814708E+03  0.00000000000E+00 0.  1.
         -4    1    1    2    0  502 -0.66443834342E+02 -0.21775698551E+02 -0.13959688617E+00  0.69921267556E+02  0.00000000000E+00 0.  1.
<scales pt_clust_5="13000.00000" pt_clust_6="13000.00000" pt_clust_7="13000.00000" pt_clust_8="13000.00000" pt_clust_9="69.92113"></scales>
<clustering>
<clus scale="   69.921">  2  9  1 -1</clus>
<clus scale="   79.681">  5  6 -1 -1</clus>
<clus scale="   90.338">  7  8 -1 -1</clus>
<clus scale="   93.865">  2  5  1 -1</clus>
<clus scale="   69.921">  2  5  1 -1</clus>
</clustering>
</event>
<event>
 9    2  0.3745229E-005  0.1016427E+03  0.7546771E-02  0.1284662E+00
          2   -1    0    0  502    0 -0.00000000000E+00  0.00000000000E+00  0.41613971509E+03  0.41613971509E+03  0.00000000000E+00 0. -1.
         21   -1    0    0  501  502  0.00000000000E+00 -0.00000000000E+00 -0.60097474344E+02  0.60097474344E+02  0.00000000000E+00 0. -1.
         24    2    1    2    0    0  0.79944883261E+01 -0.31308316225E+02  0.19737955645E+03  0.21492767144E+03  0.78683493418E+02 0.  0.
         23    2    1    2    0    0 -0.31425136326E+02  0.40020022266E+02  0.19193478553E+03  0.21969315333E+03  0.94005203849E+02 0.  0.
        -13    1    3    3    0    0  0.22401243034E+02 -0.52085787886E+02  0.16044097294E+03  0.17016477540E+03  0.00000000000E+00 0.  1.
         14    1    3    3    0    0 -0.14406754708E+02  0.20777471661E+02  0.36938583509E+02  0.44762896036E+02  0.00000000000E+00 0. -1.
        -11    1    4    4    0    0  0.14983705692E+02 -0.18040372456E+02  0.15153101517E+02  0.27921012879E+02  0.00000000000E+00 0.  1.
         11    1    4    4    0    0 -0.46408842018E+02  0.58060394722E+02  0.17678168401E+03  0.19177214045E+03  0.00000000000E+00 0. -1.
          1    1    1    2  501    0  0.23430648000E+02 -0.87117060410E+01 -0.33272101229E+02  0.41616364666E+02  0.00000000000E+00 0. -1.
<scales pt_clust_5="13000.00000" pt_clust_6="13000.00000" pt_clust_7="13000.00000" pt_clust_8="13000.00000" pt_clust_9="24.99778"></scales>
<clustering>
<clus scale="   24.998">  2  9  1 -1</clus>
<clus scale="   78.683">  5  6 -1 -1</clus>
<clus scale="   87.666">  1  5  2 -1</clus>
<clus scale="   94.005">  7  8 -1 -1</clus>
<clus scale="   24.998">  2  5  1 -1</clus>
</clustering>
</event>
<event>
 9    2  0.3745229E-005  0.1024782E+03  0.7546771E-02  0.1279898E+00
          2   -1    0    0  502    0 -0.00000000000E+00  0.00000000000E+00  0.89525562249E+02  0.89525562249E+02  0.00000000000E+00 0. -1.
         21   -1    0    0  501  502  0.00000000000E+00 -0.00000000000E+00 -0.18537821545E+03  0.18537821545E+03  0.00000000000E+00 0. -1.
         24    2    1    2    0    0  0.43588025470E+02  0.27534362260E+02  0.20106871389E+02  0.97467580842E+02  0.80234568414E+02 0.  0.
         23    2    1    2    0    0 -0.15512186153E+02 -0.43093033963E+02 -0.96253245319E+02  0.13977106097E+03  0.90408101163E+02 0.  0.
        -13    1    3    3    0    0 -0.10199966114E+02  0.38806657656E+02  0.12245203258E+02  0.41951650624E+02  0.00000000000E+00 0.  1.
         14    1    3    3    0    0  0.53787991585E+02 -0.11272295396E+02  0.78616681305E+01  0.55515930218E+02  0.00000000000E+00 0. -1.
        -13    1    4    4    0    0  0.57093198912E+01 -0.35663287961E+02  0.46296285811E+01  0.36412908461E+02  0.00000000000E+00 0.  1.
         13    1    4    4    0    0 -0.21221506044E+02 -0.74297460020E+01 -0.10088287390E+03  0.10335815251E+03  0.00000000000E+00 0. -1.
          1    1    1    2  501    0 -0.28075839317E+02  0.15558671703E+02 -0.19706279272E+02  0.37665135885E+02  0.00000000000E+00 0. -1.
<scales pt_clust_5="13000.00000" pt_clust_6="13000.00000" pt_clust_7="13000.00000" pt_clust_8="13000.00000" pt_clust_9="32.09868"></scales>
<clustering>
<clus scale="   32.099">  2  9  1 -1</clus>
<clus scale="   80.235">  5  6 -1 -1</clus>
<clus scale="   90.408">  7  8 -1 -1</clus>
<clus scale="   93.626">  1  5  2 -1</clus>
<clus scale="   32.099">  2  5  1 -1</clus>
</clustering>
</event>
<event>
 9    2  0.3745229E-005  0.2125562E+03  0.7546771E-02  0.1140546E+00
          2   -1    0    0  502    0 -0.00000000000E+00  0.00000000000E+00  0.19368778540E+03  0.19368778540E+03  0.00000000000E+00 0. -1.
         21   -1    0    0  501  502  0.00000000000E+00 -0.00000000000E+00 -0.37312245738E+03  0.37312245738E+03  0.00000000000E+00 0. -1.
         24    2    1    2    0    0 -0.20293579490E+03  0.42063027127E+02  0.13605507185E+02  0.22257776806E+03  0.80021983890E+02 0.  0.
         23    2    1    2    0    0  0.17359908429E+03  0.96738487810E+01 -0.72368890297E+02  0.20970029688E+03  0.92231951136E+02 0.  0.
        -11    1    3    3    0    0 -0.48790027720E+02  0.12698908501E+02  0.38842877106E+02  0.63643524289E+02  0.00000000000E+00 0.  1.
         12    1    3    3    0    0 -0.15414576718E+03  0.29364118627E+02 -0.25237369922E+02  0.15893424377E+03  0.00000000000E+00 0. -1.
        -11    1    4    4    0    0  0.41689481096E+02  0.20941962975E+02  0.17347749079E+02  0.49774722956E+02  0.00000000000E+00 0.  1.
         11    1    4    4    0    0  0.13190960320E+03 -0.11268114194E+02 -0.89716639377E+02  0.15992557392E+03  0.00000000000E+00 0. -1.
          1    1    1    2  501    0  0.29336710606E+02 -0.51736875908E+02 -0.12067128887E+03  0.13453217784E+03  0.00000000000E+00 0. -1.
<scales pt_clust_5="13000.00000" pt_clust_6="13000.00000" pt_clust_7="13000.00000" pt_clust_8="13000.00000" pt_clust_9="59.47560"></scales>
<clustering>
<clus scale="   59.476">  2  9  1 -1</clus>
<clus scale="   80.022">  5  6 -1 -1</clus>
<clus scale="   92.232">  7  8 -1 -1</clus>
<clus scale="  207.550">  1  5  2 -1</clus>
<clus scale="   59.476">  2  5  1 -1</clus>
</clustering>
</event>
<event>
 9    2  0.3745229E-005  0.9589526E+02  0.7546771E-02  0.1295199E+00
         21   -1    0    0  501  502  0.00000000000E+00  0.00000000000E+00  0.17918488690E+03  0.17918488690E+03  0.00000000000E+00 0.  1.
          2   -1    0    0  502    0 -0.00000000000E+00 -0.00000000000E+00 -0.12229162761E+03  0.12229162761E+03  0.00000000000E+00 0. -1.
         23    2    1    2    0    0 -0.39708682631E+02 -0.16053122601E+02  0.14350154137E+02  0.10178180674E+03  0.91209248640E+02 0.  0.
         24    2    1    2    0    0  0.10349778182E+02 -0.26722436763E+02  0.93753051391E+02  0.12679647499E+03  0.80414581319E+02 0.  0.
        -11    1    4    4    0    0  0.13513994454E+02 -0.48192573174E+02  0.92359593089E+02  0.10504973389E+03  0.00000000000E+00 0.  1.
         12    1    4    4    0    0 -0.31642162723E+01  0.21470136412E+02  0.13934583019E+01  0.21746741094E+02  0.00000000000E+00 0. -1.
        -13    1    3    3    0    0 -0.26639957488E+02  0.16878487411E+02  0.44988872437E+02  0.54941508128E+02  0.00000000000E+00 0.  1.
         13    1    3    3    0    0 -0.13068725143E+02 -0.32931610011E+02 -0.30638718300E+02  0.46840298610E+02  0.00000000000E+00 0. -1.
          1    1    1    2  501    0  0.29358904449E+02  0.42775559363E+02 -0.51209946236E+02  0.72898232782E+02  0.00000000000E+00 0. -1.
<scales pt_clust_5="13000.00000" pt_clust_6="13000.00000" pt_clust_7="13000.00000" pt_clust_8="13000.00000" pt_clust_9="51.88156"></scales>
<clustering>
<clus scale="   51.882">  1  9  2 -1</clus>
<clus scale="   80.415">  5  6 -1 -1</clus>
<clus scale="   85.693">  1  5  2 -1</clus>
<clus scale="   91.209">  7  8 -1 -1</clus>
<clus scale="   51.882">  1  5  2 -1</clus>
</clustering>
</event>
<event>
 9    2  0.3745229E-005  0.2856772E+03  0.7546771E-02  0.1093349E+00
         21   -1    0    0  501  502  0.00000000000E+00  0.00000000000E+00  0.10137064521E+04  0.10137064521E+04  0.00000000000E+00 0. -1.
          4   -1    0    0  502    0 -0.00000000000E+00 -0.00000000000E+00 -0.95763104408E+02  0.95763104408E+02  0.00000000000E+00 0. -1.
         24    2    1    2    0    0 -0.14539953164E+03  0.21038140535E+03  0.29885153844E+03  0.40800427649E+03  0.10841534990E+03 0.  0.
         23    2    1    2    0    0  0.13992294744E+03 -0.24040773501E+03  0.51208648312E+03  0.59019213290E+03  0.93380283080E+02 0.  0.
        -13    1    3    3    0    0 -0.15533162617E+03  0.19046664144E+03  0.23366431689E+03  0.33912308765E+03  0.00000000000E+00 0.  1.
         14    1    3    3    0    0  0.99320945363E+01  0.19914763912E+02  0.65187221547E+02  0.68881188844E+02  0.00000000000E+00 0. -1.
        -11    1    4    4    0    0  0.75159566223E+02 -0.16815420337E+03  0.24852502807E+03  0.30933717217E+03  0.00000000000E+00 0. -1.
         11    1    4    4    0    0  0.64763381217E+02 -0.72253531644E+02  0.26356145505E+03  0.28085496073E+03  0.00000000000E+00 0.  1.
          3    1    1    2  501    0  0.54765841953E+01  0.30026329665E+02  0.10700532614E+03  0.11127314712E+03  0.00000000000E+00 0. -1.
<scales pt_clust_5="13000.00000" pt_clust_6="13000.00000" pt_clust_7="13000.00000" pt_clust_8="13000.00000" pt_clust_9="30.52169"></scales>
<clustering>
<clus scale="   30.522">  1  9  2 -1</clus>
<clus scale="   93.380">  7  8 -1 -1</clus>
<clus scale="  108.415">  5  6 -1 -1</clus>
<clus scale="  280.317">  1  7  2 -1</clus>
<clus scale="   30.522">  1  5  2 -1</clus>
</clustering>
</event>
<event>
 9    2  0.3745229E-005  0.1982879E+03  0.7546771E-02  0.1153339E+00
          2   -1    0    0  502    0 -0.00000000000E+00  0.00000000000E+00  0.15645817154E+03  0.15645817154E+03  0.00000000000E+00 0. -1.
         21   -1    0    0  501  502  0.00000000000E+00 -0.00000000000E+00 -0.39099908601E+03  0.39099908601E+03  0.00000000000E+00 0.  1.
         23    2    1    2    0    0 -0.17588286471E+03 -0.88296587986E+02 -0.62749266306E+01  0.22039181350E+03  0.99005591789E+02 0.  0.
         24    2    1    2    0    0  0.10055340719E+03  0.74469543596E+02 -0.19304870557E+03  0.24276852064E+03  0.77537418517E+02 0.  0.
        -13    1    4    4    0    0  0.85674513464E+02  0.66351327291E+02 -0.19747267586E+03  0.22525114562E+03  0.00000000000E+00 0.  1.
         14    1    4    4    0    0  0.14878893730E+02  0.81182163049E+01  0.44239702898E+01  0.17517375024E+02  0.00000000000E+00 0. -1.
        -11    1    3    3    0    0 -0.13637756209E+03 -0.19147178521E+02 -0.21287107024E+02  0.13935061827E+03  0.00000000000E+00 0.  1.
         11    1    3    3    0    0 -0.39505302624E+02 -0.69149409465E+02  0.15012180393E+02  0.81041195234E+02  0.00000000000E+00 0. -1.
          1    1    1    2  501    0  0.75329457518E+02  0.13827044390E+02 -0.35217282269E+02  0.84296923414E+02  0.00000000000E+00 0. -1.
<scales pt_clust_5="13000.00000" pt_clust_6="13000.00000" pt_clust_7="13000.00000" pt_clust_8="13000.00000" pt_clust_9="76.58799"></scales>
<clustering>
<clus scale="   76.588">  2  9  1 -1</clus>
<clus scale="   77.537">  5  6 -1 -1</clus>
<clus scale="   99.006">  7  8 -1 -1</clus>
<clus scale="  188.489">  2  5  1 -1</clus>
<clus scale="   76.588">  2  5  1 -1</clus>
</clustering>
</event>
<event>
 9    2  0.3745229E-005  0.1249951E+03  0.7546771E-02  0.1242384E+00
         21   -1    0    0  501  502  0.00000000000E+00  0.00000000000E+00  0.60500433888E+02  0.60500433888E+02  0.00000000000E+00 0.  1.
          2   -1    0    0  502    0 -0.00000000000E+00 -0.00000000000E+00 -0.55357012697E+03  0.55357012697E+03  0.00000000000E+00 0. -1.
         24    2    1    2    0    0  0.80098245959E+02  0.14778450429E+02 -0.34504198654E+03  0.36374490844E+03  0.81377234761E+02 0.  0.
         23    2    1    2    0    0 -0.32181492443E+02  0.45190509884E+02 -0.54101121248E+02  0.12902233469E+03  0.10316007410E+03 0.  0.
        -13    1    3    3    0    0  0.78763891399E+02  0.41011407281E+02 -0.26091527094E+03  0.27561288926E+03  0.00000000000E+00 0.  1.
         14    1    3    3    0    0  0.13343545598E+01 -0.26232956853E+02 -0.84126715599E+02  0.88132019181E+02  0.00000000000E+00 0. -1.
        -11    1    4    4    0    0 -0.53245244581E+02 -0.90767597603E+01 -0.76577244833E+01  0.54553500185E+02  0.00000000000E+00 0. -1.
         11    1    4    4    0    0  0.21063752137E+02  0.54267269645E+02 -0.46443396765E+02  0.74468834500E+02  0.00000000000E+00 0.  1.
          1    1    1    2  501    0 -0.47916753516E+02 -0.59968960313E+02 -0.93926585302E+02  0.12130331774E+03  0.00000000000E+00 0. -1.
<scales pt_clust_5="13000.00000" pt_clust_6="13000.00000" pt_clust_7="13000.00000" pt_clust_8="13000.00000" pt_clust_9="76.76126"></scales>
<clustering>
<clus scale="   76.761">  1  9  2 -1</clus>
<clus scale="   81.377">  5  6 -1 -1</clus>
<clus scale="  103.160">  7  8 -1 -1</clus>
<clus scale="  107.722">  2  5  1 -1</clus>
<clus scale="   76.761">  1  5  2 -1</clus>
</clustering>
</event>
<event>
 9    2  0.3745229E-005  0.1320438E+03  0.7546771E-02  0.1247954E+00
          2   -1    0    0  502    0 -0.00000000000E+00  0.00000000000E+00  0.62860026464E+03  0.62860026464E+03  0.00000000000E+00 0. -1.
         21   -1    0    0  501  502  0.00000000000E+00 -0.00000000000E+00 -0.36155979054E+02  0.36155979054E+02  0.00000000000E+00 0. -1.
         24    2    1    2    0    0  0.71124929428E+01  0.10996885212E+01  0.14393738022E+03  0.16549805788E+03  0.81362404502E+02 0.  0.
         23    2    1    2    0    0  0.68831239676E+02  0.33500397059E+02  0.21467742808E+03  0.25098245020E+03  0.10509888688E+03 0.  0.
        -11    1    3    3    0    0  0.15728335344E+02 -0.29420139967E+02  0.23122382678E+02  0.40590266679E+02  0.00000000000E+00 0.  1.
         12    1    3    3    0    0 -0.86158424017E+01  0.30519828488E+02  0.12081499754E+03  0.12490779120E+03  0.00000000000E+00 0. -1.
        -13    1    4    4    0    0 -0.12382864835E+02  0.30328763946E+02  0.12814377952E+03  0.13226487627E+03  0.00000000000E+00 0.  1.
         13    1    4    4    0    0  0.81214104511E+02  0.31716331134E+01  0.86533648556E+02  0.11871757393E+03  0.00000000000E+00 0. -1.
          1    1    1    2  501    0 -0.75943732619E+02 -0.34600085580E+02  0.23382947729E+03  0.24827573561E+03  0.00000000000E+00 0. -1.
<scales pt_clust_5="13000.00000" pt_clust_6="13000.00000" pt_clust_7="13000.00000" pt_clust_8="13000.00000" pt_clust_9="79.93619"></scales>
<clustering>
<clus scale="   81.362">  5  6 -1 -1</clus>
<clus scale="   81.680">  1  5  2 -1</clus>
<clus scale="   79.936">  2  9  1 -1</clus>
<clus scale="  105.099">  7  8 -1 -1</clus>
<clus scale="   79.936">  2  5  1 -1</clus>
</clustering>
</event>
<event>
 9    2  0.3745229E-005  0.1391890E+03  0.7546771E-02  0.1217566E+00
         21   -1    0    0  501  502  0.00000000000E+00  0.00000000000E+00  0.24542252943E+03  0.24542252943E+03  0.00000000000E+00 0.  1.
         -3   -1    0    0    0  501 -0.00000000000E+00 -0.00000000000E+00 -0.14225462201E+03  0.14225462201E+03  0.00000000000E+00 0.  1.
         23    2    1    2    0    0 -0.13258552450E+03 -0.40871584768E+02 -0.20865433142E+02  0.16891994369E+03  0.94070044792E+02 0.  0.
         24    2    1    2    0    0  0.57845364822E+02  0.19390559207E+02  0.55335021447E+02  0.11499312448E+03  0.80245710549E+02 0.  0.
        -13    1    4    4    0    0  0.38940709427E+02 -0.95850483627E+01  0.67336107436E+02  0.78373486381E+02  0.00000000000E+00 0.  1.
         14    1    4    4    0    0  0.18904655395E+02  0.28975607570E+02 -0.12001085990E+02  0.36619638100E+02  0.00000000000E+00 0. -1.
        -11    1    3    3    0    0 -0.69759481431E+02 -0.68052238127E+02 -0.24097169719E+02  0.10039006899E+03  0.00000000000E+00 0.  1.
         11    1    3    3    0    0 -0.62826043071E+02  0.27180653359E+02  0.32317365766E+01  0.68529874699E+02  0.00000000000E+00 0. -1.
         -4    1    1    2    0  502  0.74740159680E+02  0.21481025561E+02  0.68698319115E+02  0.10376408327E+03  0.00000000000E+00 0.  1.
<scales pt_clust_5="13000.00000" pt_clust_6="13000.00000" pt_clust_7="13000.00000" pt_clust_8="13000.00000" pt_clust_9="77.76584"></scales>
<clustering>
<clus scale="   77.766">  1  9  2 -1</clus>
<clus scale="   80.246">  5  6 -1 -1</clus>
<clus scale="   94.070">  7  8 -1 -1</clus>
<clus scale="  130.245">  1  5  2 -1</clus>
<clus scale="   77.766">  1  5  2 -1</clus>
</clustering>
</event>
<event>
 9    2  0.3745229E-005  0.1786998E+03  0.7546771E-02  0.1181242E+00
         21   -1    0    0  501  502  0.00000000000E+00  0.00000000000E+00  0.10638964943E+03  0.10638964943E+03  0.00000000000E+00 0.  1.
          2   -1    0    0  502    0 -0.00000000000E+00 -0.00000000000E+00 -0.63314057771E+03  0.63314057771E+03  0.00000000000E+00 0. -1.
         23    2    1    2    0    0 -0.10229275740E+03 -0.18986187532E+02 -0.26265750965E+03  0.29559524717E+03  0.86967230843E+02 0.  0.
         24    2    1    2    0    0  0.13417310493E+03 -0.12452844890E+03 -0.10051807651E+03  0.22400385444E+03  0.81019049765E+02 0.  0.
        -13    1    4    4    0    0  0.10349100616E+03 -0.83705217911E+02 -0.29171612852E+02  0.13626420975E+03  0.00000000000E+00 0.  1.
         14    1    4    4    0    0  0.30682098766E+02 -0.40823230993E+02 -0.71346463662E+02  0.87739644691E+02  0.00000000000E+00 0. -1.
        -13    1    3    3    0    0 -0.11113965401E+02 -0.40128085757E+02 -0.91141650328E+02  0.10020271413E+03  0.00000000000E+00 0.  1.
         13    1    3    3    0    0 -0.91178791995E+02  0.21141898226E+02 -0.17151585932E+03  0.19539253304E+03  0.00000000000E+00 0. -1.
          1    1    1    2  501    0 -0.31880347530E+02  0.14351463644E+03 -0.16357534212E+03  0.21993112553E+03  0.00000000000E+00 0. -1.
<scales pt_clust_5="13000.00000" pt_clust_6="13000.00000" pt_clust_7="13000.00000" pt_clust_8="13000.00000" pt_clust_9="159.27829"></scales>
<clustering>
<clus scale="   81.019">  5  6 -1 -1</clus>
<clus scale="   86.967">  7  8 -1 -1</clus>
<clus scale="  135.601">  2  7  1 -1</clus>
<clus scale="  159.278">  1  9  2 -1</clus>
<clus scale="  159.278">  1  5  2 -1</clus>
</clustering>
</event>
<event>
 9    2  0.3745229E-005  0.2657744E+03  0.7546771E-02  0.1139724E+00
         -3   -1    0    0    0  501 -0.00000000000E+00  0.00000000000E+00  0.51959868426E+03  0.51959868426E+03  0.00000000000E+00 0.  1.
         21   -1    0    0  501  502  0.00000000000E+00 -0.00000000000E+00 -0.61100617085E+03  0.61100617085E+03  0.00000000000E+00 0.  1.
         23    2    1    2    0    0 -0.38029876075E+02 -0.45200317487E+02  0.40109145429E+03  0.41545443325E+03  0.90767236541E+02 0.  0.
         24    2    1    2    0    0  0.24646996981E+03  0.12372976099E+03 -0.26402516307E+03  0.39606671291E+03  0.10537103286E+03 0.  0.
        -13    1    4    4    0    0  0.22017748507E+03  0.63003790528E+02 -0.20753712509E+03  0.30906190455E+03  0.00000000000E+00 0.  1.
         14    1    4    4    0    0  0.26292484736E+02  0.60725970461E+02 -0.56488037987E+02  0.87004808359E+02  0.00000000000E+00 0. -1.
        -13    1    3    3    0    0  0.26302112561E+02 -0.29610767691E+02  0.19543230913E+03  0.19940508053E+03  0.00000000000E+00 0.  1.
         13    1    3    3    0    0 -0.64331988636E+02 -0.15589549796E+02  0.20565914515E+03  0.21604935272E+03  0.00000000000E+00 0. -1.
         -4    1    1    2    0  502 -0.20844009373E+03 -0.78529443502E+02 -0.22847377780E+03  0.31908370895E+03  0.00000000000E+00 0.  1.
<scales pt_clust_5="13000.00000" pt_clust_6="13000.00000" pt_clust_7="13000.00000" pt_clust_8="13000.00000" pt_clust_9="243.99377"></scales>
<clustering>
<clus scale="   90.767">  7  8 -1 -1</clus>
<clus scale="  105.371">  5  6 -1 -1</clus>
<clus scale="  108.296">  1  7  2 -1</clus>
<clus scale="  243.994">  2  9  1 -1</clus>
<clus scale="  243.994">  2  5  1 -1</clus>
</clustering>
</event>
<event>
 9    2  0.3745229E-005  0.5949027E+03  0.7546771E-02  0.9916038E-01
         21   -1    0    0  501  502  0.00000000000E+00  0.00000000000E+00  0.88703617642E+03  0.88703617642E+03  0.00000000000E+00 0.  1.
         -1   -1    0    0    0  501 -0.00000000000E+00 -0.00000000000E+00 -0.11120665250E+04  0.11120665250E+04  0.00000000000E+00 0.  1.
         24    2    1    2    0    0  0.32930904479E+03 -0.11902945744E+03 -0.39433402439E+03  0.53301214855E+03  0.77396182055E+02 0.  0.
         23    2    1    2    0    0  0.16013226202E+03 -0.61662675582E+02 -0.54662111111E+03  0.58022897206E+03  0.91795392079E+02 0.  0.
        -11    1    3    3    0    0  0.83769998449E+02 -0.32901548313E+02 -0.55288266363E+02  0.10562536115E+03  0.00000000000E+00 0.  1.
         12    1    3    3    0    0  0.24553904634E+03 -0.86127909126E+02 -0.33904575802E+03  0.42738678740E+03  0.00000000000E+00 0. -1.
        -13    1    4    4    0    0  0.97667133060E+02 -0.51658109984E+02 -0.45928955876E+03  0.47239213372E+03  0.00000000000E+00 0. -1.
         13    1    4    4    0    0  0.62465128961E+02 -0.10004565598E+02 -0.87331552350E+02  0.10783683835E+03  0.00000000000E+00 0.  1.
         -2    1    1    2    0  502 -0.48944130681E+03  0.18069213302E+03  0.71592478694E+03  0.88586158078E+03  0.00000000000E+00 0.  1.
<scales pt_clust_5="13000.00000" pt_clust_6="13000.00000" pt_clust_7="13000.00000" pt_clust_8="13000.00000" pt_clust_9="521.73024"></scales>
<clustering>
<clus scale="   77.396">  5  6 -1 -1</clus>
<clus scale="   91.795">  7  8 -1 -1</clus>
<clus scale="  185.457">  5  7 -1 -1</clus>
<clus scale="  521.730">  1  9  2 -1</clus>
<clus scale="  521.730">  1  5  2 -1</clus>
</clustering>
</event>
<event>
 9    2  0.3745229E-005  0.1582358E+03  0.7546771E-02  0.1192440E+00
          2   -1    0    0  502    0 -0.00000000000E+00  0.00000000000E+00  0.87679515786E+03  0.87679515786E+03  0.00000000000E+00 0. -1.
         21   -1    0    0  501  502  0.00000000000E+00 -0.00000000000E+00 -0.78759085785E+02  0.78759085785E+02  0.00000000000E+00 0.  1.
         23    2    1    2    0    0  0.10172114483E+03 -0.73511877509E+02  0.67923065185E+03  0.69660223343E+03  0.90272951493E+02 0.  0.
         24    2    1    2    0    0 -0.10506943938E+03  0.12317024297E+03  0.93479241310E+02  0.20310776543E+03  0.79397103083E+02 0.  0.
        -11    1    4    4    0    0 -0.86470486631E+02  0.11130857589E+03  0.41956949589E+02  0.14706165287E+03  0.00000000000E+00 0.  1.
         12    1    4    4    0    0 -0.18598952745E+02  0.11861667076E+02  0.51522291721E+02  0.56046112561E+02  0.00000000000E+00 0. -1.
        -13    1    3    3    0    0  0.11193317598E+02  0.19091999037E+02  0.59432111131E+02  0.63419008346E+02  0.00000000000E+00 0.  1.
         13    1    3    3    0    0  0.90527827235E+02 -0.92603876546E+02  0.61979854072E+03  0.63318322509E+03  0.00000000000E+00 0. -1.
          1    1    1    2  501    0  0.33482945434E+01 -0.49658365460E+02  0.25326178911E+02  0.55844244777E+02  0.00000000000E+00 0. -1.
<scales pt_clust_5="13000.00000" pt_clust_6="13000.00000" pt_clust_7="13000.00000" pt_clust_8="13000.00000" pt_clust_9="49.77112"></scales>
<clustering>
<clus scale="   49.771">  2  9  1 -1</clus>
<clus scale="   79.397">  5  6 -1 -1</clus>
<clus scale="   90.273">  7  8 -1 -1</clus>
<clus scale="  152.293">  2  5  1 -1</clus>
<clus scale="   49.771">  2  5  1 -1</clus>
</clustering>
</event>
<event>
 9    2  0.3745229E-005  0.1060542E+03  0.7546771E-02  0.1272745E+00
         21   -1    0    0  501  502  0.00000000000E+00  0.00000000000E+00  0.90232028784E+02  0.90232028784E+02  0.00000000000E+00 0.  1.
         -3   -1    0    0    0  501 -0.00000000000E+00 -0.00000000000E+00 -0.37581324160E+03  0.37581324160E+03  0.00000000000E+00 0.  1.
         24    2    1    2    0    0 -0.46589181712E+02  0.21601047432E+02 -0.22199049042E+03  0.24184126491E+03  0.81057155608E+02 0.  0.
         23    2    1    2    0    0  0.13130310832E+02 -0.95509688357E+02 -0.30592530253E+02  0.13662053712E+03  0.91840963760E+02 0.  0.
        -13    1    3    3    0    0 -0.61718794417E+02  0.29537390891E+02 -0.11755727786E+03  0.13601978026E+03  0.00000000000E+00 0.  1.
         14    1    3    3    0    0  0.15129612705E+02 -0.79363434584E+01 -0.10443321256E+03  0.10582148465E+03  0.00000000000E+00 0. -1.
        -11    1    4    4    0    0 -0.10295663991E+02 -0.36867728771E+02 -0.56598497914E+02  0.68327301190E+02  0.00000000000E+00 0. -1.
         11    1    4    4    0    0  0.23425974823E+02 -0.58641959586E+02  0.26005967661E+02  0.68293235935E+02  0.00000000000E+00 0.  1.
         -4    1    1    2    0  502  0.33458870880E+02  0.73908640925E+02 -0.32998192151E+02  0.87583468355E+02  0.00000000000E+00 0.  1.
<scales pt_clust_5="13000.00000" pt_clust_6="13000.00000" pt_clust_7="13000.00000" pt_clust_8="13000.00000" pt_clust_9="81.12942"></scales>
<clustering>
<clus scale="   81.057">  5  6 -1 -1</clus>
<clus scale="   81.129">  1  9  2 -1</clus>
<clus scale="   91.841">  7  8 -1 -1</clus>
<clus scale="   96.866">  2  5  1 -1</clus>
<clus scale="   81.129">  1  5  2 -1</clus>
</clustering>
</event>
<event>
 9    2  0.3745229E-005  0.9162570E+02  0.7546771E-02  0.1303780E+00
         21   -1    0    0  501  502  0.00000000000E+00  0.00000000000E+00  0.51445111572E+03  0.51445111572E+03  0.00000000000E+00 0.  1.
          4   -1    0    0  502    0 -0.00000000000E+00 -0.00000000000E+00 -0.69240739619E+02  0.69240739619E+02  0.00000000000E+00 0. -1.
         23    2    1    2    0    0  0.18523037217E+02 -0.13287707143E+02 -0.27695856607E+02  0.95634648671E+02  0.88652464627E+02 0.  0.
         24    2    1    2    0    0 -0.38355414569E+02 -0.10280835914E+02  0.35532187908E+03  0.36650524399E+03  0.80595426070E+02 0.  0.
        -11    1    4    4    0    0 -0.53375659261E+02  0.11932558598E+02  0.30096333411E+03  0.30589258807E+03  0.00000000000E+00 0.  1.
         12    1    4    4    0    0  0.15020244692E+02 -0.22213394512E+02  0.54358544966E+02  0.60612655916E+02  0.00000000000E+00 0. -1.
        -13    1    3    3    0    0  0.50033467123E+02  0.76730392773E+01 -0.27880877598E+02  0.57788984242E+02  0.00000000000E+00 0. -1.
         13    1    3    3    0    0 -0.31510429905E+02 -0.20960746421E+02  0.18502099026E+00  0.37845664429E+02  0.00000000000E+00 0.  1.
          3    1    1    2  501    0  0.19832377352E+02  0.23568543057E+02  0.11758435363E+03  0.12155196268E+03  0.00000000000E+00 0. -1.
<scales pt_clust_5="13000.00000" pt_clust_6="13000.00000" pt_clust_7="13000.00000" pt_clust_8="13000.00000" pt_clust_9="30.80259"></scales>
<clustering>
<clus scale="   30.803">  1  9  2 -1</clus>
<clus scale="   80.595">  5  6 -1 -1</clus>
<clus scale="   83.855">  1  5  2 -1</clus>
<clus scale="   88.652">  7  8 -1 -1</clus>
<clus scale="   30.803">  1  5  2 -1</clus>
</clustering>
</event>
<event>
 9    2  0.3745229E-005  0.1047197E+03  0.7546771E-02  0.1271538E+00
         21   -1    0    0  501  502  0.00000000000E+00  0.00000000000E+00  0.26877350533E+02  0.26877350533E+02  0.00000000000E+00 0.  1.
          2   -1    0    0  502    0 -0.00000000000E+00 -0.00000000000E+00 -0.10172045806E+04  0.10172045806E+04  0.00000000000E+00 0. -1.
         24    2    1    2    0    0  0.21531527468E+02  0.40283558714E+02 -0.73052214759E+03  0.73734561321E+03  0.89048152263E+02 0.  0.
         23    2    1    2    0    0 -0.45625621532E+02 -0.61971381531E+02 -0.24195428891E+03  0.26972905030E+03  0.91047971891E+02 0.  0.
        -13    1    3    3    0    0 -0.18825355657E+02  0.43229915383E+02 -0.20884529144E+03  0.21410178738E+03  0.00000000000E+00 0.  1.
         14    1    3    3    0    0  0.40356883125E+02 -0.29463566689E+01 -0.52167685615E+03  0.52324382583E+03  0.00000000000E+00 0. -1.
        -13    1    4    4    0    0 -0.20559494508E+02 -0.83551465158E+02 -0.17948188958E+03  0.19904092251E+03  0.00000000000E+00 0.  1.
         13    1    4    4    0    0 -0.25066127024E+02  0.21580083626E+02 -0.62472399328E+02  0.70688127795E+02  0.00000000000E+00 0. -1.
          1    1    1    2  501    0  0.24094094064E+02  0.21687822817E+02 -0.17850793604E+02  0.37007267659E+02  0.00000000000E+00 0. -1.
<scales pt_clust_5="13000.00000" pt_clust_6="13000.00000" pt_clust_7="13000.00000" pt_clust_8="13000.00000" pt_clust_9="32.41739"></scales>
<clustering>
<clus scale="   32.417">  1  9  2 -1</clus>
<clus scale="   89.048">  5  6 -1 -1</clus>
<clus scale="   91.048">  7  8 -1 -1</clus>
<clus scale="  102.986">  2  5  1 -1</clus>
<clus scale="   32.417">  1  5  2 -1</clus>
</clustering>
</event>
<event>
 9    2  0.3745229E-005  0.8785805E+02  0.7546771E-02  0.1313094E+00
          2   -1    0    0  502    0 -0.00000000000E+00  0.00000000000E+00  0.49339541985E+03  0.49339541985E+03  0.00000000000E+00 0. -1.
         21   -1    0    0  501  502  0.00000000000E+00 -0.00000000000E+00 -0.26491060381E+02  0.26491060381E+02  0.00000000000E+00 0.  1.
         24    2    1    2    0    0 -0.10605115153E+02 -0.14669352359E+01  0.27323883005E+03  0.28497134240E+03  0.80215879803E+02 0.  0.
         23    2    1    2    0    0 -0.22023782025E+02  0.67137639388E+01  0.17454856429E+03  0.19673618423E+03  0.87794095989E+02 0.  0.
        -11    1    3    3    0    0  0.35028927889E+02 -0.34845253874E+01  0.12374407903E+03  0.12865366222E+03  0.00000000000E+00 0.  1.
         12    1    3    3    0    0 -0.45634043042E+02  0.20175901514E+01  0.14949475102E+03  0.15631768018E+03  0.00000000000E+00 0. -1.
        -13    1    4    4    0    0  0.34216104787E+02  0.10024824304E+01  0.65047164841E+02  0.73504288662E+02  0.00000000000E+00 0.  1.
         13    1    4    4    0    0 -0.56239886812E+02  0.57112815083E+01  0.10950139945E+03  0.12323189557E+03  0.00000000000E+00 0. -1.
          1    1    1    2  501    0  0.32628897178E+02 -0.52468287028E+01  0.19116965129E+02  0.38178953603E+02  0.00000000000E+00 0. -1.
<scales pt_clust_5="13000.00000" pt_clust_6="13000.00000" pt_clust_7="13000.00000" pt_clust_8="13000.00000" pt_clust_9="33.04806"></scales>
<clustering>
<clus scale="   33.048">  2  9  1 -1</clus>
<clus scale="   80.216">  5  6 -1 -1</clus>
<clus scale="   80.286">  1  5  2 -1</clus>
<clus scale="   87.794">  7  8 -1 -1</clus>
<clus scale="   33.048">  2  5  1 -1</clus>
</clustering>
</event>
<event>
 9    2  0.3745229E-005  0.9643413E+02  0.7546771E-02  0.1288004E+00
         -1   -1    0    0    0  501 -0.00000000000E+00  0.00000000000E+00  0.17184020315E+03  0.17184020315E+03  0.00000000000E+00 0.  1.
         21   -1    0    0  501  502  0.00000000000E+00 -0.00000000000E+00 -0.82300403523E+02  0.82300403523E+02  0.00000000000E+00 0.  1.
         23    2    1    2    0    0  0.36428289635E+02 -0.12540970311E+02  0.12853193076E+02  0.90981248194E+02  0.81413062395E+02 0.  0.
         24    2    1    2    0    0 -0.62746028865E+02  0.16876544056E+02  0.28417828647E+02  0.10801141638E+03  0.81467853814E+02 0.  0.
        -13    1    4    4    0    0 -0.44218833265E+02  0.46517613517E+02  0.33972810697E+02  0.72617803942E+02  0.00000000000E+00 0.  1.
         14    1    4    4    0    0 -0.18527195599E+02 -0.29641069461E+02 -0.55549820505E+01  0.35393612434E+02  0.00000000000E+00 0. -1.
        -11    1    3    3    0    0 -0.18416142553E+02 -0.24964644596E+02  0.15512047789E+02  0.34684454917E+02  0.00000000000E+00 0.  1.
         11    1    3    3    0    0  0.54844432188E+02  0.12423674285E+02 -0.26588547127E+01  0.56296793276E+02  0.00000000000E+00 0. -1.
         -2    1    1    2    0  502  0.26317739229E+02 -0.43355737455E+01  0.48268777903E+02  0.55147942103E+02  0.00000000000E+00 0.  1.
<scales pt_clust_5="13000.00000" pt_clust_6="13000.00000" pt_clust_7="13000.00000" pt_clust_8="13000.00000" pt_clust_9="26.67248"></scales>
<clustering>
<clus scale="   26.672">  2  9  1 -1</clus>
<clus scale="   81.413">  7  8 -1 -1</clus>
<clus scale="   81.468">  5  6 -1 -1</clus>
<clus scale="   96.388">  1  7  2 -1</clus>
<clus scale="   26.672">  2  5  1 -1</clus>
</clustering>
</event>
<event>
 9    2  0.3745229E-005  0.1586496E+03  0.7546771E-02  0.1191676E+00
         21   -1    0    0  501  502  0.00000000000E+00  0.00000000000E+00  0.44487632418E+02  0.44487632418E+02  0.00000000000E+00 0. -1.
          2   -1    0    0  502    0 -0.00000000000E+00 -0.00000000000E+00 -0.85862306563E+03  0.85862306563E+03  0.00000000000E+00 0. -1.
         24    2    1    2    0    0  0.32507490330E-01  0.14049228207E+03 -0.55172789834E+03  0.57524980242E+03  0.82283528107E+02 0.  0.
         23    2    1    2    0    0 -0.21653439937E+02 -0.10279727451E+03 -0.13755888002E+03  0.19566571821E+03  0.91249529875E+02 0.  0.
        -11    1    3    3    0    0 -0.19014656124E+02  0.10034211860E+02 -0.28693541796E+02  0.35854733243E+02  0.00000000000E+00 0.  1.
         12    1    3    3    0    0  0.19047163615E+02  0.13045807021E+03 -0.52303435655E+03  0.53939506918E+03  0.00000000000E+00 0. -1.
        -11    1    4    4    0    0  0.34013578156E+02 -0.35627136359E+02 -0.68657755660E+02  0.84499134649E+02  0.00000000000E+00 0.  1.
         11    1    4    4    0    0 -0.55667018094E+02 -0.67170138148E+02 -0.68901124363E+02  0.11116658356E+03  0.00000000000E+00 0. -1.
          1    1    1    2  501    0  0.21620932447E+02 -0.37695007564E+02 -0.12484865485E+03  0.13219517742E+03  0.00000000000E+00 0. -1.
<scales pt_clust_5="13000.00000" pt_clust_6="13000.00000" pt_clust_7="13000.00000" pt_clust_8="13000.00000" pt_clust_9="43.45550"></scales>
<clustering>
<clus scale="   43.455">  1  9  2 -1</clus>
<clus scale="   82.284">  5  6 -1 -1</clus>
<clus scale="   91.250">  7  8 -1 -1</clus>
<clus scale="  153.668">  2  5  1 -1</clus>
<clus scale="   43.455">  1  5  2 -1</clus>
</clustering>
</event>
<event>
 9    2  0.3745229E-005  0.1037021E+03  0.7546771E-02  0.1274952E+00
         21   -1    0    0  501  502  0.00000000000E+00  0.00000000000E+00  0.86127500620E+02  0.86127500620E+02  0.00000000000E+00 0. -1.
          2   -1    0    0  502    0 -0.00000000000E+00 -0.00000000000E+00 -0.20622681401E+03  0.20622681401E+03  0.00000000000E+00 0. -1.
         24    2    1    2    0    0 -0.11893904172E+02 -0.66175149020E+02 -0.11646507352E+03  0.15674476269E+03  0.80524480603E+02 0.  0.
         23    2    1    2    0    0  0.29561743224E+02  0.30630147725E+02 -0.18362583329E+01  0.95875028011E+02  0.85886824016E+02 0.  0.
        -13    1    3    3    0    0  0.34741676946E+02 -0.27105675941E+02 -0.49211117667E+02  0.66056308459E+02  0.00000000000E+00 0.  1.
         14    1    3    3    0    0 -0.46635581118E+02 -0.39069473079E+02 -0.67253955854E+02  0.90688454232E+02  0.00000000000E+00 0. -1.
        -13    1    4    4    0    0 -0.12206077998E+02  0.40385325687E+02 -0.22993817686E+02  0.48048709897E+02  0.00000000000E+00 0.  1.
         13    1    4    4    0    0  0.41767821221E+02 -0.97551779625E+01  0.21157559353E+02  0.47826318115E+02  0.00000000000E+00 0. -1.
          1    1    1    2  501    0 -0.17667839051E+02  0.35545001295E+02 -0.17979815312E+01  0.39734523923E+02  0.00000000000E+00 0. -1.
<scales pt_clust_5="13000.00000" pt_clust_6="13000.00000" pt_clust_7="13000.00000" pt_clust_8="13000.00000" pt_clust_9="39.69382"></scales>
<clustering>
<clus scale="   39.694">  1  9  2 -1</clus>
<clus scale="   80.524">  5  6 -1 -1</clus>
<clus scale="   85.887">  7  8 -1 -1</clus>
<clus scale="   99.306">  2  5  1 -1</clus>
<clus scale="   39.694">  1  5  2 -1</clus>
</clustering>
</event>
<event>
 9    2  0.3745229E-005  0.9653218E+02  0.7546771E-02  0.1296498E+00
          2   -1    0    0  502    0 -0.00000000000E+00  0.00000000000E+00  0.58503969844E+03  0.58503969844E+03  0.00000000000E+00 0. -1.
         21   -1    0    0  501  502  0.00000000000E+00 -0.00000000000E+00 -0.68711504627E+02  0.68711504627E+02  0.00000000000E+00 0. -1.
         24    2    1    2    0    0  0.23668457029E+02 -0.23037474784E+02  0.29870275948E+03  0.30981184834E+03  0.75293570432E+02 0.  0.
         23    2    1    2    0    0 -0.44186887969E+02 -0.14952305886E+02  0.26249029366E+03  0.28167311149E+03  0.90898487074E+02 0.  0.
        -13    1    3    3    0    0  0.25258095261E+02 -0.28458032924E+02  0.60037580303E+02  0.71079828804E+02  0.00000000000E+00 0.  1.
         14    1    3    3    0    0 -0.15896382322E+01  0.54205581405E+01  0.23866517918E+03  0.23873201953E+03  0.00000000000E+00 0. -1.
        -11    1    4    4    0    0 -0.25605900481E+02  0.31108908750E+02  0.18712310503E+03  0.19141181463E+03  0.00000000000E+00 0.  1.
         11    1    4    4    0    0 -0.18580987487E+02 -0.46061214636E+02  0.75367188634E+02  0.90261296868E+02  0.00000000000E+00 0. -1.
          1    1    1    2  501    0  0.20518430939E+02  0.37989780670E+02 -0.44864859329E+02  0.62266243232E+02  0.00000000000E+00 0. -1.
<scales pt_clust_5="13000.00000" pt_clust_6="13000.00000" pt_clust_7="13000.00000" pt_clust_8="13000.00000" pt_clust_9="43.17672"></scales>
<clustering>
<clus scale="   43.177">  2  9  1 -1</clus>
<clus scale="   75.294">  5  6 -1 -1</clus>
<clus scale="   82.006">  1  5  2 -1</clus>
<clus scale="   90.898">  7  8 -1 -1</clus>
<clus scale="   43.177">  2  5  1 -1</clus>
</clustering>
</event>
<event>
 9    2  0.3745229E-005  0.2134139E+03  0.7546771E-02  0.1180223E+00
          2   -1    0    0  502    0 -0.00000000000E+00  0.00000000000E+00  0.10680398126E+04  0.10680398126E+04  0.00000000000E+00 0. -1.
         21   -1    0    0  501  502  0.00000000000E+00 -0.00000000000E+00 -0.11023685089E+03  0.11023685089E+03  0.00000000000E+00 0. -1.
         24    2    1    2    0    0 -0.51788314694E+00 -0.15684906481E+02  0.25788563689E+02  0.85436568700E+02  0.79925419985E+02 0.  0.
         23    2    1    2    0    0  0.18937208049E+03 -0.26722607697E+02  0.86104462369E+03  0.88668235423E+03  0.90729657156E+02 0.  0.
        -11    1    3    3    0    0 -0.38444073379E+02  0.39817129146E+01  0.10361944047E+02  0.40014631076E+02  0.00000000000E+00 0.  1.
         12    1    3    3    0    0  0.37926190232E+02 -0.19666619396E+02  0.15426619641E+02  0.45421937624E+02  0.00000000000E+00 0. -1.
        -13    1    4    4    0    0  0.20857548298E+02 -0.21828597676E+02  0.50880395127E+02  0.59163667954E+02  0.00000000000E+00 0.  1.
         13    1    4    4    0    0  0.16851453219E+03 -0.48940100210E+01  0.81016422856E+03  0.82751868627E+03  0.00000000000E+00 0. -1.
          1    1    1    2  501    0 -0.18885419734E+03  0.42407514178E+02  0.70969774292E+02  0.20615774052E+03  0.00000000000E+00 0. -1.
<scales pt_clust_5="13000.00000" pt_clust_6="13000.00000" pt_clust_7="13000.00000" pt_clust_8="13000.00000" pt_clust_9="193.16733"></scales>
<clustering>
<clus scale="   79.925">  5  6 -1 -1</clus>
<clus scale="   81.452">  1  5  2 -1</clus>
<clus scale="   90.730">  7  8 -1 -1</clus>
<clus scale="  193.167">  2  9  1 -1</clus>
<clus scale="  193.167">  2  5  1 -1</clus>
</clustering>
</event>
<event>
 9    2  0.3745229E-005  0.9894731E+02  0.7546771E-02  0.1288601E+00
         21   -1    0    0  501  502  0.00000000000E+00  0.00000000000E+00  0.61804666226E+02  0.61804666226E+02  0.00000000000E+00 0. -1.
          2   -1    0    0  502    0 -0.00000000000E+00 -0.00000000000E+00 -0.25954051107E+03  0.25954051107E+03  0.00000000000E+00 0. -1.
         23    2    1    2    0    0 -0.27501835777E+02 -0.29858843546E+02 -0.11869291519E+03  0.15552814135E+03  0.91940704401E+02 0.  0.
         24    2    1    2    0    0  0.44994413058E+02 -0.15438244541E+02 -0.69416526759E+02  0.11631467154E+03  0.80297023778E+02 0.  0.
        -11    1    4    4    0    0  0.60250273528E+02  0.14140219741E+01 -0.22771595030E+02  0.64425464365E+02  0.00000000000E+00 0.  1.
         12    1    4    4    0    0 -0.15255860471E+02 -0.16852266515E+02 -0.46644931730E+02  0.51889207177E+02  0.00000000000E+00 0. -1.
        -11    1    3    3    0    0 -0.33127349969E+02 -0.55365411591E+01 -0.12528429318E+03  0.12970824462E+03  0.00000000000E+00 0.  1.
         11    1    3    3    0    0  0.56255141918E+01 -0.24322302387E+02  0.65913779908E+01  0.25819896730E+02  0.00000000000E+00 0. -1.
          1    1    1    2  501    0 -0.17492577280E+02  0.45297088087E+02 -0.96264028940E+01  0.49502364406E+02  0.00000000000E+00 0. -1.
<scales pt_clust_5="13000.00000" pt_clust_6="13000.00000" pt_clust_7="13000.00000" pt_clust_8="13000.00000" pt_clust_9="48.55735"></scales>
<clustering>
<clus scale="   48.557">  1  9  2 -1</clus>
<clus scale="   80.297">  5  6 -1 -1</clus>
<clus scale="   88.233">  1  5  2 -1</clus>
<clus scale="   91.941">  7  8 -1 -1</clus>
<clus scale="   48.557">  1  5  2 -1</clus>
</clustering>
</event>
<event>
 9    2  0.3745229E-005  0.1031125E+03  0.7546771E-02  0.1281434E+00
         -3   -1    0    0    0  501 -0.00000000000E+00  0.00000000000E+00  0.28047473286E+03  0.28047473286E+03  0.00000000000E+00 0.  1.
         21   -1    0    0  501  502  0.00000000000E+00 -0.00000000000E+00 -0.11442014723E+03  0.11442014723E+03  0.00000000000E+00 0.  1.
         24    2    1    2    0    0  0.46891214304E+01  0.42704362227E+02  0.17389209275E+03  0.19622708819E+03  0.80130891707E+02 0.  0.
         23    2    1    2    0    0  0.23076540868E+02 -0.30272926773E+02  0.63792156483E+02  0.12084567872E+03  0.95316640746E+02 0.  0.
        -13    1    3    3    0    0  0.37366173632E+02  0.16501677427E+02  0.12673136287E+03  0.13315169779E+03  0.00000000000E+00 0.  1.
         14    1    3    3    0    0 -0.32677052202E+02  0.26202684800E+02  0.47160729886E+02  0.63075390405E+02  0.00000000000E+00 0. -1.
        -13    1    4    4    0    0  0.53174267475E+02 -0.21679713677E+02  0.95390228734E+01  0.58210872386E+02  0.00000000000E+00 0.  1.
         13    1    4    4    0    0 -0.30097726606E+02 -0.85932130954E+01  0.54253133610E+02  0.62634806335E+02  0.00000000000E+00 0. -1.
         -4    1    1    2    0  502 -0.27765662299E+02 -0.12431435455E+02 -0.71629663605E+02  0.77822113172E+02  0.00000000000E+00 0.  1.
<scales pt_clust_5="13000.00000" pt_clust_6="13000.00000" pt_clust_7="13000.00000" pt_clust_8="13000.00000" pt_clust_9="30.42158"></scales>
<clustering>
<clus scale="   30.422">  2  9  1 -1</clus>
<clus scale="   80.131">  5  6 -1 -1</clus>
<clus scale="   89.263">  1  5  2 -1</clus>
<clus scale="   95.317">  7  8 -1 -1</clus>
<clus scale="   30.422">  2  5  1 -1</clus>
</clustering>
</event>
<event>
 9    2  0.3745229E-005  0.1227012E+03  0.7546771E-02  0.1241108E+00
         21   -1    0    0  501  502  0.00000000000E+00  0.00000000000E+00  0.34437086379E+03  0.34437086379E+03  0.00000000000E+00 0.  1.
          2   -1    0    0  502    0 -0.00000000000E+00 -0.00000000000E+00 -0.31794207413E+03  0.31794207413E+03  0.00000000000E+00 0. -1.
         23    2    1    2    0    0  0.10923767861E+01  0.84433603770E+02 -0.28868318842E+03  0.31425289451E+03  0.91031157852E+02 0.  0.
         24    2    1    2    0    0  0.16160724795E+02 -0.53160272428E+02  0.15783138202E+03  0.18677496455E+03  0.82987701744E+02 0.  0.
        -11    1    4    4    0    0  0.16857477961E+02 -0.45676231759E+02  0.16755470265E+03  0.17448516008E+03  0.00000000000E+00 0.  1.
         12    1    4    4    0    0 -0.69675316597E+00 -0.74840406691E+01 -0.97233206267E+01  0.12289804462E+02  0.00000000000E+00 0. -1.
        -13    1    3    3    0    0 -0.19802754126E+02 -0.10507639977E+02 -0.94147728246E+02  0.96779927168E+02  0.00000000000E+00 0. -1.
         13    1    3    3    0    0  0.20895130912E+02  0.94941243746E+02 -0.19453546018E+03  0.21747296735E+03  0.00000000000E+00 0.  1.
          1    1    1    2  501    0 -0.17253101581E+02 -0.31273331342E+02  0.15728059606E+03  0.16128507887E+03  0.00000000000E+00 0. -1.
<scales pt_clust_5="13000.00000" pt_clust_6="13000.00000" pt_clust_7="13000.00000" pt_clust_8="13000.00000" pt_clust_9="35.71681"></scales>
<clustering>
<clus scale="   35.717">  1  9  2 -1</clus>
<clus scale="   82.988">  5  6 -1 -1</clus>
<clus scale="   91.031">  7  8 -1 -1</clus>
<clus scale="  116.858">  1  5  2 -1</clus>
<clus scale="   35.717">  1  5  2 -1</clus>
</clustering>
</event>
<event>
 9    2  0.3745229E-005  0.2132810E+03  0.7546771E-02  0.1139962E+00
         -3   -1    0    0    0  501 -0.00000000000E+00  0.00000000000E+00  0.49417247698E+03  0.49417247698E+03  0.00000000000E+00 0.  1.
         21   -1    0    0  501  502  0.00000000000E+00 -0.00000000000E+00 -0.42590555628E+03  0.42590555628E+03  0.00000000000E+00 0.  1.
         24    2    1    2    0    0  0.18733910154E+03  0.54093921470E+02  0.41218748283E+03  0.46301485710E+03  0.80387471560E+02 0.  0.
         23    2    1    2    0    0 -0.15469779323E+03 -0.83972416205E+02 -0.12752690152E+03  0.23619127707E+03  0.92414473099E+02 0.  0.
        -11    1    3    3    0    0  0.19360783548E+03  0.43755938655E+02  0.39402413535E+03  0.44119564296E+03  0.00000000000E+00 0.  1.
         12    1    3    3    0    0 -0.62687339402E+01  0.10337982815E+02  0.18163347478E+02  0.21819214136E+02  0.00000000000E+00 0. -1.
        -13    1    4    4    0    0  0.78000147475E+01 -0.22397919616E+02 -0.70600562931E+01  0.24745735553E+02  0.00000000000E+00 0. -1.
         13    1    4    4    0    0 -0.16249780798E+03 -0.61574496589E+02 -0.12046684523E+03  0.21144554152E+03  0.00000000000E+00 0.  1.
         -4    1    1    2    0  502 -0.32641308312E+02  0.29878494735E+02 -0.21639366061E+03  0.22087189909E+03  0.00000000000E+00 0.  1.
<scales pt_clust_5="13000.00000" pt_clust_6="13000.00000" pt_clust_7="13000.00000" pt_clust_8="13000.00000" pt_clust_9="44.25132"></scales>
<clustering>
<clus scale="   44.251">  2  9  1 -1</clus>
<clus scale="   80.387">  5  6 -1 -1</clus>
<clus scale="   92.414">  7  8 -1 -1</clus>
<clus scale="  208.352">  1  5  2 -1</clus>
<clus scale="   44.251">  2  5  1 -1</clus>
</clustering>
</event>
<event>
 9    2  0.3745229E-005  0.1145942E+03  0.7546771E-02  0.1256252E+00
          2   -1    0    0  502    0 -0.00000000000E+00  0.00000000000E+00  0.16451065306E+03  0.16451065306E+03  0.00000000000E+00 0. -1.
         21   -1    0    0  501  502  0.00000000000E+00 -0.00000000000E+00 -0.12236683304E+03  0.12236683304E+03  0.00000000000E+00 0.  1.
         24    2    1    2    0    0  0.99544810294E+01  0.65114076132E+02  0.71502195706E+02  0.12632518918E+03  0.80663218560E+02 0.  0.
         23    2    1    2    0    0  0.20195881256E+02 -0.78924433387E+02 -0.33364816796E+02  0.12714837673E+03  0.91741805624E+02 0.  0.
        -11    1    3    3    0    0 -0.36256533937E+01  0.81851977274E+02  0.50583483420E+02  0.96289045801E+02  0.00000000000E+00 0.  1.
         12    1    3    3    0    0  0.13580134423E+02 -0.16737901143E+02  0.20918712285E+02  0.30036143382E+02  0.00000000000E+00 0. -1.
        -13    1    4    4    0    0  0.36237537689E+02  0.54652990606E+01 -0.12818071802E+02  0.38824368589E+02  0.00000000000E+00 0.  1.
         13    1    4    4    0    0 -0.16041656433E+02 -0.84389732448E+02 -0.20546744994E+02  0.88324008138E+02  0.00000000000E+00 0. -1.
          1    1    1    2  501    0 -0.30150362286E+02  0.13810357255E+02  0.40064411176E+01  0.33403920188E+02  0.00000000000E+00 0. -1.
<scales pt_clust_5="13000.00000" pt_clust_6="13000.00000" pt_clust_7="13000.00000" pt_clust_8="13000.00000" pt_clust_9="33.16279"></scales>
<clustering>
<clus scale="   33.163">  2  9  1 -1</clus>
<clus scale="   80.663">  5  6 -1 -1</clus>
<clus scale="   91.742">  7  8 -1 -1</clus>
<clus scale="  105.933">  1  5  2 -1</clus>
<clus scale="   33.163">  2  5  1 -1</clus>
</clustering>
</event>
<event>
 9    2  0.3745229E-005  0.1011919E+03  0.7546771E-02  0.1283354E+00
          2   -1    0    0  502    0 -0.00000000000E+00  0.00000000000E+00  0.41031916169E+03  0.41031916169E+03  0.00000000000E+00 0. -1.
         21   -1    0    0  501  502  0.00000000000E+00 -0.00000000000E+00 -0.82128925561E+02  0.82128925561E+02  0.00000000000E+00 0.  1.
         24    2    1    2    0    0  0.39619868799E+02  0.72611588337E+01  0.32097103551E+03  0.33343575655E+03  0.80836499666E+02 0.  0.
         23    2    1    2    0    0 -0.54672118167E+02  0.16517294893E+02  0.40268115720E+02  0.11560477535E+03  0.92092786925E+02 0.  0.
        -11    1    3    3    0    0  0.64676023737E+01  0.34835398208E+02  0.66622623593E+02  0.75457993766E+02  0.00000000000E+00 0.  1.
         12    1    3    3    0    0  0.33152266425E+02 -0.27574239375E+02  0.25434841191E+03  0.25797776278E+03  0.00000000000E+00 0. -1.
        -11    1    4    4    0    0 -0.76347789695E+02 -0.24902389981E+01  0.16287353576E+02  0.78105468234E+02  0.00000000000E+00 0.  1.
         11    1    4    4    0    0  0.21675671529E+02  0.19007533891E+02  0.23980762144E+02  0.37499307111E+02  0.00000000000E+00 0. -1.
          1    1    1    2  501    0  0.15052249367E+02 -0.23778453726E+02 -0.33048915101E+02  0.43407555356E+02  0.00000000000E+00 0. -1.
<scales pt_clust_5="13000.00000" pt_clust_6="13000.00000" pt_clust_7="13000.00000" pt_clust_8="13000.00000" pt_clust_9="28.14223"></scales>
<clustering>
<clus scale="   28.142">  2  9  1 -1</clus>
<clus scale="   80.836">  5  6 -1 -1</clus>
<clus scale="   91.067">  1  5  2 -1</clus>
<clus scale="   92.093">  7  8 -1 -1</clus>
<clus scale="   28.142">  2  5  1 -1</clus>
</clustering>
</event>
<event>
 9    2  0.3745229E-005  0.9465143E+02  0.7546771E-02  0.1298427E+00
         21   -1    0    0  501  502  0.00000000000E+00  0.00000000000E+00  0.58982539693E+03  0.58982539693E+03  0.00000000000E+00 0.  1.
         -1   -1    0    0    0  501 -0.00000000000E+00 -0.00000000000E+00 -0.35512426721E+02  0.35512426721E+02  0.00000000000E+00 0.  1.
         23    2    1    2    0    0 -0.13200376765E+02  0.16103769729E+01  0.89916975678E+02  0.12775568525E+03  0.89775327001E+02 0.  0.
         24    2    1    2    0    0  0.45492132976E+02 -0.29731219447E+02  0.13436917961E+03  0.16478905274E+03  0.78402014640E+02 0.  0.
        -11    1    4    4    0    0  0.56853314143E+02 -0.10333218643E+02  0.46737959373E+02  0.74320330885E+02  0.00000000000E+00 0.  1.
         12    1    4    4    0    0 -0.11361181168E+02 -0.19398000805E+02  0.87631220239E+02  0.90468721851E+02  0.00000000000E+00 0. -1.
        -13    1    3    3    0    0 -0.42798145530E+02 -0.81301669514E+01  0.85930603527E+02  0.96342355680E+02  0.00000000000E+00 0.  1.
         13    1    3    3    0    0  0.29597768765E+02  0.97405439243E+01  0.39863721516E+01  0.31413329571E+02  0.00000000000E+00 0. -1.
         -2    1    1    2    0  502 -0.32291756210E+02  0.28120842474E+02  0.33002681491E+03  0.33279308566E+03  0.00000000000E+00 0.  1.
<scales pt_clust_5="13000.00000" pt_clust_6="13000.00000" pt_clust_7="13000.00000" pt_clust_8="13000.00000" pt_clust_9="42.81985"></scales>
<clustering>
<clus scale="   42.820">  1  9  2 -1</clus>
<clus scale="   78.402">  5  6 -1 -1</clus>
<clus scale="   83.941">  1  5  2 -1</clus>
<clus scale="   89.775">  7  8 -1 -1</clus>
<clus scale="   42.820">  1  5  2 -1</clus>
</clustering>
</event>
<event>
 9    2  0.3745229E-005  0.1753606E+03  0.7546771E-02  0.1173686E+00
          2   -1    0    0  502    0 -0.00000000000E+00  0.00000000000E+00  0.11925889491E+04  0.11925889491E+04  0.00000000000E+00 0. -1.
         21   -1    0    0  501  502  0.00000000000E+00 -0.00000000000E+00 -0.41020028342E+02  0.41020028342E+02  0.00000000000E+00 0.  1.
         23    2    1    2    0    0 -0.64814755741E+02  0.15752182178E+03  0.78943196482E+03  0.81263907600E+03  0.90362402897E+02 0.  0.
         24    2    1    2    0    0  0.20355877386E+02 -0.10889784472E+03  0.17128656120E+03  0.21906706298E+03  0.79863569320E+02 0.  0.
        -13    1    4    4    0    0  0.43730753120E+02 -0.48343795890E+02  0.52489410383E+02  0.83693724806E+02  0.00000000000E+00 0.  1.
         14    1    4    4    0    0 -0.23374875734E+02 -0.60554048834E+02  0.11879715082E+03  0.13537333817E+03  0.00000000000E+00 0. -1.
        -13    1    3    3    0    0 -0.65640619514E+02  0.64742054720E+02  0.27888243520E+03  0.29372714761E+03  0.00000000000E+00 0. -1.
         13    1    3    3    0    0  0.82586377321E+00  0.92779767062E+02  0.51054952962E+03  0.51891192839E+03  0.00000000000E+00 0.  1.
          1    1    1    2  501    0  0.44458878355E+02 -0.48623977058E+02  0.19085039476E+03  0.20190283849E+03  0.00000000000E+00 0. -1.
<scales pt_clust_5="13000.00000" pt_clust_6="13000.00000" pt_clust_7="13000.00000" pt_clust_8="13000.00000" pt_clust_9="65.88541"></scales>
<clustering>
<clus scale="   65.885">  2  9  1 -1</clus>
<clus scale="   79.864">  5  6 -1 -1</clus>
<clus scale="   90.362">  7  8 -1 -1</clus>
<clus scale="  170.189">  2  5  1 -1</clus>
<clus scale="   65.885">  2  5  1 -1</clus>
</clustering>
</event>
<event>
 9    2  0.3745229E-005  0.9216133E+02  0.7546771E-02  0.1305220E+00
         21   -1    0    0  501  502  0.00000000000E+00  0.00000000000E+00  0.13319126859E+02  0.13319126859E+02  0.00000000000E+00 0. -1.
          2   -1    0    0  502    0 -0.00000000000E+00 -0.00000000000E+00 -0.11668180248E+04  0.11668180248E+04  0.00000000000E+00 0. -1.
         24    2    1    2    0    0 -0.13455023617E+02  0.67793181128E+01 -0.39425729538E+03  0.40249944086E+03  0.79624042338E+02 0.  0.
         23    2    1    2    0    0 -0.46442868564E+02  0.11910938882E+02 -0.41230272925E+03  0.42507046188E+03  0.91610842765E+02 0.  0.
        -13    1    3    3    0    0  0.20345656224E+02  0.27224782921E+01 -0.28292178453E+02  0.34954327011E+02  0.00000000000E+00 0.  1.
         14    1    3    3    0    0 -0.33800679841E+02  0.40568398207E+01 -0.36596511692E+03  0.36754511385E+03  0.00000000000E+00 0. -1.
        -13    1    4    4    0    0 -0.48163527611E+02  0.44383013924E+02 -0.33264229968E+03  0.33902872570E+03  0.00000000000E+00 0. -1.
         13    1    4    4    0    0  0.17206590464E+01 -0.32472075042E+02 -0.79660429570E+02  0.86041736177E+02  0.00000000000E+00 0.  1.
          1    1    1    2  501    0  0.59897892181E+02 -0.18690256995E+02 -0.34693887331E+03  0.35256724892E+03  0.00000000000E+00 0. -1.
<scales pt_clust_5="13000.00000" pt_clust_6="13000.00000" pt_clust_7="13000.00000" pt_clust_8="13000.00000" pt_clust_9="62.74621"></scales>
<clustering>
<clus scale="   62.746">  1  9  2 -1</clus>
<clus scale="   79.624">  5  6 -1 -1</clus>
<clus scale="   80.257">  2  5  1 -1</clus>
<clus scale="   91.611">  7  8 -1 -1</clus>
<clus scale="   62.746">  1  5  2 -1</clus>
</clustering>
</event>
<event>
 9    2  0.3745229E-005  0.1046595E+03  0.7546771E-02  0.1273888E+00
         21   -1    0    0  501  502  0.00000000000E+00  0.00000000000E+00  0.66181973985E+02  0.66181973985E+02  0.00000000000E+00 0.  1.
          2   -1    0    0  502    0 -0.00000000000E+00 -0.00000000000E+00 -0.49224356236E+03  0.49224356236E+03  0.00000000000E+00 0. -1.
         23    2    1    2    0    0 -0.52957936193E+02 -0.28346133730E+02 -0.98831808052E+02  0.14713381523E+03  0.90953762976E+02 0.  0.
         24    2    1    2    0    0  0.46068185611E+02 -0.70011642108E+02 -0.70679045220E+02  0.13644630927E+03  0.81229059596E+02 0.  0.
        -13    1    4    4    0    0 -0.57465569219E+01 -0.47426195663E+02 -0.24363501588E+01  0.47835162314E+02  0.00000000000E+00 0.  1.
         14    1    4    4    0    0  0.51814742532E+02 -0.22585446445E+02 -0.68242695061E+02  0.88611146952E+02  0.00000000000E+00 0. -1.
        -11    1    3    3    0    0  0.13516855845E+02 -0.17902286499E+02  0.53957855487E+01  0.23071882357E+02  0.00000000000E+00 0.  1.
         11    1    3    3    0    0 -0.66474792038E+02 -0.10443847231E+02 -0.10422759360E+03  0.12406193288E+03  0.00000000000E+00 0. -1.
          1    1    1    2  501    0  0.68897505829E+01  0.98357775838E+02 -0.25655073510E+03  0.27484541184E+03  0.00000000000E+00 0. -1.
<scales pt_clust_5="13000.00000" pt_clust_6="13000.00000" pt_clust_7="13000.00000" pt_clust_8="13000.00000" pt_clust_9="98.59884"></scales>
<clustering>
<clus scale="   81.229">  5  6 -1 -1</clus>
<clus scale="   90.954">  7  8 -1 -1</clus>
<clus scale="   98.599">  1  9  2 -1</clus>
<clus scale="   98.599">  1  5  2 -1</clus>
<clus scale="   98.599">  1  5  2 -1</clus>
</clustering>
</event>
<event>
 9    2  0.3745229E-005  0.1202061E+03  0.7546771E-02  0.1245618E+00
          2   -1    0    0  502    0 -0.00000000000E+00  0.00000000000E+00  0.51697992174E+02  0.51697992174E+02  0.00000000000E+00 0. -1.
         21   -1    0    0  501  502  0.00000000000E+00 -0.00000000000E+00 -0.33586049068E+03  0.33586049068E+03  0.00000000000E+00 0. -1.
         24    2    1    2    0    0 -0.19790046997E+02  0.72386664185E+02 -0.13054994637E+03  0.17141110683E+03  0.81896299886E+02 0.  0.
         23    2    1    2    0    0  0.45630873990E+02 -0.70802491276E+02 -0.13955244672E+03  0.18668647808E+03  0.91004320119E+02 0.  0.
        -11    1    3    3    0    0  0.23679210278E+02  0.34502525800E+01 -0.10083405974E+02  0.25966985159E+02  0.00000000000E+00 0.  1.
         12    1    3    3    0    0 -0.43469257275E+02  0.68936411605E+02 -0.12046654040E+03  0.14544412167E+03  0.00000000000E+00 0. -1.
        -11    1    4    4    0    0  0.25138021363E+02 -0.75941892782E+02 -0.49237095873E+02  0.93932863299E+02  0.00000000000E+00 0. -1.
         11    1    4    4    0    0  0.20492852627E+02  0.51394015067E+01 -0.90315350842E+02  0.92753614778E+02  0.00000000000E+00 0.  1.
          1    1    1    2  501    0 -0.25840826993E+02 -0.15841729097E+01 -0.14060105418E+02  0.29460897947E+02  0.00000000000E+00 0. -1.
<scales pt_clust_5="13000.00000" pt_clust_6="13000.00000" pt_clust_7="13000.00000" pt_clust_8="13000.00000" pt_clust_9="25.88935"></scales>
<clustering>
<clus scale="   25.889">  2  9  1 -1</clus>
<clus scale="   81.896">  5  6 -1 -1</clus>
<clus scale="   91.004">  7  8 -1 -1</clus>
<clus scale="  113.467">  1  5  2 -1</clus>
<clus scale="   25.889">  2  5  1 -1</clus>
</clustering>
</event>
<event>
 9    2  0.3745229E-005  0.9201764E+02  0.7546771E-02  0.1304093E+00
         21   -1    0    0  501  502  0.00000000000E+00  0.00000000000E+00  0.10838830223E+03  0.10838830223E+03  0.00000000000E+00 0. -1.
          2   -1    0    0  502    0 -0.00000000000E+00 -0.00000000000E+00 -0.30659701676E+03  0.30659701676E+03  0.00000000000E+00 0. -1.
         23    2    1    2    0    0  0.14919311805E+02  0.54916191977E+01 -0.26086899247E+03  0.27675409419E+03  0.91035452836E+02 0.  0.
         24    2    1    2    0    0  0.61668832463E+01 -0.10392185667E+02  0.11795359138E+02  0.82951181946E+02  0.81214162048E+02 0.  0.
        -11    1    4    4    0    0 -0.99142341450E+01  0.28710307418E+02  0.24258733869E+02  0.38872354696E+02  0.00000000000E+00 0.  1.
         12    1    4    4    0    0  0.16081117391E+02 -0.39102493085E+02 -0.12463374731E+02  0.44078827250E+02  0.00000000000E+00 0. -1.
        -13    1    3    3    0    0 -0.31596151119E+02 -0.21059774815E+02 -0.89845134348E+02  0.97539628085E+02  0.00000000000E+00 0.  1.
         13    1    3    3    0    0  0.46515462924E+02  0.26551394012E+02 -0.17102385812E+03  0.17921446610E+03  0.00000000000E+00 0. -1.
          1    1    1    2  501    0 -0.21086195051E+02  0.49005664696E+01  0.50864918804E+02  0.55280042859E+02  0.00000000000E+00 0. -1.
<scales pt_clust_5="13000.00000" pt_clust_6="13000.00000" pt_clust_7="13000.00000" pt_clust_8="13000.00000" pt_clust_9="21.64817"></scales>
<clustering>
<clus scale="   21.648">  1  9  2 -1</clus>
<clus scale="   81.214">  5  6 -1 -1</clus>
<clus scale="   82.314">  1  5  2 -1</clus>
<clus scale="   91.035">  7  8 -1 -1</clus>
<clus scale="   21.648">  1  5  2 -1</clus>
</clustering>
</event>
<event>
 9    2  0.3745229E-005  0.9033378E+02  0.7546771E-02  0.1307331E+00
         21   -1    0    0  501  502  0.00000000000E+00  0.00000000000E+00  0.47527010692E+02  0.47527010692E+02  0.00000000000E+00 0.  1.
         -1   -1    0    0    0  501 -0.00000000000E+00 -0.00000000000E+00 -0.29645697484E+03  0.29645697484E+03  0.00000000000E+00 0.  1.
         24    2    1    2    0    0 -0.12470807486E+02 -0.76043796728E+01 -0.16984857860E+03  0.18820176987E+03  0.79737186431E+02 0.  0.
         23    2    1    2    0    0  0.38778929519E+02  0.31242809119E+01 -0.31959187392E+02  0.10162789793E+03  0.88279518992E+02 0.  0.
        -13    1    3    3    0    0  0.24855825775E+02 -0.28789443766E+02 -0.84698343584E+02  0.92846397632E+02  0.00000000000E+00 0.  1.
         14    1    3    3    0    0 -0.37326633261E+02  0.21185064094E+02 -0.85150235020E+02  0.95355372241E+02  0.00000000000E+00 0. -1.
        -13    1    4    4    0    0  0.27796556783E+02 -0.39735956521E+02 -0.26695741297E+01  0.48566670008E+02  0.00000000000E+00 0. -1.
         13    1    4    4    0    0  0.10982372736E+02  0.42860237433E+02 -0.29289613262E+02  0.53061227924E+02  0.00000000000E+00 0.  1.
         -2    1    1    2    0  502 -0.26308122034E+02  0.44800987608E+01 -0.47122198154E+02  0.54154317729E+02  0.00000000000E+00 0.  1.
<scales pt_clust_5="13000.00000" pt_clust_6="13000.00000" pt_clust_7="13000.00000" pt_clust_8="13000.00000" pt_clust_9="26.68687"></scales>
<clustering>
<clus scale="   26.687">  1  9  2 -1</clus>
<clus scale="   79.737">  5  6 -1 -1</clus>
<clus scale="   82.006">  2  5  1 -1</clus>
<clus scale="   88.280">  7  8 -1 -1</clus>
<clus scale="   26.687">  1  5  2 -1</clus>
</clustering>
</event>
<event>
 9    2  0.3745229E-005  0.1218053E+03  0.7546771E-02  0.1259493E+00
         21   -1    0    0  501  502  0.00000000000E+00  0.00000000000E+00  0.45487517578E+02  0.45487517578E+02  0.00000000000E+00 0. -1.
          2   -1    0    0  502    0 -0.00000000000E+00 -0.00000000000E+00 -0.45739067997E+03  0.45739067997E+03  0.00000000000E+00 0. -1.
         24    2    1    2    0    0  0.12681371127E+02  0.16094897422E+02 -0.10119316736E+03  0.13071872102E+03  0.80171466300E+02 0.  0.
         23    2    1    2    0    0  0.71652343007E+02 -0.14939205882E+01 -0.21017549013E+03  0.24012709209E+03  0.91383771242E+02 0.  0.
        -13    1    3    3    0    0 -0.13487202811E+02 -0.21466428959E+02 -0.74966165506E+01  0.26436933854E+02  0.00000000000E+00 0.  1.
         14    1    3    3    0    0  0.26168573938E+02  0.37561326381E+02 -0.93696550809E+02  0.10428178717E+03  0.00000000000E+00 0. -1.
        -11    1    4    4    0    0  0.22821728436E+02  0.29798211838E+02 -0.15706181779E+03  0.16148430055E+03  0.00000000000E+00 0.  1.
         11    1    4    4    0    0  0.48830614571E+02 -0.31292132426E+02 -0.53113672341E+02  0.78642791537E+02  0.00000000000E+00 0. -1.
          1    1    1    2  501    0 -0.84333714135E+02 -0.14600976833E+02 -0.10053450490E+03  0.13203238444E+03  0.00000000000E+00 0. -1.
<scales pt_clust_5="13000.00000" pt_clust_6="13000.00000" pt_clust_7="13000.00000" pt_clust_8="13000.00000" pt_clust_9="80.53279"></scales>
<clustering>
<clus scale="   80.171">  5  6 -1 -1</clus>
<clus scale="   82.749">  2  5  1 -1</clus>
<clus scale="   80.533">  1  9  2 -1</clus>
<clus scale="   91.384">  7  8 -1 -1</clus>
<clus scale="   80.533">  1  5  2 -1</clus>
</clustering>
</event>
<event>
 9    2  0.3745229E-005  0.1233952E+03  0.7546771E-02  0.1241044E+00
          2   -1    0    0  502    0 -0.00000000000E+00  0.00000000000E+00  0.88913062399E+03  0.88913062399E+03  0.00000000000E+00 0. -1.
         21   -1    0    0  501  502  0.00000000000E+00 -0.00000000000E+00 -0.62645265592E+02  0.62645265592E+02  0.00000000000E+00 0.  1.
         24    2    1    2    0    0 -0.72974347369E+02 -0.30270130400E+02  0.22246183341E+03  0.24942330950E+03  0.80505799980E+02 0.  0.
         23    2    1    2    0    0  0.10692057718E+03 -0.32449608440E+02  0.65096682403E+02  0.15872747597E+03  0.92042634991E+02 0.  0.
        -11    1    3    3    0    0 -0.11575207652E+02 -0.38508112717E+02  0.39940592137E+02  0.56675489212E+02  0.00000000000E+00 0.  1.
         12    1    3    3    0    0 -0.61399139717E+02  0.82379823166E+01  0.18252124127E+03  0.19274782029E+03  0.00000000000E+00 0. -1.
        -11    1    4    4    0    0  0.75899763006E+02 -0.63482024482E+02  0.56734855672E+02  0.11405956911E+03  0.00000000000E+00 0.  1.
         11    1    4    4    0    0  0.31020814173E+02  0.31032416042E+02  0.83618267308E+01  0.44667906865E+02  0.00000000000E+00 0. -1.
          1    1    1    2  501    0 -0.33946229811E+02  0.62719738840E+02  0.53892684259E+03  0.54362510411E+03  0.00000000000E+00 0. -1.
<scales pt_clust_5="13000.00000" pt_clust_6="13000.00000" pt_clust_7="13000.00000" pt_clust_8="13000.00000" pt_clust_9="71.31702"></scales>
<clustering>
<clus scale="   71.317">  2  9  1 -1</clus>
<clus scale="   80.506">  5  6 -1 -1</clus>
<clus scale="   92.043">  7  8 -1 -1</clus>
<clus scale="  115.047">  1  5  2 -1</clus>
<clus scale="   71.317">  2  5  1 -1</clus>
</clustering>
</event>
<event>
 9    2  0.3745229E-005  0.1093815E+03  0.7546771E-02  0.1264976E+00
          2   -1    0    0  502    0 -0.00000000000E+00  0.00000000000E+00  0.18653367805E+03  0.18653367805E+03  0.00000000000E+00 0. -1.
         21   -1    0    0  501  502  0.00000000000E+00 -0.00000000000E+00 -0.18833955567E+03  0.18833955567E+03  0.00000000000E+00 0. -1.
         23    2    1    2    0    0 -0.71731220378E+02  0.76465758182E+01  0.62260026576E+02  0.13191369003E+03  0.91219913445E+02 0.  0.
         24    2    1    2    0    0  0.67207075635E+01 -0.87067785154E+02  0.37566265733E+01  0.11993925695E+03  0.82130055353E+02 0.  0.
        -13    1    4    4    0    0  0.20881673873E+02  0.11889900642E+00  0.21361625525E+02  0.29872687957E+02  0.00000000000E+00 0.  1.
         14    1    4    4    0    0 -0.14160966309E+02 -0.87186684161E+02 -0.17604998951E+02  0.90066568991E+02  0.00000000000E+00 0. -1.
        -11    1    3    3    0    0 -0.18302888350E+02  0.39664553994E+02 -0.22737341254E+00  0.43684370937E+02  0.00000000000E+00 0.  1.
         11    1    3    3    0    0 -0.53428332028E+02 -0.32017978176E+02  0.62487399988E+02  0.88229319090E+02  0.00000000000E+00 0. -1.
          1    1    1    2  501    0  0.65010512814E+02  0.79421209336E+02 -0.67822530770E+02  0.12302028674E+03  0.00000000000E+00 0. -1.
<scales pt_clust_5="13000.00000" pt_clust_6="13000.00000" pt_clust_7="13000.00000" pt_clust_8="13000.00000" pt_clust_9="102.63574"></scales>
<clustering>
<clus scale="   82.130">  5  6 -1 -1</clus>
<clus scale="   91.220">  7  8 -1 -1</clus>
<clus scale="  102.636">  2  9  1 -1</clus>
<clus scale="  102.636">  2  5  1 -1</clus>
<clus scale="  102.636">  2  5  1 -1</clus>
</clustering>
</event>
<event>
 9    2  0.3745229E-005  0.1212620E+03  0.7546771E-02  0.1243606E+00
          2   -1    0    0  502    0 -0.00000000000E+00  0.00000000000E+00  0.36138284668E+03  0.36138284668E+03  0.00000000000E+00 0. -1.
         21   -1    0    0  501  502  0.00000000000E+00 -0.00000000000E+00 -0.48772576866E+02  0.48772576866E+02  0.00000000000E+00 0. -1.
         23    2    1    2    0    0  0.19372159907E+02 -0.83572094541E+02  0.15374965568E+03  0.19626802709E+03  0.86732959523E+02 0.  0.
         24    2    1    2    0    0  0.93840462173E+00  0.84809736466E+02  0.10322741629E+03  0.15464971005E+03  0.77891343184E+02 0.  0.
        -11    1    4    4    0    0 -0.34607247453E+02  0.20005165075E+02  0.25631876006E+02  0.47485379576E+02  0.00000000000E+00 0.  1.
         12    1    4    4    0    0  0.35545652075E+02  0.64804571391E+02  0.77595540282E+02  0.10716433048E+03  0.00000000000E+00 0. -1.
        -11    1    3    3    0    0  0.49306478435E+02 -0.44051441386E+02  0.11759254038E+03  0.13490612980E+03  0.00000000000E+00 0.  1.
         11    1    3    3    0    0 -0.29934318528E+02 -0.39520653156E+02  0.36157115300E+02  0.61361897285E+02  0.00000000000E+00 0. -1.
          1    1    1    2  501    0 -0.20310564529E+02 -0.12376419242E+01  0.55633197845E+02  0.59237686413E+02  0.00000000000E+00 0. -1.
<scales pt_clust_5="13000.00000" pt_clust_6="13000.00000" pt_clust_7="13000.00000" pt_clust_8="13000.00000" pt_clust_9="20.34825"></scales>
<clustering>
<clus scale="   20.348">  2  9  1 -1</clus>
<clus scale="   77.891">  5  6 -1 -1</clus>
<clus scale="   86.733">  7  8 -1 -1</clus>
<clus scale="  115.104">  2  5  1 -1</clus>
<clus scale="   20.348">  2  5  1 -1</clus>
</clustering>
</event>
<event>
 9    2  0.3745229E-005  0.1421701E+03  0.7546771E-02  0.1212098E+00
         21   -1    0    0  501  502  0.00000000000E+00  0.00000000000E+00  0.86438508186E+02  0.86438508186E+02  0.00000000000E+00 0. -1.
          2   -1    0    0  502    0 -0.00000000000E+00 -0.00000000000E+00 -0.59049304250E+03  0.59049304250E+03  0.00000000000E+00 0. -1.
         24    2    1    2    0    0  0.12877686063E+03  0.16047653948E+02 -0.28540956557E+03  0.32407521409E+03  0.82006812155E+02 0.  0.
         23    2    1    2    0    0 -0.38847886318E+02 -0.94640907646E+02 -0.47826153755E+02  0.14442604248E+03  0.90030445369E+02 0.  0.
        -13    1    3    3    0    0  0.81815676051E+01  0.27937009195E+02 -0.85340273905E+02  0.90168602525E+02  0.00000000000E+00 0.  1.
         14    1    3    3    0    0  0.12059529302E+03 -0.11889355246E+02 -0.20006929167E+03  0.23390661157E+03  0.00000000000E+00 0. -1.
        -11    1    4    4    0    0 -0.49960132616E+02 -0.68557973774E+02  0.44603298740E+01  0.84947661307E+02  0.00000000000E+00 0. -1.
         11    1    4    4    0    0  0.11112246298E+02 -0.26082933872E+02 -0.52286483629E+02  0.59478381177E+02  0.00000000000E+00 0.  1.
          1    1    1    2  501    0 -0.89928974312E+02  0.78593253697E+02 -0.17081881498E+03  0.20843029410E+03  0.00000000000E+00 0. -1.
<scales pt_clust_5="13000.00000" pt_clust_6="13000.00000" pt_clust_7="13000.00000" pt_clust_8="13000.00000" pt_clust_9="119.43255"></scales>
<clustering>
<clus scale="   82.007">  5  6 -1 -1</clus>
<clus scale="   90.030">  7  8 -1 -1</clus>
<clus scale="  119.433">  1  9  2 -1</clus>
<clus scale="  137.230">  2  5  1 -1</clus>
<clus scale="  119.433">  1  5  2 -1</clus>
</clustering>
</event>
<event>
 9    2  0.3745229E-005  0.4836626E+03  0.7546771E-02  0.1018133E+00
         21   -1    0    0  501  502  0.00000000000E+00  0.00000000000E+00  0.25037738025E+03  0.25037738025E+03  0.00000000000E+00 0. -1.
          2   -1    0    0  502    0 -0.00000000000E+00 -0.00000000000E+00 -0.84762517364E+03  0.84762517364E+03  0.00000000000E+00 0. -1.
         24    2    1    2    0    0 -0.22562792999E+03  0.97948735308E+02 -0.25452653806E+03  0.36293076285E+03  0.80206374472E+02 0.  0.
         23    2    1    2    0    0 -0.11097322171E+03  0.16677166193E+03 -0.14025725981E+03  0.26139585380E+03  0.92346360474E+02 0.  0.
        -13    1    3    3    0    0 -0.52883800940E+02  0.60275318002E+02 -0.60634087954E+02  0.10053010984E+03  0.00000000000E+00 0.  1.
         14    1    3    3    0    0 -0.17274412905E+03  0.37673417306E+02 -0.19389245011E+03  0.26240065301E+03  0.00000000000E+00 0. -1.
        -11    1    4    4    0    0 -0.61292416872E+02  0.10315122510E+03 -0.28138537880E+02  0.12324249640E+03  0.00000000000E+00 0.  1.
         11    1    4    4    0    0 -0.49680804836E+02  0.63620436833E+02 -0.11211872193E+03  0.13815335740E+03  0.00000000000E+00 0. -1.
          1    1    1    2  501    0  0.33660115170E+03 -0.26472039724E+03 -0.20246399552E+03  0.47367593724E+03  0.00000000000E+00 0. -1.
<scales pt_clust_5="13000.00000" pt_clust_6="13000.00000" pt_clust_7="13000.00000" pt_clust_8="13000.00000" pt_clust_9="428.22567"></scales>
<clustering>
<clus scale="   80.206">  5  6 -1 -1</clus>
<clus scale="   92.346">  7  8 -1 -1</clus>
<clus scale="  157.066">  5  7 -1 -1</clus>
<clus scale="  428.226">  1  9  2 -1</clus>
<clus scale="  428.226">  1  5  2 -1</clus>
</clustering>
</event>
<event>
 9    2  0.3745229E-005  0.2152541E+03  0.7546771E-02  0.1169776E+00
          2   -1    0    0  502    0 -0.00000000000E+00  0.00000000000E+00  0.76528854347E+03  0.76528854347E+03  0.00000000000E+00 0. -1.
         21   -1    0    0  501  502  0.00000000000E+00 -0.00000000000E+00 -0.95980048875E+02  0.95980048875E+02  0.00000000000E+00 0.  1.
         23    2    1    2    0    0 -0.35700507261E+02  0.27388930208E+02  0.15543758128E+03  0.18515200920E+03  0.89976358677E+02 0.  0.
         24    2    1    2    0    0 -0.17829573687E+03 -0.67637482526E+02  0.16411555016E+03  0.26411761164E+03  0.80374126076E+02 0.  0.
        -13    1    4    4    0    0 -0.59607711620E+02 -0.64916835039E+02  0.73758796853E+02  0.11492447463E+03  0.00000000000E+00 0.  1.
         14    1    4    4    0    0 -0.11868802525E+03 -0.27206474872E+01  0.90356753305E+02  0.14919313700E+03  0.00000000000E+00 0. -1.
        -13    1    3    3    0    0 -0.36643205957E+02 -0.26281704410E+02  0.88708736725E+02  0.99512273116E+02  0.00000000000E+00 0. -1.
         13    1    3    3    0    0  0.94269869652E+00  0.53670634618E+02  0.66728844558E+02  0.85639736088E+02  0.00000000000E+00 0.  1.
          1    1    1    2  501    0  0.21399624413E+03  0.40248552318E+02  0.34975536316E+03  0.41199897151E+03  0.00000000000E+00 0. -1.
<scales pt_clust_5="13000.00000" pt_clust_6="13000.00000" pt_clust_7="13000.00000" pt_clust_8="13000.00000" pt_clust_9="199.68568"></scales>
<clustering>
<clus scale="   80.374">  5  6 -1 -1</clus>
<clus scale="   89.976">  7  8 -1 -1</clus>
<clus scale="  100.600">  1  7  2 -1</clus>
<clus scale="  199.686">  2  9  1 -1</clus>
<clus scale="  199.686">  2  5  1 -1</clus>
</clustering>
</event>
<event>
 9    2  0.3745229E-005  0.9519145E+02  0.7546771E-02  0.1295944E+00
         21   -1    0    0  501  502  0.00000000000E+00  0.00000000000E+00  0.26486316928E+03  0.26486316928E+03  0.00000000000E+00 0. -1.
          2   -1    0    0  502    0 -0.00000000000E+00 -0.00000000000E+00 -0.89726377430E+02  0.89726377430E+02  0.00000000000E+00 0. -1.
         23    2    1    2    0    0  0.83428791168E+01  0.92745691145E+01 -0.74819146977E+01  0.91890104999E+02  0.90731422809E+02 0.  0.
         24    2    1    2    0    0 -0.69373720050E+02  0.24962699207E+01  0.54070196269E+02  0.11991276274E+03  0.81464962691E+02 0.  0.
        -13    1    4    4    0    0 -0.34876834005E+02  0.38333973754E+01 -0.18415347769E+02  0.39625919789E+02  0.00000000000E+00 0.  1.
         14    1    4    4    0    0 -0.34496886045E+02 -0.13371274547E+01  0.72485544038E+02  0.80286842951E+02  0.00000000000E+00 0. -1.
        -13    1    3    3    0    0  0.19049024198E+02  0.42156626925E+02  0.17253255617E+02  0.49373285752E+02  0.00000000000E+00 0.  1.
         13    1    3    3    0    0 -0.10706145081E+02 -0.32882057811E+02 -0.24735170315E+02  0.42516819247E+02  0.00000000000E+00 0. -1.
          1    1    1    2  501    0  0.61030840934E+02 -0.11770839035E+02  0.12854851027E+03  0.14278667897E+03  0.00000000000E+00 0. -1.
<scales pt_clust_5="13000.00000" pt_clust_6="13000.00000" pt_clust_7="13000.00000" pt_clust_8="13000.00000" pt_clust_9="62.15558"></scales>
<clustering>
<clus scale="   62.156">  1  9  2 -1</clus>
<clus scale="   81.465">  5  6 -1 -1</clus>
<clus scale="   86.405">  1  5  2 -1</clus>
<clus scale="   90.731">  7  8 -1 -1</clus>
<clus scale="   62.156">  1  5  2 -1</clus>
</clustering>
</event>
<event>
 9    2  0.3745229E-005  0.2209852E+03  0.7546771E-02  0.1134498E+00
         -3   -1    0    0    0  501 -0.00000000000E+00  0.00000000000E+00  0.33105855805E+03  0.33105855805E+03  0.00000000000E+00 0.  1.
         21   -1    0    0  501  502  0.00000000000E+00 -0.00000000000E+00 -0.21721376122E+03  0.21721376122E+03  0.00000000000E+00 0. -1.
         23    2    1    2    0    0  0.53472671149E+02  0.20076908862E+03  0.50046162284E+02  0.23367049220E+03  0.94497233078E+02 0.  0.
         24    2    1    2    0    0  0.59029610064E+01 -0.19426248506E+03 -0.22115893059E+02  0.20996384334E+03  0.76308221943E+02 0.  0.
        -13    1    4    4    0    0  0.33833473997E+02 -0.42835458691E+02 -0.10121988329E+02  0.55516079938E+02  0.00000000000E+00 0.  1.
         14    1    4    4    0    0 -0.27930512990E+02 -0.15142702637E+03 -0.11993904730E+02  0.15444776341E+03  0.00000000000E+00 0. -1.
        -11    1    3    3    0    0 -0.25173062417E+02  0.80881591132E+02  0.22804841348E+02  0.87724430146E+02  0.00000000000E+00 0.  1.
         11    1    3    3    0    0  0.78645733566E+02  0.11988749748E+03  0.27241320936E+02  0.14594606205E+03  0.00000000000E+00 0. -1.
         -4    1    1    2    0  502 -0.59375632156E+02 -0.65066035584E+01  0.85914527609E+02  0.10463798372E+03  0.00000000000E+00 0.  1.
<scales pt_clust_5="13000.00000" pt_clust_6="13000.00000" pt_clust_7="13000.00000" pt_clust_8="13000.00000" pt_clust_9="59.73111"></scales>
<clustering>
<clus scale="   59.731">  2  9  1 -1</clus>
<clus scale="   76.308">  5  6 -1 -1</clus>
<clus scale="   94.497">  7  8 -1 -1</clus>
<clus scale="  213.840">  2  5  1 -1</clus>
<clus scale="   59.731">  2  5  1 -1</clus>
</clustering>
</event>
<event>
 9    2  0.3745229E-005  0.1030033E+03  0.7546771E-02  0.1278544E+00
          4   -1    0    0  502    0 -0.00000000000E+00  0.00000000000E+00  0.25045152836E+03  0.25045152836E+03  0.00000000000E+00 0. -1.
         21   -1    0    0  501  502  0.00000000000E+00 -0.00000000000E+00 -0.14141260016E+03  0.14141260016E+03  0.00000000000E+00 0. -1.
         23    2    1    2    0    0  0.34938128683E+02  0.39697022067E+02  0.20576847546E+03  0.23141897317E+03  0.91747202951E+02 0.  0.
         24    2    1    2    0    0 -0.98469279798E+01 -0.11523589258E+02 -0.40908941758E+02  0.93071194013E+02  0.82212836828E+02 0.  0.
        -11    1    4    4    0    0 -0.37910661181E+02 -0.29547947077E+02 -0.34352276184E+02  0.59079423547E+02  0.00000000000E+00 0.  1.
         12    1    4    4    0    0  0.28063733201E+02  0.18024357818E+02 -0.65566655737E+01  0.33991770466E+02  0.00000000000E+00 0. -1.
        -13    1    3    3    0    0 -0.98686944509E+01  0.46287568806E+02  0.48525451700E+02  0.67783844822E+02  0.00000000000E+00 0.  1.
         13    1    3    3    0    0  0.44806823134E+02 -0.65905467386E+01  0.15724302376E+03  0.16363512834E+03  0.00000000000E+00 0. -1.
          3    1    1    2  501    0 -0.25091200704E+02 -0.28173432809E+02 -0.55820605499E+02  0.67373961345E+02  0.00000000000E+00 0. -1.
<scales pt_clust_5="13000.00000" pt_clust_6="13000.00000" pt_clust_7="13000.00000" pt_clust_8="13000.00000" pt_clust_9="37.72679"></scales>
<clustering>
<clus scale="   37.727">  2  9  1 -1</clus>
<clus scale="   82.213">  5  6 -1 -1</clus>
<clus scale="   91.747">  7  8 -1 -1</clus>
<clus scale="   94.610">  2  5  1 -1</clus>
<clus scale="   37.727">  2  5  1 -1</clus>
</clustering>
</event>
<event>
 9    2  0.6415555E-005  0.9217489E+02  0.7546771E-02  0.1302873E+00
         21   -1    0    0  501  502  0.00000000000E+00  0.00000000000E+00  0.74061074173E+02  0.74061074173E+02  0.00000000000E+00 0. -1.
          2   -1    0    0  502    0 -0.00000000000E+00 -0.00000000000E+00 -0.83518381773E+03  0.83518381773E+03  0.00000000000E+00 0. -1.
         24    2    1    2    0    0 -0.19666388233E+02  0.10937457204E+02 -0.64702893095E+03  0.65254418037E+03  0.81615409359E+02 0.  0.
         23    2    1    2    0    0  0.12600408916E+02  0.53940083888E+02 -0.14892037585E+03  0.18272833217E+03  0.90244457344E+02 0.  0.
        -11    1    3    3    0    0 -0.70869860143E+01 -0.19841586424E+02 -0.45993151469E+02  0.50589365529E+02  0.00000000000E+00 0.  1.
         12    1    3    3    0    0 -0.12579402218E+02  0.30779043629E+02 -0.60103577948E+03  0.60195481484E+03  0.00000000000E+00 0. -1.
        -11    1    4    4    0    0 -0.23484922500E+02  0.63467499444E+02 -0.84277002812E+02  0.10808458851E+03  0.00000000000E+00 0.  1.
         11    1    4    4    0    0  0.36085331415E+02 -0.95274155558E+01 -0.64643373036E+02  0.74643743662E+02  0.00000000000E+00 0. -1.
          1    1    1    2  501    0  0.70659793171E+01 -0.64877541092E+02  0.34826563240E+02  0.73972379366E+02  0.00000000000E+00 0. -1.
<scales pt_clust_5="13000.00000" pt_clust_6="13000.00000" pt_clust_7="13000.00000" pt_clust_8="13000.00000" pt_clust_9="65.26119"></scales>
<clustering>
<clus scale="   65.261">  1  9  2 -1</clus>
<clus scale="   81.615">  5  6 -1 -1</clus>
<clus scale="   83.745">  2  5  1 -1</clus>
<clus scale="   90.244">  7  8 -1 -1</clus>
<clus scale="   65.261">  1  5  2 -1</clus>
</clustering>
</event>
<event>
 9    2  0.3745229E-005  0.1653787E+03  0.7546771E-02  0.1200793E+00
          2   -1    0    0  502    0 -0.00000000000E+00  0.00000000000E+00  0.32570490755E+03  0.32570490755E+03  0.00000000000E+00 0. -1.
         21   -1    0    0  501  502  0.00000000000E+00 -0.00000000000E+00 -0.16208451662E+03  0.16208451662E+03  0.00000000000E+00 0. -1.
         24    2    1    2    0    0 -0.50970405550E+02 -0.61764529720E+02  0.98545624640E+02  0.14854462483E+03  0.77080646448E+02 0.  0.
         23    2    1    2    0    0 -0.98494459744E+02  0.67560289465E+02  0.10548614729E+03  0.18430475770E+03  0.92603267373E+02 0.  0.
        -11    1    3    3    0    0 -0.19087172113E+02 -0.30804522620E+02 -0.43142711548E+01  0.36494543273E+02  0.00000000000E+00 0.  1.
         12    1    3    3    0    0 -0.31883233437E+02 -0.30960007099E+02  0.10285989580E+03  0.11205008156E+03  0.00000000000E+00 0. -1.
        -11    1    4    4    0    0  0.19049668603E+01  0.44910485292E+02  0.15370774698E+02  0.47506223831E+02  0.00000000000E+00 0. -1.
         11    1    4    4    0    0 -0.10039942660E+03  0.22649804173E+02  0.90115372591E+02  0.13679853387E+03  0.00000000000E+00 0.  1.
          1    1    1    2  501    0  0.14946486529E+03 -0.57957597453E+01 -0.40411381005E+02  0.15494004164E+03  0.00000000000E+00 0. -1.
<scales pt_clust_5="13000.00000" pt_clust_6="13000.00000" pt_clust_7="13000.00000" pt_clust_8="13000.00000" pt_clust_9="137.02094"></scales>
<clustering>
<clus scale="   77.081">  5  6 -1 -1</clus>
<clus scale="   92.603">  7  8 -1 -1</clus>
<clus scale="  111.150">  1  5  2 -1</clus>
<clus scale="  137.021">  2  9  1 -1</clus>
<clus scale="  137.021">  2  5  1 -1</clus>
</clustering>
</event>
<event>
 9    2  0.3745229E-005  0.3229370E+03  0.7546771E-02  0.1074769E+00
         21   -1    0    0  501  502  0.00000000000E+00  0.00000000000E+00  0.33811579576E+03  0.33811579576E+03  0.00000000000E+00 0.  1.
          2   -1    0    0  502    0 -0.00000000000E+00 -0.00000000000E+00 -0.10027280497E+04  0.10027280497E+04  0.00000000000E+00 0. -1.
         23    2    1    2    0    0  0.17633191479E+03 -0.25464254690E+03 -0.84788368255E+03  0.90759977573E+03  0.94312474850E+02 0.  0.
         24    2    1    2    0    0 -0.15316583361E+03  0.26235646579E+03  0.75766444558E+02  0.32300118587E+03  0.79363242294E+02 0.  0.
        -13    1    4    4    0    0 -0.15234233273E+03  0.19909669181E+03  0.62275684520E+02  0.25831364639E+03  0.00000000000E+00 0.  1.
         14    1    4    4    0    0 -0.82350088289E+00  0.63259773976E+02  0.13490760037E+02  0.64687539477E+02  0.00000000000E+00 0. -1.
        -13    1    3    3    0    0  0.15215556758E+03 -0.14058281498E+03 -0.53735092348E+03  0.57590004304E+03  0.00000000000E+00 0.  1.
         13    1    3    3    0    0  0.24176347208E+02 -0.11405973193E+03 -0.31053275907E+03  0.33169973269E+03  0.00000000000E+00 0. -1.
          1    1    1    2  501    0 -0.23166081181E+02 -0.77139188832E+01  0.10750498401E+03  0.11024288389E+03  0.00000000000E+00 0. -1.
<scales pt_clust_5="13000.00000" pt_clust_6="13000.00000" pt_clust_7="13000.00000" pt_clust_8="13000.00000" pt_clust_9="24.41663"></scales>
<clustering>
<clus scale="   24.417">  1  9  2 -1</clus>
<clus scale="   79.363">  5  6 -1 -1</clus>
<clus scale="   94.312">  7  8 -1 -1</clus>
<clus scale="  318.892">  1  5  2 -1</clus>
<clus scale="   24.417">  1  5  2 -1</clus>
</clustering>
</event>
<event>
 9    2  0.3745229E-005  0.1013614E+03  0.7546771E-02  0.1284235E+00
          2   -1    0    0  502    0 -0.00000000000E+00  0.00000000000E+00  0.28311556460E+03  0.28311556460E+03  0.00000000000E+00 0. -1.
         21   -1    0    0  501  502  0.00000000000E+00 -0.00000000000E+00 -0.11701113296E+03  0.11701113296E+03  0.00000000000E+00 0. -1.
         24    2    1    2    0    0  0.32317254022E+02 -0.14982365801E+02  0.19467626514E+03  0.21382445701E+03  0.80951677036E+02 0.  0.
         23    2    1    2    0    0 -0.48145038020E+02  0.27506726504E+02 -0.77056368989E+02  0.13378435276E+03  0.94265605351E+02 0.  0.
        -11    1    3    3    0    0 -0.26736756177E+02 -0.12019099207E+02  0.64487494986E+02  0.70837489271E+02  0.00000000000E+00 0.  1.
         12    1    3    3    0    0  0.59054010199E+02 -0.29632665939E+01  0.13018877015E+03  0.14298696774E+03  0.00000000000E+00 0. -1.
        -13    1    4    4    0    0 -0.43272584705E+02 -0.71634718362E+01  0.54099215539E+01  0.44193881556E+02  0.00000000000E+00 0.  1.
         13    1    4    4    0    0 -0.48724533156E+01  0.34670198341E+02 -0.82466290543E+02  0.89590471202E+02  0.00000000000E+00 0. -1.
          1    1    1    2  501    0  0.15827783998E+02 -0.12524360704E+02  0.48484535490E+02  0.52517887801E+02  0.00000000000E+00 0. -1.
<scales pt_clust_5="13000.00000" pt_clust_6="13000.00000" pt_clust_7="13000.00000" pt_clust_8="13000.00000" pt_clust_9="20.18363"></scales>
<clustering>
<clus scale="   20.184">  2  9  1 -1</clus>
<clus scale="   80.952">  5  6 -1 -1</clus>
<clus scale="   89.114">  1  5  2 -1</clus>
<clus scale="   94.266">  7  8 -1 -1</clus>
<clus scale="   20.184">  2  5  1 -1</clus>
</clustering>
</event>
<event>
 9    2  0.3745229E-005  0.9378627E+02  0.7546771E-02  0.1296732E+00
          2   -1    0    0  502    0 -0.00000000000E+00  0.00000000000E+00  0.41057745304E+03  0.41057745304E+03  0.00000000000E+00 0. -1.
         21   -1    0    0  501  502  0.00000000000E+00 -0.00000000000E+00 -0.41694928496E+02  0.41694928496E+02  0.00000000000E+00 0. -1.
         24    2    1    2    0    0 -0.13179743235E+02 -0.28477386425E+02  0.30581571596E+03  0.31869814214E+03  0.84027296177E+02 0.  0.
         23    2    1    2    0    0 -0.83578284658E+01  0.26642497472E+02  0.61785754279E+02  0.11192071977E+03  0.89045449710E+02 0.  0.
        -13    1    3    3    0    0  0.33852873475E+02 -0.75121855321E+00  0.14370904903E+03  0.14764441115E+03  0.00000000000E+00 0.  1.
         14    1    3    3    0    0 -0.47032616710E+02 -0.27726167872E+02  0.16210666693E+03  0.17105373098E+03  0.00000000000E+00 0. -1.
        -13    1    4    4    0    0 -0.27823990175E+02 -0.16634816898E+02 -0.19306580432E+01  0.32474898043E+02  0.00000000000E+00 0. -1.
         13    1    4    4    0    0  0.19466161709E+02  0.43277314370E+02  0.63716412322E+02  0.79445821728E+02  0.00000000000E+00 0.  1.
          1    1    1    2  501    0  0.21537571701E+02  0.18348889526E+01  0.12810543057E+01  0.21653519630E+02  0.00000000000E+00 0. -1.
<scales pt_clust_5="13000.00000" pt_clust_6="13000.00000" pt_clust_7="13000.00000" pt_clust_8="13000.00000" pt_clust_9="21.61559"></scales>
<clustering>
<clus scale="   21.616">  2  9  1 -1</clus>
<clus scale="   84.027">  5  6 -1 -1</clus>
<clus scale="   89.036">  1  5  2 -1</clus>
<clus scale="   89.045">  7  8 -1 -1</clus>
<clus scale="   21.616">  2  5  1 -1</clus>
</clustering>
</event>
<event>
 9    2  0.3745229E-005  0.9703762E+02  0.7546771E-02  0.1291843E+00
         21   -1    0    0  501  502  0.00000000000E+00  0.00000000000E+00  0.40787852983E+03  0.40787852983E+03  0.00000000000E+00 0.  1.
         -1   -1    0    0    0  501 -0.00000000000E+00 -0.00000000000E+00 -0.71253236611E+02  0.71253236611E+02  0.00000000000E+00 0.  1.
         23    2    1    2    0    0 -0.20745996138E+02 -0.18944215006E+02  0.18821671807E+01  0.99894118067E+02  0.95843688541E+02 0.  0.
         24    2    1    2    0    0  0.20516400023E+01 -0.32794004866E+02  0.93076264903E+02  0.13138851257E+03  0.86718476495E+02 0.  0.
        -13    1    4    4    0    0 -0.11855269459E+02 -0.54136774930E+02  0.90047855054E+02  0.10573530164E+03  0.00000000000E+00 0.  1.
         14    1    4    4    0    0  0.13906909461E+02  0.21342770063E+02  0.30284098491E+01  0.25653210929E+02  0.00000000000E+00 0. -1.
        -11    1    3    3    0    0  0.37250088533E+02 -0.13011727513E+02 -0.92862169468E+01  0.40535268271E+02  0.00000000000E+00 0.  1.
         11    1    3    3    0    0 -0.57996084671E+02 -0.59324874929E+01  0.11168384127E+02  0.59358849796E+02  0.00000000000E+00 0. -1.
         -2    1    1    2    0  502  0.18694356136E+02  0.51738219872E+02  0.24166686113E+03  0.24784913580E+03  0.00000000000E+00 0.  1.
<scales pt_clust_5="13000.00000" pt_clust_6="13000.00000" pt_clust_7="13000.00000" pt_clust_8="13000.00000" pt_clust_9="55.01202"></scales>
<clustering>
<clus scale="   55.012">  1  9  2 -1</clus>
<clus scale="   86.718">  5  6 -1 -1</clus>
<clus scale="   88.036">  1  5  2 -1</clus>
<clus scale="   95.844">  7  8 -1 -1</clus>
<clus scale="   55.012">  1  5  2 -1</clus>
</clustering>
</event>
<event>
 9    2  0.3745229E-005  0.1526098E+03  0.7546771E-02  0.1215000E+00
          2   -1    0    0  502    0 -0.00000000000E+00  0.00000000000E+00  0.30036111726E+03  0.30036111726E+03  0.00000000000E+00 0. -1.
         21   -1    0    0  501  502  0.00000000000E+00 -0.00000000000E+00 -0.22140736363E+03  0.22140736363E+03  0.00000000000E+00 0. -1.
         24    2    1    2    0    0 -0.59662976290E+02 -0.26849002636E+02  0.17980632889E+03  0.20787900602E+03  0.81257772265E+02 0.  0.
         23    2    1    2    0    0 -0.74689269120E+01 -0.91486041720E+02  0.20135946210E+02  0.13182328504E+03  0.92446965603E+02 0.  0.
        -11    1    3    3    0    0 -0.33131124872E+02 -0.39424265826E+02  0.40507542011E+02  0.65519501914E+02  0.00000000000E+00 0.  1.
         12    1    3    3    0    0 -0.26531851417E+02  0.12575263190E+02  0.13929878688E+03  0.14235950411E+03  0.00000000000E+00 0. -1.
        -13    1    4    4    0    0  0.39085818853E+02 -0.17519219413E+02  0.49851802005E+01  0.43121645445E+02  0.00000000000E+00 0.  1.
         13    1    4    4    0    0 -0.46554745765E+02 -0.73966822308E+02  0.15150766009E+02  0.88701639592E+02  0.00000000000E+00 0. -1.
          1    1    1    2  501    0  0.67131903202E+02  0.11833504436E+03 -0.12098852147E+03  0.18206618983E+03  0.00000000000E+00 0. -1.
<scales pt_clust_5="13000.00000" pt_clust_6="13000.00000" pt_clust_7="13000.00000" pt_clust_8="13000.00000" pt_clust_9="121.42198"></scales>
<clustering>
<clus scale="   81.258">  5  6 -1 -1</clus>
<clus scale="   92.447">  7  8 -1 -1</clus>
<clus scale="  104.323">  1  5  2 -1</clus>
<clus scale="  121.422">  2  9  1 -1</clus>
<clus scale="  121.422">  2  5  1 -1</clus>
</clustering>
</event>
<event>
 9    2  0.3745229E-005  0.1115335E+03  0.7546771E-02  0.1262708E+00
         21   -1    0    0  501  502  0.00000000000E+00  0.00000000000E+00  0.11456362942E+03  0.11456362942E+03  0.00000000000E+00 0. -1.
          2   -1    0    0  502    0 -0.00000000000E+00 -0.00000000000E+00 -0.38237411586E+03  0.38237411586E+03  0.00000000000E+00 0. -1.
         23    2    1    2    0    0  0.47596457730E+02 -0.36027513239E+02 -0.28593645460E+03  0.30647583601E+03  0.92759783783E+02 0.  0.
         24    2    1    2    0    0 -0.41375549172E+02  0.58875587392E+02 -0.49755145592E+02  0.11856907373E+03  0.80029868631E+02 0.  0.
        -11    1    4    4    0    0 -0.21660053026E+02 -0.54513556431E+01  0.13603183900E+02  0.26151898357E+02  0.00000000000E+00 0.  1.
         12    1    4    4    0    0 -0.19715496146E+02  0.64326943035E+02 -0.63358329492E+02  0.92417175377E+02  0.00000000000E+00 0. -1.
        -11    1    3    3    0    0  0.26091305942E+02 -0.60416867847E+02 -0.24764886386E+03  0.25624385638E+03  0.00000000000E+00 0. -1.
         11    1    3    3    0    0  0.21505151788E+02  0.24389354609E+02 -0.38287590748E+02  0.50231979624E+02  0.00000000000E+00 0.  1.
          1    1    1    2  501    0 -0.62209085573E+01 -0.22848074153E+02  0.67881113761E+02  0.71892835535E+02  0.00000000000E+00 0. -1.
<scales pt_clust_5="13000.00000" pt_clust_6="13000.00000" pt_clust_7="13000.00000" pt_clust_8="13000.00000" pt_clust_9="23.67983"></scales>
<clustering>
<clus scale="   23.680">  1  9  2 -1</clus>
<clus scale="   80.030">  5  6 -1 -1</clus>
<clus scale="   92.760">  7  8 -1 -1</clus>
<clus scale="  101.193">  1  5  2 -1</clus>
<clus scale="   23.680">  1  5  2 -1</clus>
</clustering>
</event>
<event>
 9    2  0.3745229E-005  0.9782440E+02  0.7546771E-02  0.1290721E+00
          2   -1    0    0  502    0 -0.00000000000E+00  0.00000000000E+00  0.46351488630E+03  0.46351488630E+03  0.00000000000E+00 0. -1.
         21   -1    0    0  501  502  0.00000000000E+00 -0.00000000000E+00 -0.16001851530E+03  0.16001851530E+03  0.00000000000E+00 0. -1.
         23    2    1    2    0    0 -0.57937824108E+01 -0.31838808155E+02  0.32642529259E+03  0.34067849111E+03  0.91984156498E+02 0.  0.
         24    2    1    2    0    0 -0.45007787327E+01  0.54681771735E+02 -0.13567337568E+03  0.16735992834E+03  0.81189454839E+02 0.  0.
        -13    1    4    4    0    0  0.20327670066E+02 -0.21000104240E+01 -0.84660440728E+02  0.87091988370E+02  0.00000000000E+00 0.  1.
         14    1    4    4    0    0 -0.24828448798E+02  0.56781782159E+02 -0.51012934950E+02  0.80267939970E+02  0.00000000000E+00 0. -1.
        -11    1    3    3    0    0 -0.22367936939E+02  0.26954746697E+02  0.92518488206E+02  0.98927011642E+02  0.00000000000E+00 0.  1.
         11    1    3    3    0    0  0.16574154528E+02 -0.58793554852E+02  0.23390680438E+03  0.24175147947E+03  0.00000000000E+00 0. -1.
          1    1    1    2  501    0  0.10294561143E+02 -0.22842963580E+02  0.11274445409E+03  0.11549498215E+03  0.00000000000E+00 0. -1.
<scales pt_clust_5="13000.00000" pt_clust_6="13000.00000" pt_clust_7="13000.00000" pt_clust_8="13000.00000" pt_clust_9="25.05553"></scales>
<clustering>
<clus scale="   25.056">  2  9  1 -1</clus>
<clus scale="   81.189">  5  6 -1 -1</clus>
<clus scale="   87.751">  2  5  1 -1</clus>
<clus scale="   91.984">  7  8 -1 -1</clus>
<clus scale="   25.056">  2  5  1 -1</clus>
</clustering>
</event>
<event>
 9    2  0.3745229E-005  0.1182988E+03  0.7546771E-02  0.1249705E+00
         21   -1    0    0  501  502  0.00000000000E+00  0.00000000000E+00  0.30674388401E+03  0.30674388401E+03  0.00000000000E+00 0. -1.
          2   -1    0    0  502    0 -0.00000000000E+00 -0.00000000000E+00 -0.10302897219E+03  0.10302897219E+03  0.00000000000E+00 0. -1.
         23    2    1    2    0    0 -0.38888643064E+02 -0.61880282704E+02 -0.29830101953E+02  0.12097544707E+03  0.91671848808E+02 0.  0.
         24    2    1    2    0    0  0.90675674175E+01  0.86011968880E+02  0.11721800342E+03  0.16630819259E+03  0.80237616044E+02 0.  0.
        -13    1    4    4    0    0  0.33944154134E+02  0.66670843702E+01  0.39263308063E+02  0.52328414594E+02  0.00000000000E+00 0.  1.
         14    1    4    4    0    0 -0.24876586717E+02  0.79344884510E+02  0.77954695358E+02  0.11397977800E+03  0.00000000000E+00 0. -1.
        -13    1    3    3    0    0 -0.20644873339E+02  0.22707101683E+02 -0.87557034114E+01  0.31913721253E+02  0.00000000000E+00 0.  1.
         13    1    3    3    0    0 -0.18243769725E+02 -0.84587384387E+02 -0.21074398542E+02  0.89061725815E+02  0.00000000000E+00 0. -1.
          1    1    1    2  501    0  0.29821075647E+02 -0.24131686176E+02  0.11632701035E+03  0.12248921654E+03  0.00000000000E+00 0. -1.
<scales pt_clust_5="13000.00000" pt_clust_6="13000.00000" pt_clust_7="13000.00000" pt_clust_8="13000.00000" pt_clust_9="38.36189"></scales>
<clustering>
<clus scale="   38.362">  1  9  2 -1</clus>
<clus scale="   80.238">  5  6 -1 -1</clus>
<clus scale="   91.672">  7  8 -1 -1</clus>
<clus scale="  109.677">  1  5  2 -1</clus>
<clus scale="   38.362">  1  5  2 -1</clus>
</clustering>
</event>
<event>
 9    2  0.3745229E-005  0.1457478E+03  0.7546771E-02  0.1208781E+00
         21   -1    0    0  501  502  0.00000000000E+00  0.00000000000E+00  0.14132153222E+03  0.14132153222E+03  0.00000000000E+00 0. -1.
          2   -1    0    0  502    0 -0.00000000000E+00 -0.00000000000E+00 -0.18827407687E+03  0.18827407687E+03  0.00000000000E+00 0. -1.
         23    2    1    2    0    0 -0.11419299773E+03 -0.22596255939E+02 -0.62759202205E+02  0.16338701599E+03  0.95947735884E+02 0.  0.
         24    2    1    2    0    0  0.10131207858E+03 -0.72422460529E+01  0.24527192381E+02  0.13255889760E+03  0.81570158597E+02 0.  0.
        -11    1    4    4    0    0  0.10826761105E+02 -0.31872336575E+02 -0.54654373701E+01  0.34101841599E+02  0.00000000000E+00 0.  1.
         12    1    4    4    0    0  0.90485317473E+02  0.24630090523E+02  0.29992629751E+02  0.98457056003E+02  0.00000000000E+00 0. -1.
        -11    1    3    3    0    0 -0.98323095315E+02 -0.44371222913E+02 -0.77357625771E+02  0.13274200074E+03  0.00000000000E+00 0. -1.
         11    1    3    3    0    0 -0.15869902416E+02  0.21774966975E+02  0.14598423567E+02  0.30645015257E+02  0.00000000000E+00 0.  1.
          1    1    1    2  501    0  0.12880919152E+02  0.29838501992E+02 -0.87205348246E+01  0.33649695495E+02  0.00000000000E+00 0. -1.
<scales pt_clust_5="13000.00000" pt_clust_6="13000.00000" pt_clust_7="13000.00000" pt_clust_8="13000.00000" pt_clust_9="32.50008"></scales>
<clustering>
<clus scale="   32.500">  1  9  2 -1</clus>
<clus scale="   81.570">  5  6 -1 -1</clus>
<clus scale="   95.948">  7  8 -1 -1</clus>
<clus scale="  136.712">  1  5  2 -1</clus>
<clus scale="   32.500">  1  5  2 -1</clus>
</clustering>
</event>
<event>
 9    2  0.3745229E-005  0.9883358E+02  0.7546771E-02  0.1289372E+00
         21   -1    0    0  501  502  0.00000000000E+00  0.00000000000E+00  0.24191671800E+03  0.24191671800E+03  0.00000000000E+00 0.  1.
         -1   -1    0    0    0  501 -0.00000000000E+00 -0.00000000000E+00 -0.16557976457E+03  0.16557976457E+03  0.00000000000E+00 0.  1.
         23    2    1    2    0    0  0.34712645213E+02 -0.72115409363E+01 -0.12609437883E+03  0.16022907152E+03  0.92285366819E+02 0.  0.
         24    2    1    2    0    0 -0.37887682985E+02 -0.16736505760E+02  0.73555340287E+02  0.11614681345E+03  0.79775353610E+02 0.  0.
        -13    1    4    4    0    0 -0.98729212911E+01 -0.18321235707E+02  0.83746562811E+02  0.86293852825E+02  0.00000000000E+00 0.  1.
         14    1    4    4    0    0 -0.28014761694E+02  0.15847299468E+01 -0.10191222524E+02  0.29852960629E+02  0.00000000000E+00 0. -1.
        -11    1    3    3    0    0  0.14896345125E+01 -0.46340635779E+02 -0.47665143434E+02  0.66495409119E+02  0.00000000000E+00 0.  1.
         11    1    3    3    0    0  0.33223010701E+02  0.39129094843E+02 -0.78429235392E+02  0.93733662402E+02  0.00000000000E+00 0. -1.
         -2    1    1    2    0  502  0.31750377717E+01  0.23948046697E+02  0.12887599197E+03  0.13112059759E+03  0.00000000000E+00 0.  1.
<scales pt_clust_5="13000.00000" pt_clust_6="13000.00000" pt_clust_7="13000.00000" pt_clust_8="13000.00000" pt_clust_9="24.15760"></scales>
<clustering>
<clus scale="   24.158">  1  9  2 -1</clus>
<clus scale="   79.775">  5  6 -1 -1</clus>
<clus scale="   87.267">  1  5  2 -1</clus>
<clus scale="   92.285">  7  8 -1 -1</clus>
<clus scale="   24.158">  1  5  2 -1</clus>
</clustering>
</event>
<event>
 9    2  0.3745229E-005  0.1015374E+03  0.7546771E-02  0.1288568E+00
         21   -1    0    0  501  502  0.00000000000E+00  0.00000000000E+00  0.58632713780E+02  0.58632713780E+02  0.00000000000E+00 0. -1.
          2   -1    0    0  502    0 -0.00000000000E+00 -0.00000000000E+00 -0.48772718725E+03  0.48772718725E+03  0.00000000000E+00 0. -1.
         23    2    1    2    0    0  0.26205678137E+01  0.60820052345E+02 -0.85404223302E+02  0.14386550596E+03  0.98475663510E+02 0.  0.
         24    2    1    2    0    0 -0.27251887203E+02  0.15784910500E+02 -0.49491635583E+02  0.97489727811E+02  0.77865244367E+02 0.  0.
        -13    1    4    4    0    0 -0.21219261916E+02 -0.14903329123E+02 -0.59292472671E+02  0.64714477597E+02  0.00000000000E+00 0.  1.
         14    1    4    4    0    0 -0.60326252866E+01  0.30688239622E+02  0.98008370878E+01  0.32775250214E+02  0.00000000000E+00 0. -1.
        -13    1    3    3    0    0  0.26473649499E+02 -0.43788002405E+01  0.75234045420E+01  0.27868075378E+02  0.00000000000E+00 0.  1.
         13    1    3    3    0    0 -0.23853081686E+02  0.65198852586E+02 -0.92927627844E+02  0.11599743058E+03  0.00000000000E+00 0. -1.
          1    1    1    2  501    0  0.24631319389E+02 -0.76604962845E+02 -0.29419861458E+03  0.30500466726E+03  0.00000000000E+00 0. -1.
<scales pt_clust_5="13000.00000" pt_clust_6="13000.00000" pt_clust_7="13000.00000" pt_clust_8="13000.00000" pt_clust_9="80.46756"></scales>
<clustering>
<clus scale="   77.865">  5  6 -1 -1</clus>
<clus scale="   80.468">  1  9  2 -1</clus>
<clus scale="   81.703">  1  5  2 -1</clus>
<clus scale="   98.476">  7  8 -1 -1</clus>
<clus scale="   80.468">  1  5  2 -1</clus>
</clustering>
</event>
<event>
 9    2  0.3745229E-005  0.1544147E+03  0.7546771E-02  0.1197035E+00
         -1   -1    0    0    0  501 -0.00000000000E+00  0.00000000000E+00  0.63343010727E+02  0.63343010727E+02  0.00000000000E+00 0.  1.
         21   -1    0    0  501  502  0.00000000000E+00 -0.00000000000E+00 -0.54457914263E+03  0.54457914263E+03  0.00000000000E+00 0.  1.
         23    2    1    2    0    0  0.10001342384E+03  0.90741699379E+02 -0.10996967699E+03  0.19650415967E+03  0.91015459967E+02 0.  0.
         24    2    1    2    0    0 -0.70273370475E+02 -0.82996669621E+02 -0.22866528363E+03  0.26554287480E+03  0.79990078479E+02 0.  0.
        -11    1    4    4    0    0 -0.48111177258E+02 -0.67258826667E+02 -0.22291532495E+03  0.23775970483E+03  0.00000000000E+00 0.  1.
         12    1    4    4    0    0 -0.22162193217E+02 -0.15737842954E+02 -0.57499586782E+01  0.27783169975E+02  0.00000000000E+00 0. -1.
        -11    1    3    3    0    0  0.50606828344E+02  0.73820393023E+02 -0.18827604468E+02  0.91460265641E+02  0.00000000000E+00 0.  1.
         11    1    3    3    0    0  0.49406595499E+02  0.16921306356E+02 -0.91142072527E+02  0.10504389403E+03  0.00000000000E+00 0. -1.
         -2    1    1    2    0  502 -0.29740053368E+02 -0.77450297573E+01 -0.14260117128E+03  0.14587511889E+03  0.00000000000E+00 0.  1.
<scales pt_clust_5="13000.00000" pt_clust_6="13000.00000" pt_clust_7="13000.00000" pt_clust_8="13000.00000" pt_clust_9="30.73201"></scales>
<clustering>
<clus scale="   30.732">  2  9  1 -1</clus>
<clus scale="   79.990">  5  6 -1 -1</clus>
<clus scale="   91.015">  7  8 -1 -1</clus>
<clus scale="  148.184">  2  5  1 -1</clus>
<clus scale="   30.732">  2  5  1 -1</clus>
</clustering>
</event>
<event>
 9    2  0.3745229E-005  0.9454560E+02  0.7546771E-02  0.1297918E+00
         21   -1    0    0  501  502  0.00000000000E+00  0.00000000000E+00  0.58675641455E+03  0.58675641455E+03  0.00000000000E+00 0.  1.
         -3   -1    0    0    0  501 -0.00000000000E+00 -0.00000000000E+00 -0.44953813507E+02  0.44953813507E+02  0.00000000000E+00 0.  1.
         24    2    1    2    0    0 -0.33206116148E+02 -0.88213749100E+01  0.10255695239E+02  0.86611663793E+02  0.78841221548E+02 0.  0.
         23    2    1    2    0    0  0.13150229019E+02 -0.12966666800E+02  0.41554833911E+03  0.42537962322E+03  0.89029987878E+02 0.  0.
        -13    1    3    3    0    0 -0.23919347648E+02 -0.43729091479E+02  0.46921598979E+01  0.50063809264E+02  0.00000000000E+00 0.  1.
         14    1    3    3    0    0 -0.92867684999E+01  0.34907716569E+02  0.55635353410E+01  0.36547854529E+02  0.00000000000E+00 0. -1.
        -11    1    4    4    0    0  0.34455239418E+02 -0.42370175562E+02  0.24784282997E+03  0.25378822603E+03  0.00000000000E+00 0.  1.
         11    1    4    4    0    0 -0.21305010398E+02  0.29403508763E+02  0.16770550914E+03  0.17159139719E+03  0.00000000000E+00 0. -1.
         -4    1    1    2    0  502  0.20055887129E+02  0.21788041710E+02  0.11599856669E+03  0.11971894105E+03  0.00000000000E+00 0.  1.
<scales pt_clust_5="13000.00000" pt_clust_6="13000.00000" pt_clust_7="13000.00000" pt_clust_8="13000.00000" pt_clust_9="29.61347"></scales>
<clustering>
<clus scale="   29.613">  1  9  2 -1</clus>
<clus scale="   78.841">  5  6 -1 -1</clus>
<clus scale="   85.020">  2  5  1 -1</clus>
<clus scale="   89.030">  7  8 -1 -1</clus>
<clus scale="   29.613">  1  5  2 -1</clus>
</clustering>
</event>
<event>
 9    2  0.3745229E-005  0.1002669E+03  0.7546771E-02  0.1285425E+00
         21   -1    0    0  501  502  0.00000000000E+00  0.00000000000E+00  0.29956387045E+03  0.29956387045E+03  0.00000000000E+00 0. -1.
         -3   -1    0    0    0  501 -0.00000000000E+00 -0.00000000000E+00 -0.75353805206E+02  0.75353805206E+02  0.00000000000E+00 0.  1.
         23    2    1    2    0    0  0.20378438350E+02  0.39117277464E+02 -0.12915204422E+02  0.10244071198E+03  0.91552470313E+02 0.  0.
         24    2    1    2    0    0 -0.43219940975E+02 -0.76823673907E+01  0.13348983449E+03  0.16179638165E+03  0.80196952157E+02 0.  0.
        -13    1    4    4    0    0 -0.21629126273E+02  0.21530003427E+01 -0.41483346842E+01  0.22128334652E+02  0.00000000000E+00 0.  1.
         14    1    4    4    0    0 -0.21590814702E+02 -0.98353677333E+01  0.13763816917E+03  0.13966804699E+03  0.00000000000E+00 0. -1.
        -13    1    3    3    0    0 -0.98858646496E+01 -0.21615419019E+02  0.16030261681E+02  0.28669250928E+02  0.00000000000E+00 0.  1.
         13    1    3    3    0    0  0.30264303000E+02  0.60732696482E+02 -0.28945466104E+02  0.73771461054E+02  0.00000000000E+00 0. -1.
         -4    1    1    2    0  502  0.22841502625E+02 -0.31434910073E+02  0.10363543518E+03  0.11068058203E+03  0.00000000000E+00 0.  1.
<scales pt_clust_5="13000.00000" pt_clust_6="13000.00000" pt_clust_7="13000.00000" pt_clust_8="13000.00000" pt_clust_9="38.85727"></scales>
<clustering>
<clus scale="   38.857">  1  9  2 -1</clus>
<clus scale="   80.197">  5  6 -1 -1</clus>
<clus scale="   90.017">  1  5  2 -1</clus>
<clus scale="   91.552">  7  8 -1 -1</clus>
<clus scale="   38.857">  1  5  2 -1</clus>
</clustering>
</event>
<event>
 9    2  0.3745229E-005  0.1423021E+03  0.7546771E-02  0.1213536E+00
         21   -1    0    0  501  502  0.00000000000E+00  0.00000000000E+00  0.75333568691E+02  0.75333568691E+02  0.00000000000E+00 0.  1.
         -3   -1    0    0    0  501 -0.00000000000E+00 -0.00000000000E+00 -0.71111560067E+03  0.71111560067E+03  0.00000000000E+00 0.  1.
         23    2    1    2    0    0 -0.48955973391E+02 -0.92766955799E+02 -0.40262767031E+03  0.42673145997E+03  0.94806659091E+02 0.  0.
         24    2    1    2    0    0 -0.50715171037E+02  0.13568498716E+03 -0.14458301544E+03  0.21964209474E+03  0.79724256750E+02 0.  0.
        -11    1    4    4    0    0 -0.70317897888E+02  0.12387487608E+03 -0.12349499609E+03  0.18852216248E+03  0.00000000000E+00 0.  1.
         12    1    4    4    0    0  0.19602726852E+02  0.11810111081E+02 -0.21088019346E+02  0.31119932257E+02  0.00000000000E+00 0. -1.
        -11    1    3    3    0    0 -0.25298534041E+02  0.15911507834E+02 -0.96681423139E+02  0.10119530368E+03  0.00000000000E+00 0.  1.
         11    1    3    3    0    0 -0.23657439350E+02 -0.10867846363E+03 -0.30594624717E+03  0.32553615629E+03  0.00000000000E+00 0. -1.
         -4    1    1    2    0  502  0.99671144428E+02 -0.42918031361E+02 -0.88571346234E+02  0.14007561466E+03  0.00000000000E+00 0.  1.
<scales pt_clust_5="13000.00000" pt_clust_6="13000.00000" pt_clust_7="13000.00000" pt_clust_8="13000.00000" pt_clust_9="108.51864"></scales>
<clustering>
<clus scale="   79.724">  5  6 -1 -1</clus>
<clus scale="   94.807">  7  8 -1 -1</clus>
<clus scale="  108.519">  1  9  2 -1</clus>
<clus scale="  132.731">  1  5  2 -1</clus>
<clus scale="  108.519">  1  5  2 -1</clus>
</clustering>
</event>
<event>
 9    2  0.3745229E-005  0.9767658E+02  0.7546771E-02  0.1291703E+00
         -1   -1    0    0    0  501 -0.00000000000E+00  0.00000000000E+00  0.11759122175E+03  0.11759122175E+03  0.00000000000E+00 0.  1.
         21   -1    0    0  501  502  0.00000000000E+00 -0.00000000000E+00 -0.11807766498E+03  0.11807766498E+03  0.00000000000E+00 0.  1.
         23    2    1    2    0    0 -0.33002177673E+02  0.17603708108E+02  0.31588907854E+02  0.10363486884E+03  0.91341626163E+02 0.  0.
         24    2    1    2    0    0  0.56170391948E+01 -0.40108558856E+02 -0.36610920901E+02  0.96299083861E+02  0.79327841269E+02 0.  0.
        -11    1    4    4    0    0  0.33211260573E+02 -0.42486467840E+02 -0.41662337492E+02  0.68145712585E+02  0.00000000000E+00 0.  1.
         12    1    4    4    0    0 -0.27594221378E+02  0.23779089842E+01  0.50514165912E+01  0.28153371276E+02  0.00000000000E+00 0. -1.
        -13    1    3    3    0    0 -0.50505748687E+02  0.43972450491E+02  0.23484589995E+02  0.70964308070E+02  0.00000000000E+00 0.  1.
         13    1    3    3    0    0  0.17503571014E+02 -0.26368742383E+02  0.81043178593E+01  0.32670560771E+02  0.00000000000E+00 0. -1.
         -2    1    1    2    0  502  0.27385138478E+02  0.22504850748E+02  0.45355698110E+01  0.35734934031E+02  0.00000000000E+00 0.  1.
<scales pt_clust_5="13000.00000" pt_clust_6="13000.00000" pt_clust_7="13000.00000" pt_clust_8="13000.00000" pt_clust_9="35.44595"></scales>
<clustering>
<clus scale="   35.446">  2  9  1 -1</clus>
<clus scale="   79.328">  5  6 -1 -1</clus>
<clus scale="   86.547">  2  5  1 -1</clus>
<clus scale="   91.342">  7  8 -1 -1</clus>
<clus scale="   35.446">  2  5  1 -1</clus>
</clustering>
</event>
<event>
 9    2  0.3745229E-005  0.3204175E+03  0.7546771E-02  0.1121166E+00
          2   -1    0    0  502    0 -0.00000000000E+00  0.00000000000E+00  0.58604354883E+03  0.58604354883E+03  0.00000000000E+00 0. -1.
         21   -1    0    0  501  502  0.00000000000E+00 -0.00000000000E+00 -0.64424740809E+03  0.64424740809E+03  0.00000000000E+00 0. -1.
         23    2    1    2    0    0  0.11829444386E+02  0.28204270705E+02  0.35621516616E+03  0.36930495057E+03  0.92528294425E+02 0.  0.
         24    2    1    2    0    0  0.10180522408E+03 -0.31148748923E+03  0.10635375506E+02  0.33769501319E+03  0.80845847929E+02 0.  0.
        -11    1    4    4    0    0  0.26411535635E+01 -0.96654496797E+02 -0.21085838176E+02  0.98963023472E+02  0.00000000000E+00 0.  1.
         12    1    4    4    0    0  0.99164070515E+02 -0.21483299243E+03  0.31721213682E+02  0.23873198972E+03  0.00000000000E+00 0. -1.
        -11    1    3    3    0    0 -0.40172874348E+02  0.13803048815E+02  0.13095324115E+03  0.13767038664E+03  0.00000000000E+00 0.  1.
         11    1    3    3    0    0  0.52002318734E+02  0.14401221890E+02  0.22526192501E+03  0.23163456393E+03  0.00000000000E+00 0. -1.
          1    1    1    2  501    0 -0.11363466846E+03  0.28328321852E+03 -0.42505440093E+03  0.52329099316E+03  0.00000000000E+00 0. -1.
<scales pt_clust_5="13000.00000" pt_clust_6="13000.00000" pt_clust_7="13000.00000" pt_clust_8="13000.00000" pt_clust_9="310.05047"></scales>
<clustering>
<clus scale="   80.846">  5  6 -1 -1</clus>
<clus scale="   92.528">  7  8 -1 -1</clus>
<clus scale="   97.452">  1  7  2 -1</clus>
<clus scale="  310.050">  2  9  1 -1</clus>
<clus scale="  310.050">  2  5  1 -1</clus>
</clustering>
</event>
<event>
 9    2  0.3745229E-005  0.1061938E+03  0.7546771E-02  0.1272386E+00
         21   -1    0    0  501  502  0.00000000000E+00  0.00000000000E+00  0.45163781293E+02  0.45163781293E+02  0.00000000000E+00 0.  1.
         -1   -1    0    0    0  501 -0.00000000000E+00 -0.00000000000E+00 -0.71702236378E+03  0.71702236378E+03  0.00000000000E+00 0.  1.
         24    2    1    2    0    0  0.90120882477E+00  0.62444075410E+02 -0.48473860420E+03  0.49539880028E+03  0.80922074782E+02 0.  0.
         23    2    1    2    0    0 -0.58681334665E+02 -0.15262885421E+02 -0.14232210670E+03  0.17977322566E+03  0.91577158159E+02 0.  0.
        -13    1    3    3    0    0 -0.20296758998E+02  0.39913170871E+02 -0.10179989033E+03  0.11121257710E+03  0.00000000000E+00 0.  1.
         14    1    3    3    0    0  0.21197967823E+02  0.22530904539E+02 -0.38293871387E+03  0.38418622318E+03  0.00000000000E+00 0. -1.
        -13    1    4    4    0    0 -0.59419873500E+01  0.29905110322E+02 -0.13324305916E+02  0.33274013362E+02  0.00000000000E+00 0.  1.
         13    1    4    4    0    0 -0.52739347315E+02 -0.45167995743E+02 -0.12899780079E+03  0.14649921229E+03  0.00000000000E+00 0. -1.
         -2    1    1    2    0  502  0.57780125840E+02 -0.47181189989E+02 -0.44797871587E+02  0.87014119139E+02  0.00000000000E+00 0.  1.
<scales pt_clust_5="13000.00000" pt_clust_6="13000.00000" pt_clust_7="13000.00000" pt_clust_8="13000.00000" pt_clust_9="74.59630"></scales>
<clustering>
<clus scale="   74.596">  1  9  2 -1</clus>
<clus scale="   80.922">  5  6 -1 -1</clus>
<clus scale="   91.577">  7  8 -1 -1</clus>
<clus scale="   97.155">  2  5  1 -1</clus>
<clus scale="   74.596">  1  5  2 -1</clus>
</clustering>
</event>
<event>
 9    2  0.3745229E-005  0.1337762E+03  0.7546771E-02  0.1224302E+00
         21   -1    0    0  501  502  0.00000000000E+00  0.00000000000E+00  0.53461108513E+02  0.53461108513E+02  0.00000000000E+00 0. -1.
          2   -1    0    0  502    0 -0.00000000000E+00 -0.00000000000E+00 -0.83479278174E+03  0.83479278174E+03  0.00000000000E+00 0. -1.
         23    2    1    2    0    0  0.11285844817E+03  0.17605460529E+02 -0.45649510773E+03  0.47943607368E+03  0.91783352527E+02 0.  0.
         24    2    1    2    0    0 -0.31966160498E+02 -0.98840395196E+02 -0.15470351680E+03  0.20366438357E+03  0.82187248914E+02 0.  0.
        -13    1    4    4    0    0 -0.42607808094E+02 -0.15671681234E+02 -0.34101939148E+02  0.56780006665E+02  0.00000000000E+00 0.  1.
         14    1    4    4    0    0  0.10641647596E+02 -0.83168713962E+02 -0.12060157765E+03  0.14688437690E+03  0.00000000000E+00 0. -1.
        -11    1    3    3    0    0  0.32526282623E+02  0.17561097324E+02 -0.36934784692E+02  0.52254468907E+02  0.00000000000E+00 0.  1.
         11    1    3    3    0    0  0.80332165547E+02  0.44363204572E-01 -0.41956032303E+03  0.42718160477E+03  0.00000000000E+00 0. -1.
          1    1    1    2  501    0 -0.80892287671E+02  0.81234934667E+02 -0.17013304870E+03  0.20515343301E+03  0.00000000000E+00 0. -1.
<scales pt_clust_5="13000.00000" pt_clust_6="13000.00000" pt_clust_7="13000.00000" pt_clust_8="13000.00000" pt_clust_9="114.64151"></scales>
<clustering>
<clus scale="   82.187">  5  6 -1 -1</clus>
<clus scale="   91.783">  7  8 -1 -1</clus>
<clus scale="  114.642">  1  9  2 -1</clus>
<clus scale="  127.384">  1  5  2 -1</clus>
<clus scale="  114.642">  1  5  2 -1</clus>
</clustering>
</event>
<event>
 9    2  0.3745229E-005  0.1668011E+03  0.7546771E-02  0.1182825E+00
         21   -1    0    0  501  502  0.00000000000E+00  0.00000000000E+00  0.28636743553E+03  0.28636743553E+03  0.00000000000E+00 0.  1.
          2   -1    0    0  502    0 -0.00000000000E+00 -0.00000000000E+00 -0.20864168829E+03  0.20864168829E+03  0.00000000000E+00 0. -1.
         24    2    1    2    0    0  0.56674844711E+02 -0.12953685161E+03 -0.10317644973E+03  0.19520832630E+03  0.86423821543E+02 0.  0.
         23    2    1    2    0    0  0.24650327736E+01  0.11914340636E+03  0.18398455485E+03  0.23967551380E+03  0.96916499235E+02 0.  0.
        -11    1    3    3    0    0  0.41956591448E+02 -0.13003292382E+02 -0.49155558764E+02  0.65922000395E+02  0.00000000000E+00 0.  1.
         12    1    3    3    0    0  0.14718253263E+02 -0.11653355923E+03 -0.54020890967E+02  0.12928632590E+03  0.00000000000E+00 0. -1.
        -13    1    4    4    0    0  0.45109758167E+02  0.90139888427E+02  0.13559135908E+03  0.16895297104E+03  0.00000000000E+00 0. -1.
         13    1    4    4    0    0 -0.42644725394E+02  0.29003517936E+02  0.48393195774E+02  0.70722542755E+02  0.00000000000E+00 0.  1.
          1    1    1    2  501    0 -0.59139877484E+02  0.10393445246E+02 -0.30823578853E+01  0.60125283725E+02  0.00000000000E+00 0. -1.
<scales pt_clust_5="13000.00000" pt_clust_6="13000.00000" pt_clust_7="13000.00000" pt_clust_8="13000.00000" pt_clust_9="60.04625"></scales>
<clustering>
<clus scale="   60.046">  1  9  2 -1</clus>
<clus scale="   86.424">  5  6 -1 -1</clus>
<clus scale="   96.916">  7  8 -1 -1</clus>
<clus scale="  160.931">  2  5  1 -1</clus>
<clus scale="   60.046">  1  5  2 -1</clus>
</clustering>
</event>
<event>
 9    2  0.4744355E-005  0.8948643E+02  0.7546771E-02  0.1309196E+00
         21   -1    0    0  501  502  0.00000000000E+00  0.00000000000E+00  0.93465603277E+02  0.93465603277E+02  0.00000000000E+00 0. -1.
          2   -1    0    0  502    0 -0.00000000000E+00 -0.00000000000E+00 -0.49322948471E+03  0.49322948471E+03  0.00000000000E+00 0. -1.
         24    2    1    2    0    0 -0.22227009718E+02  0.26666005354E+01 -0.37315226174E+03  0.38239393826E+03  0.80506911844E+02 0.  0.
         23    2    1    2    0    0 -0.29540463020E+02 -0.61068374011E+00 -0.84997033632E+02  0.12624376962E+03  0.88543671443E+02 0.  0.
        -13    1    3    3    0    0  0.26541853534E+02 -0.14836547461E+02 -0.17250417582E+03  0.17516359155E+03  0.00000000000E+00 0.  1.
         14    1    3    3    0    0 -0.48768863252E+02  0.17503147997E+02 -0.20064808592E+03  0.20723034671E+03  0.00000000000E+00 0. -1.
        -11    1    4    4    0    0  0.17035413074E+02 -0.31698316226E+02 -0.23035067195E+02  0.42727074213E+02  0.00000000000E+00 0.  1.
         11    1    4    4    0    0 -0.46575876094E+02  0.31087632486E+02 -0.61961966437E+02  0.83516695410E+02  0.00000000000E+00 0. -1.
          1    1    1    2  501    0  0.51767472738E+02 -0.20559167953E+01  0.58385413941E+02  0.78057380103E+02  0.00000000000E+00 0. -1.
<scales pt_clust_5="13000.00000" pt_clust_6="13000.00000" pt_clust_7="13000.00000" pt_clust_8="13000.00000" pt_clust_9="51.80828"></scales>
<clustering>
<clus scale="   51.808">  1  9  2 -1</clus>
<clus scale="   80.507">  5  6 -1 -1</clus>
<clus scale="   81.543">  2  5  1 -1</clus>
<clus scale="   88.544">  7  8 -1 -1</clus>
<clus scale="   51.808">  1  5  2 -1</clus>
</clustering>
</event>
<event>
 9    2  0.3745229E-005  0.1364895E+03  0.7546771E-02  0.1221770E+00
         21   -1    0    0  501  502  0.00000000000E+00  0.00000000000E+00  0.65489520287E+02  0.65489520287E+02  0.00000000000E+00 0.  1.
          2   -1    0    0  502    0 -0.00000000000E+00 -0.00000000000E+00 -0.55420651471E+03  0.55420651471E+03  0.00000000000E+00 0. -1.
         24    2    1    2    0    0  0.10234337143E+03  0.16753651816E+02 -0.38993553860E+03  0.41284796053E+03  0.87400593364E+02 0.  0.
         23    2    1    2    0    0 -0.62558768310E+02  0.18352259378E+02 -0.95329478211E+02  0.15367706926E+03  0.10138307197E+03 0.  0.
        -13    1    3    3    0    0  0.32199024484E+01  0.34508295773E+02 -0.11146112185E+03  0.11672519837E+03  0.00000000000E+00 0.  1.
         14    1    3    3    0    0  0.99123468981E+02 -0.17754643957E+02 -0.27847441675E+03  0.29612276216E+03  0.00000000000E+00 0. -1.
        -13    1    4    4    0    0 -0.35713919817E+02 -0.39736644526E+02 -0.60888656327E+02  0.81005638422E+02  0.00000000000E+00 0. -1.
         13    1    4    4    0    0 -0.26844848492E+02  0.58088903904E+02 -0.34440821884E+02  0.72671430834E+02  0.00000000000E+00 0.  1.
          1    1    1    2  501    0 -0.39784603120E+02 -0.35105911194E+02 -0.34519776087E+01  0.53171005215E+02  0.00000000000E+00 0. -1.
<scales pt_clust_5="13000.00000" pt_clust_6="13000.00000" pt_clust_7="13000.00000" pt_clust_8="13000.00000" pt_clust_9="53.05883"></scales>
<clustering>
<clus scale="   53.059">  1  9  2 -1</clus>
<clus scale="   87.401">  5  6 -1 -1</clus>
<clus scale="  101.383">  7  8 -1 -1</clus>
<clus scale="  126.450">  2  5  1 -1</clus>
<clus scale="   53.059">  1  5  2 -1</clus>
</clustering>
</event>
<event>
 9    2  0.3745229E-005  0.1299471E+03  0.7546771E-02  0.1237506E+00
         21   -1    0    0  501  502  0.00000000000E+00  0.00000000000E+00  0.64973669196E+03  0.64973669196E+03  0.00000000000E+00 0.  1.
          2   -1    0    0  502    0 -0.00000000000E+00 -0.00000000000E+00 -0.59025416345E+02  0.59025416345E+02  0.00000000000E+00 0. -1.
         23    2    1    2    0    0 -0.50096095051E+02 -0.16255064371E+02  0.68182559522E+02  0.12591395809E+03  0.91823839838E+02 0.  0.
         24    2    1    2    0    0 -0.53066004613E+02  0.55120336577E+02  0.11548274867E+03  0.16113812212E+03  0.82310247309E+02 0.  0.
        -13    1    4    4    0    0 -0.64483551370E+02  0.55359521024E+02  0.12146591233E+03  0.14824565027E+03  0.00000000000E+00 0.  1.
         14    1    4    4    0    0  0.11417546757E+02 -0.23918444643E+00 -0.59831636631E+01  0.12892471856E+02  0.00000000000E+00 0. -1.
        -13    1    3    3    0    0  0.20537293470E+02 -0.16325254985E+02  0.44051716244E+02  0.51272293468E+02  0.00000000000E+00 0.  1.
         13    1    3    3    0    0 -0.70633388521E+02  0.70190614062E-01  0.24130843278E+02  0.74641664625E+02  0.00000000000E+00 0. -1.
          1    1    1    2  501    0  0.10316209966E+03 -0.38865272206E+02  0.40704596743E+03  0.42171002809E+03  0.00000000000E+00 0. -1.
<scales pt_clust_5="13000.00000" pt_clust_6="13000.00000" pt_clust_7="13000.00000" pt_clust_8="13000.00000" pt_clust_9="100.55483"></scales>
<clustering>
<clus scale="   82.310">  5  6 -1 -1</clus>
<clus scale="   91.824">  7  8 -1 -1</clus>
<clus scale="  105.856">  2  7  1 -1</clus>
<clus scale="  100.555">  1  9  2 -1</clus>
<clus scale="  100.555">  1  5  2 -1</clus>
</clustering>
</event>
<event>
 9    2  0.3745229E-005  0.2315616E+03  0.7546771E-02  0.1138995E+00
         21   -1    0    0  501  502  0.00000000000E+00  0.00000000000E+00  0.84501988166E+02  0.84501988166E+02  0.00000000000E+00 0. -1.
          2   -1    0    0  502    0 -0.00000000000E+00 -0.00000000000E+00 -0.14848551083E+04  0.14848551083E+04  0.00000000000E+00 0. -1.
         23    2    1    2    0    0  0.11110160964E+02 -0.13919085881E+03 -0.15201368780E+03  0.22556437547E+03  0.90959306006E+02 0.  0.
         24    2    1    2    0    0 -0.14886767318E+03 -0.71876676318E+02 -0.87192724167E+03  0.89078855564E+03  0.76936957178E+02 0.  0.
        -13    1    4    4    0    0 -0.21615017659E+02 -0.29439235474E-01 -0.34539981686E+02  0.40745799660E+02  0.00000000000E+00 0.  1.
         14    1    4    4    0    0 -0.12725265552E+03 -0.71847237083E+02 -0.83738725998E+03  0.85004275598E+03  0.00000000000E+00 0. -1.
        -11    1    3    3    0    0  0.41976341037E+02 -0.89948958850E+02 -0.57787850619E+02  0.11485758174E+03  0.00000000000E+00 0. -1.
         11    1    3    3    0    0 -0.30866180073E+02 -0.49241899958E+02 -0.94225837185E+02  0.11070679373E+03  0.00000000000E+00 0.  1.
          1    1    1    2  501    0  0.13775751222E+03  0.21106753513E+03 -0.37641219070E+03  0.45300416540E+03  0.00000000000E+00 0. -1.
<scales pt_clust_5="13000.00000" pt_clust_6="13000.00000" pt_clust_7="13000.00000" pt_clust_8="13000.00000" pt_clust_9="218.40664"></scales>
<clustering>
<clus scale="   76.937">  5  6 -1 -1</clus>
<clus scale="   90.959">  7  8 -1 -1</clus>
<clus scale="  166.647">  2  7  1 -1</clus>
<clus scale="  218.407">  1  9  2 -1</clus>
<clus scale="  218.407">  1  5  2 -1</clus>
</clustering>
</event>
<event>
 9    2  0.3745229E-005  0.9314728E+02  0.7546771E-02  0.1301066E+00
         21   -1    0    0  501  502  0.00000000000E+00  0.00000000000E+00  0.11647760223E+03  0.11647760223E+03  0.00000000000E+00 0.  1.
          2   -1    0    0  502    0 -0.00000000000E+00 -0.00000000000E+00 -0.12249177828E+03  0.12249177828E+03  0.00000000000E+00 0. -1.
         23    2    1    2    0    0  0.39864237449E+01  0.15873397057E+02 -0.49592393719E+02  0.10419059625E+03  0.90157742449E+02 0.  0.
         24    2    1    2    0    0  0.19467119672E+02 -0.41395555056E+02  0.35334420859E+02  0.99150011712E+02  0.80558319237E+02 0.  0.
        -11    1    4    4    0    0  0.13097382054E+01 -0.58134944733E+02  0.26839120023E+01  0.58211601910E+02  0.00000000000E+00 0.  1.
         12    1    4    4    0    0  0.18157381467E+02  0.16739389677E+02  0.32650508857E+02  0.40938409802E+02  0.00000000000E+00 0. -1.
        -13    1    3    3    0    0 -0.39738059415E+02 -0.97781069954E+01 -0.21237761190E+02  0.46106043452E+02  0.00000000000E+00 0.  1.
         13    1    3    3    0    0  0.43724483160E+02  0.25651504052E+02 -0.28354632529E+02  0.58084552797E+02  0.00000000000E+00 0. -1.
          1    1    1    2  501    0 -0.23453543417E+02  0.25522157999E+02  0.82437968064E+01  0.35628772552E+02  0.00000000000E+00 0. -1.
<scales pt_clust_5="13000.00000" pt_clust_6="13000.00000" pt_clust_7="13000.00000" pt_clust_8="13000.00000" pt_clust_9="34.66193"></scales>
<clustering>
<clus scale="   34.662">  1  9  2 -1</clus>
<clus scale="   80.558">  5  6 -1 -1</clus>
<clus scale="   83.891">  1  5  2 -1</clus>
<clus scale="   90.158">  7  8 -1 -1</clus>
<clus scale="   34.662">  1  5  2 -1</clus>
</clustering>
</event>
<event>
 9    2  0.3745229E-005  0.1054275E+03  0.7546771E-02  0.1274546E+00
         -1   -1    0    0    0  501 -0.00000000000E+00  0.00000000000E+00  0.39319541155E+02  0.39319541155E+02  0.00000000000E+00 0.  1.
         21   -1    0    0  501  502  0.00000000000E+00 -0.00000000000E+00 -0.45512666588E+03  0.45512666588E+03  0.00000000000E+00 0.  1.
         23    2    1    2    0    0  0.51233068277E+02  0.53690136611E+01 -0.94975247175E+02  0.14138088629E+03  0.91184449553E+02 0.  0.
         24    2    1    2    0    0 -0.54497818671E+02  0.20270547606E+02 -0.14381192771E+03  0.17416839975E+03  0.79195035082E+02 0.  0.
        -11    1    4    4    0    0 -0.16149884125E+02  0.38533766885E+02 -0.11626117517E+03  0.12354080621E+03  0.00000000000E+00 0.  1.
         12    1    4    4    0    0 -0.38347934547E+02 -0.18263219278E+02 -0.27550752536E+02  0.50627593541E+02  0.00000000000E+00 0. -1.
        -11    1    3    3    0    0  0.47242199749E+02 -0.17921256787E+02 -0.78810974771E+01  0.51138132341E+02  0.00000000000E+00 0.  1.
         11    1    3    3    0    0  0.39908685286E+01  0.23290270448E+02 -0.87094149698E+02  0.90242753952E+02  0.00000000000E+00 0. -1.
         -2    1    1    2    0  502  0.32647503941E+01 -0.25639561267E+02 -0.17701994985E+03  0.17889692099E+03  0.00000000000E+00 0.  1.
<scales pt_clust_5="13000.00000" pt_clust_6="13000.00000" pt_clust_7="13000.00000" pt_clust_8="13000.00000" pt_clust_9="25.84658"></scales>
<clustering>
<clus scale="   25.847">  2  9  1 -1</clus>
<clus scale="   79.195">  5  6 -1 -1</clus>
<clus scale="   91.184">  7  8 -1 -1</clus>
<clus scale="   95.248">  2  5  1 -1</clus>
<clus scale="   25.847">  2  5  1 -1</clus>
</clustering>
</event>
<event>
 9    2  0.3745229E-005  0.9303566E+02  0.7546771E-02  0.1301136E+00
          2   -1    0    0  502    0 -0.00000000000E+00  0.00000000000E+00  0.99098582590E+03  0.99098582590E+03  0.00000000000E+00 0. -1.
         21   -1    0    0  501  502  0.00000000000E+00 -0.00000000000E+00 -0.18747894505E+02  0.18747894505E+02  0.00000000000E+00 0. -1.
         24    2    1    2    0    0 -0.20171650904E+02 -0.13750314888E+02  0.45435708001E+03  0.46233900744E+03  0.81981918649E+02 0.  0.
         23    2    1    2    0    0  0.13553284559E+02 -0.36785630881E+02  0.17859719790E+03  0.20430422620E+03  0.91139363520E+02 0.  0.
        -11    1    3    3    0    0 -0.26187184097E+02  0.16825782707E+02  0.68672112429E+02  0.75397178993E+02  0.00000000000E+00 0.  1.
         12    1    3    3    0    0  0.60155331931E+01 -0.30576097595E+02  0.38568496758E+03  0.38694182845E+03  0.00000000000E+00 0. -1.
        -13    1    4    4    0    0  0.94333188590E+01  0.27536943906E+02  0.27543211705E+02  0.40073673345E+02  0.00000000000E+00 0.  1.
         13    1    4    4    0    0  0.41199657004E+01 -0.64322574788E+02  0.15105398620E+03  0.16423055285E+03  0.00000000000E+00 0. -1.
          1    1    1    2  501    0  0.66183663445E+01  0.50535945770E+02  0.33928365349E+03  0.34309048677E+03  0.00000000000E+00 0. -1.
<scales pt_clust_5="13000.00000" pt_clust_6="13000.00000" pt_clust_7="13000.00000" pt_clust_8="13000.00000" pt_clust_9="50.96751"></scales>
<clustering>
<clus scale="   50.968">  2  9  1 -1</clus>
<clus scale="   81.982">  5  6 -1 -1</clus>
<clus scale="   84.085">  1  5  2 -1</clus>
<clus scale="   91.139">  7  8 -1 -1</clus>
<clus scale="   50.968">  2  5  1 -1</clus>
</clustering>
</event>
<event>
 9    2  0.3745229E-005  0.1022649E+03  0.7546771E-02  0.1281236E+00
         21   -1    0    0  501  502  0.00000000000E+00  0.00000000000E+00  0.27242708146E+02  0.27242708146E+02  0.00000000000E+00 0.  1.
          2   -1    0    0  502    0 -0.00000000000E+00 -0.00000000000E+00 -0.94230736627E+03  0.94230736627E+03  0.00000000000E+00 0. -1.
         24    2    1    2    0    0  0.30583389766E+01  0.46651870939E+02 -0.61853491223E+03  0.62555379890E+03  0.80909623462E+02 0.  0.
         23    2    1    2    0    0 -0.21623551316E+02 -0.33205171624E+02 -0.30371649669E+03  0.31997274084E+03  0.92567181669E+02 0.  0.
        -11    1    3    3    0    0 -0.28554754740E+02  0.27560542881E+02 -0.13775508951E+03  0.14335767237E+03  0.00000000000E+00 0.  1.
         12    1    3    3    0    0  0.31613093717E+02  0.19091328059E+02 -0.48077982272E+03  0.48219612653E+03  0.00000000000E+00 0. -1.
        -11    1    4    4    0    0 -0.47041288749E+02  0.98890944516E+01 -0.11292509282E+03  0.12273041035E+03  0.00000000000E+00 0. -1.
         11    1    4    4    0    0  0.25417737433E+02 -0.43094266076E+02 -0.19079140387E+03  0.19724233048E+03  0.00000000000E+00 0.  1.
          1    1    1    2  501    0  0.18565212339E+02 -0.13446699315E+02  0.71867507947E+01  0.24023534683E+02  0.00000000000E+00 0. -1.
<scales pt_clust_5="13000.00000" pt_clust_6="13000.00000" pt_clust_7="13000.00000" pt_clust_8="13000.00000" pt_clust_9="22.92337"></scales>
<clustering>
<clus scale="   22.923">  1  9  2 -1</clus>
<clus scale="   80.910">  5  6 -1 -1</clus>
<clus scale="   91.847">  2  5  1 -1</clus>
<clus scale="   92.567">  7  8 -1 -1</clus>
<clus scale="   22.923">  1  5  2 -1</clus>
</clustering>
</event>
<event>
 9    2  0.3745229E-005  0.1127190E+03  0.7546771E-02  0.1259660E+00
         -1   -1    0    0    0  501 -0.00000000000E+00  0.00000000000E+00  0.42678246623E+02  0.42678246623E+02  0.00000000000E+00 0.  1.
         21   -1    0    0  501  502  0.00000000000E+00 -0.00000000000E+00 -0.53255843117E+03  0.53255843117E+03  0.00000000000E+00 0.  1.
         24    2    1    2    0    0 -0.74336669380E+02 -0.24769399192E+02 -0.12149232061E+03  0.16571986519E+03  0.81013740826E+02 0.  0.
         23    2    1    2    0    0  0.44350811375E+02 -0.27860657707E+02 -0.30036789371E+03  0.31843558007E+03  0.91853885943E+02 0.  0.
        -11    1    3    3    0    0 -0.70304576251E+02  0.15568651214E+02 -0.73453133054E+02  0.10286145584E+03  0.00000000000E+00 0.  1.
         12    1    3    3    0    0 -0.40320931291E+01 -0.40338050406E+02 -0.48039187553E+02  0.62858409353E+02  0.00000000000E+00 0. -1.
        -11    1    4    4    0    0 -0.27350689948E+02 -0.14705143214E+02 -0.64994731094E+02  0.72032052223E+02  0.00000000000E+00 0. -1.
         11    1    4    4    0    0  0.71701501323E+02 -0.13155514493E+02 -0.23537316262E+03  0.24640352784E+03  0.00000000000E+00 0.  1.
         -2    1    1    2    0  502  0.29985858005E+02  0.52630056899E+02 -0.68019970230E+02  0.91081232532E+02  0.00000000000E+00 0.  1.
<scales pt_clust_5="13000.00000" pt_clust_6="13000.00000" pt_clust_7="13000.00000" pt_clust_8="13000.00000" pt_clust_9="60.57292"></scales>
<clustering>
<clus scale="   60.573">  2  9  1 -1</clus>
<clus scale="   81.014">  5  6 -1 -1</clus>
<clus scale="   91.854">  7  8 -1 -1</clus>
<clus scale="  104.075">  1  5  2 -1</clus>
<clus scale="   60.573">  2  5  1 -1</clus>
</clustering>
</event>
<event>
 9    2  0.3745229E-005  0.1039577E+03  0.7546771E-02  0.1278124E+00
         21   -1    0    0  501  502  0.00000000000E+00  0.00000000000E+00  0.34679629154E+02  0.34679629154E+02  0.00000000000E+00 0.  1.
          2   -1    0    0  502    0 -0.00000000000E+00 -0.00000000000E+00 -0.42776389891E+03  0.42776389891E+03  0.00000000000E+00 0. -1.
         24    2    1    2    0    0 -0.32208107633E+02  0.40471312560E+02 -0.16879782500E+03  0.19313637359E+03  0.78317710270E+02 0.  0.
         23    2    1    2    0    0  0.44853945523E+02 -0.21093677414E+02 -0.10465889899E+03  0.14746233650E+03  0.91295322407E+02 0.  0.
        -13    1    3    3    0    0 -0.16689839558E+02 -0.14562894392E+02 -0.98972416373E+01  0.24260750804E+02  0.00000000000E+00 0.  1.
         14    1    3    3    0    0 -0.15518268075E+02  0.55034206952E+02 -0.15890058336E+03  0.16887562279E+03  0.00000000000E+00 0. -1.
        -11    1    4    4    0    0  0.53981011109E+02 -0.44172138016E+02 -0.45420925697E+02  0.83235736487E+02  0.00000000000E+00 0.  1.
         11    1    4    4    0    0 -0.91270655856E+01  0.23078460602E+02 -0.59237973288E+02  0.64226600014E+02  0.00000000000E+00 0. -1.
          1    1    1    2  501    0 -0.12645837890E+02 -0.19377635147E+02 -0.11962754577E+03  0.12184481797E+03  0.00000000000E+00 0. -1.
<scales pt_clust_5="13000.00000" pt_clust_6="13000.00000" pt_clust_7="13000.00000" pt_clust_8="13000.00000" pt_clust_9="23.13894"></scales>
<clustering>
<clus scale="   23.139">  1  9  2 -1</clus>
<clus scale="   78.318">  5  6 -1 -1</clus>
<clus scale="   91.295">  7  8 -1 -1</clus>
<clus scale="   92.769">  2  5  1 -1</clus>
<clus scale="   23.139">  1  5  2 -1</clus>
</clustering>
</event>
<event>
 9    2  0.3745229E-005  0.1033163E+03  0.7546771E-02  0.1279743E+00
          2   -1    0    0  502    0 -0.00000000000E+00  0.00000000000E+00  0.58637926689E+03  0.58637926689E+03  0.00000000000E+00 0. -1.
         21   -1    0    0  501  502  0.00000000000E+00 -0.00000000000E+00 -0.43830224473E+02  0.43830224473E+02  0.00000000000E+00 0.  1.
         24    2    1    2    0    0 -0.94727583029E+01  0.49849117786E+02  0.31235361618E+03  0.32599215822E+03  0.78303499227E+02 0.  0.
         23    2    1    2    0    0 -0.51388920010E+02 -0.37164125538E+02  0.68189458120E+02  0.13069215738E+03  0.91698661250E+02 0.  0.
        -13    1    3    3    0    0 -0.25613265861E+02  0.65021155288E+02  0.21194999111E+03  0.22317389801E+03  0.00000000000E+00 0.  1.
         14    1    3    3    0    0  0.16140507558E+02 -0.15172037502E+02  0.10040362507E+03  0.10281826021E+03  0.00000000000E+00 0. -1.
        -13    1    4    4    0    0 -0.26718789892E+01 -0.56824961061E+02  0.22876385795E+02  0.61315121822E+02  0.00000000000E+00 0.  1.
         13    1    4    4    0    0 -0.48717041021E+02  0.19660835523E+02  0.45313072325E+02  0.69377035558E+02  0.00000000000E+00 0. -1.
          1    1    1    2  501    0  0.60861678313E+02 -0.12684992248E+02  0.16200596812E+03  0.17352517576E+03  0.00000000000E+00 0. -1.
<scales pt_clust_5="13000.00000" pt_clust_6="13000.00000" pt_clust_7="13000.00000" pt_clust_8="13000.00000" pt_clust_9="62.16958"></scales>
<clustering>
<clus scale="   62.170">  2  9  1 -1</clus>
<clus scale="   78.303">  5  6 -1 -1</clus>
<clus scale="   91.635">  1  5  2 -1</clus>
<clus scale="   91.699">  7  8 -1 -1</clus>
<clus scale="   62.170">  2  5  1 -1</clus>
</clustering>
</event>
<event>
 9    2  0.3745229E-005  0.1131525E+03  0.7546771E-02  0.1260460E+00
         21   -1    0    0  501  502  0.00000000000E+00  0.00000000000E+00  0.95954360427E+03  0.95954360427E+03  0.00000000000E+00 0. -1.
          2   -1    0    0  502    0 -0.00000000000E+00 -0.00000000000E+00 -0.37878089100E+02  0.37878089100E+02  0.00000000000E+00 0. -1.
         24    2    1    2    0    0 -0.53421638535E+02 -0.15090834913E+02  0.61083233117E+02  0.11485534887E+03  0.79868548466E+02 0.  0.
         23    2    1    2    0    0  0.10087779335E+03  0.17346846737E+02  0.50625338617E+03  0.52506649460E+03  0.94472696908E+02 0.  0.
        -13    1    3    3    0    0 -0.10691897684E+02  0.31638109938E+02  0.15397679861E+02  0.36774654609E+02  0.00000000000E+00 0.  1.
         14    1    3    3    0    0 -0.42729740851E+02 -0.46728944851E+02  0.45685553256E+02  0.78080694262E+02  0.00000000000E+00 0. -1.
        -11    1    4    4    0    0  0.22859913285E+02 -0.24979728161E+02  0.50840175415E+02  0.61084252395E+02  0.00000000000E+00 0. -1.
         11    1    4    4    0    0  0.78017880070E+02  0.42326574898E+02  0.45541321076E+03  0.46398224221E+03  0.00000000000E+00 0.  1.
          1    1    1    2  501    0 -0.47456154820E+02 -0.22560118233E+01  0.35432889588E+03  0.35749984990E+03  0.00000000000E+00 0. -1.
<scales pt_clust_5="13000.00000" pt_clust_6="13000.00000" pt_clust_7="13000.00000" pt_clust_8="13000.00000" pt_clust_9="47.50975"></scales>
<clustering>
<clus scale="   47.510">  1  9  2 -1</clus>
<clus scale="   79.869">  5  6 -1 -1</clus>
<clus scale="   94.473">  7  8 -1 -1</clus>
<clus scale="  101.279">  2  5  1 -1</clus>
<clus scale="   47.510">  1  5  2 -1</clus>
</clustering>
</event>
<event>
 9    2  0.3745229E-005  0.1090779E+03  0.7546771E-02  0.1266820E+00
         -3   -1    0    0    0  501 -0.00000000000E+00  0.00000000000E+00  0.10697608193E+03  0.10697608193E+03  0.00000000000E+00 0.  1.
         21   -1    0    0  501  502  0.00000000000E+00 -0.00000000000E+00 -0.37909300419E+03  0.37909300419E+03  0.00000000000E+00 0.  1.
         24    2    1    2    0    0 -0.77621815985E+02 -0.28757379168E+02  0.35960969792E+02  0.12061270043E+03  0.80013117568E+02 0.  0.
         23    2    1    2    0    0 -0.56865044436E+01  0.20997587011E+02 -0.82789621301E+02  0.12513307105E+03  0.91273923337E+02 0.  0.
        -11    1    3    3    0    0 -0.83900451935E+02 -0.38136267532E+02  0.48166348596E+02  0.10398873917E+03  0.00000000000E+00 0.  1.
         12    1    3    3    0    0  0.62786359496E+01  0.93788883637E+01 -0.12205378805E+02  0.16623961263E+02  0.00000000000E+00 0. -1.
        -11    1    4    4    0    0 -0.26738757398E+01  0.56596184944E+02 -0.61151336260E+02  0.83365242686E+02  0.00000000000E+00 0. -1.
         11    1    4    4    0    0 -0.30126287038E+01 -0.35598597933E+02 -0.21638285041E+02  0.41767828361E+02  0.00000000000E+00 0.  1.
         -4    1    1    2    0  502  0.83308320429E+02  0.77597921570E+01 -0.22528827075E+03  0.24032331465E+03  0.00000000000E+00 0.  1.
<scales pt_clust_5="13000.00000" pt_clust_6="13000.00000" pt_clust_7="13000.00000" pt_clust_8="13000.00000" pt_clust_9="83.66893"></scales>
<clustering>
<clus scale="   80.013">  5  6 -1 -1</clus>
<clus scale="   83.669">  2  9  1 -1</clus>
<clus scale="   91.274">  7  8 -1 -1</clus>
<clus scale="   99.846">  1  5  2 -1</clus>
<clus scale="   83.669">  2  5  1 -1</clus>
</clustering>
</event>
<event>
 9    2  0.3745229E-005  0.1370301E+03  0.7546771E-02  0.1219789E+00
         21   -1    0    0  501  502  0.00000000000E+00  0.00000000000E+00  0.22254865913E+03  0.22254865913E+03  0.00000000000E+00 0. -1.
          2   -1    0    0  502    0 -0.00000000000E+00 -0.00000000000E+00 -0.53367233790E+03  0.53367233790E+03  0.00000000000E+00 0. -1.
         23    2    1    2    0    0  0.91355514651E+02 -0.18772668859E+02 -0.39028333640E+03  0.41143911747E+03  0.90900063562E+02 0.  0.
         24    2    1    2    0    0 -0.17070540323E+03 -0.38304465980E+01 -0.46601362274E+02  0.19437197372E+03  0.80335360779E+02 0.  0.
        -11    1    4    4    0    0 -0.37604797189E+02  0.30279285223E+02  0.27951235825E+01  0.48360816795E+02  0.00000000000E+00 0.  1.
         12    1    4    4    0    0 -0.13310060604E+03 -0.34109731821E+02 -0.49396485857E+02  0.14601115693E+03  0.00000000000E+00 0. -1.
        -11    1    3    3    0    0 -0.14985448030E+02 -0.16212993977E+02 -0.96443612060E+02  0.98938340059E+02  0.00000000000E+00 0.  1.
         11    1    3    3    0    0  0.10634096268E+03 -0.25596748820E+01 -0.29383972434E+03  0.31250077741E+03  0.00000000000E+00 0. -1.
          1    1    1    2  501    0  0.79349888576E+02  0.22603115457E+02  0.12576101991E+03  0.15040990584E+03  0.00000000000E+00 0. -1.
<scales pt_clust_5="13000.00000" pt_clust_6="13000.00000" pt_clust_7="13000.00000" pt_clust_8="13000.00000" pt_clust_9="82.50640"></scales>
<clustering>
<clus scale="   80.335">  5  6 -1 -1</clus>
<clus scale="   82.506">  1  9  2 -1</clus>
<clus scale="   90.900">  7  8 -1 -1</clus>
<clus scale="  130.262">  1  5  2 -1</clus>
<clus scale="   82.506">  1  5  2 -1</clus>
</clustering>
</event>
<event>
 9    2  0.3745229E-005  0.1172415E+03  0.7546771E-02  0.1251589E+00
         21   -1    0    0  501  502  0.00000000000E+00  0.00000000000E+00  0.53087086175E+02  0.53087086175E+02  0.00000000000E+00 0. -1.
          2   -1    0    0  502    0 -0.00000000000E+00 -0.00000000000E+00 -0.49685053182E+03  0.49685053182E+03  0.00000000000E+00 0. -1.
         23    2    1    2    0    0  0.64386387211E+02 -0.56774182931E+02 -0.36264089378E+03  0.38379974480E+03  0.91787317019E+02 0.  0.
         24    2    1    2    0    0 -0.13530707908E+02  0.43762208894E+02 -0.52764281641E+02  0.10647378788E+03  0.80339200299E+02 0.  0.
        -13    1    4    4    0    0 -0.31585628993E+02 -0.92408411467E+01 -0.58530580990E+01  0.33426088511E+02  0.00000000000E+00 0.  1.
         14    1    4    4    0    0  0.18054921085E+02  0.53003050041E+02 -0.46911223543E+02  0.73047699370E+02  0.00000000000E+00 0. -1.
        -11    1    3    3    0    0  0.42501999845E+02 -0.81943563261E+02 -0.26420677972E+03  0.27986852271E+03  0.00000000000E+00 0.  1.
         11    1    3    3    0    0  0.21884387366E+02  0.25169380330E+02 -0.98434114055E+02  0.10393122210E+03  0.00000000000E+00 0. -1.
          1    1    1    2  501    0 -0.50855679303E+02  0.13011974037E+02 -0.28358270223E+02  0.59664085309E+02  0.00000000000E+00 0. -1.
<scales pt_clust_5="13000.00000" pt_clust_6="13000.00000" pt_clust_7="13000.00000" pt_clust_8="13000.00000" pt_clust_9="52.49392"></scales>
<clustering>
<clus scale="   52.494">  1  9  2 -1</clus>
<clus scale="   80.339">  5  6 -1 -1</clus>
<clus scale="   91.787">  7  8 -1 -1</clus>
<clus scale="  108.513">  1  5  2 -1</clus>
<clus scale="   52.494">  1  5  2 -1</clus>
</clustering>
</event>
<event>
 9    2  0.3745229E-005  0.9358041E+02  0.7546771E-02  0.1301837E+00
         21   -1    0    0  501  502  0.00000000000E+00  0.00000000000E+00  0.47593736989E+03  0.47593736989E+03  0.00000000000E+00 0.  1.
          4   -1    0    0  502    0 -0.00000000000E+00 -0.00000000000E+00 -0.37516181233E+02  0.37516181233E+02  0.00000000000E+00 0. -1.
         24    2    1    2    0    0  0.10909038089E+02 -0.81833877666E+01  0.55855043973E+02  0.99723305714E+02  0.81479916654E+02 0.  0.
         23    2    1    2    0    0  0.21035766401E+02 -0.55080119070E+01  0.14671443356E+03  0.17533151513E+03  0.93504938475E+02 0.  0.
        -13    1    3    3    0    0 -0.18960906452E+02  0.29145074134E+02  0.24955897760E+02  0.42798927005E+02  0.00000000000E+00 0.  1.
         14    1    3    3    0    0  0.29869944541E+02 -0.37328461901E+02  0.30899146212E+02  0.56924378709E+02  0.00000000000E+00 0. -1.
        -11    1    4    4    0    0 -0.28713533126E+02 -0.14122568539E+02  0.17210448467E+02  0.36333365701E+02  0.00000000000E+00 0. -1.
         11    1    4    4    0    0  0.49749299527E+02  0.86145566324E+01  0.12950398509E+03  0.13899814943E+03  0.00000000000E+00 0.  1.
          3    1    1    2  501    0 -0.31944804490E+02  0.13691399674E+02  0.23585171112E+03  0.23839873028E+03  0.00000000000E+00 0. -1.
<scales pt_clust_5="13000.00000" pt_clust_6="13000.00000" pt_clust_7="13000.00000" pt_clust_8="13000.00000" pt_clust_9="34.75521"></scales>
<clustering>
<clus scale="   34.755">  1  9  2 -1</clus>
<clus scale="   81.480">  5  6 -1 -1</clus>
<clus scale="   81.567">  2  5  1 -1</clus>
<clus scale="   93.505">  7  8 -1 -1</clus>
<clus scale="   34.755">  1  5  2 -1</clus>
</clustering>
</event>
<event>
 9    2  0.3745229E-005  0.1003776E+03  0.7546771E-02  0.1280579E+00
         21   -1    0    0  501  502  0.00000000000E+00  0.00000000000E+00  0.44468616655E+03  0.44468616655E+03  0.00000000000E+00 0.  1.
         -3   -1    0    0    0  501 -0.00000000000E+00 -0.00000000000E+00 -0.37265734589E+02  0.37265734589E+02  0.00000000000E+00 0.  1.
         24    2    1    2    0    0  0.48504576448E+02 -0.23552573816E+02  0.82566524066E+02  0.12783928420E+03  0.81352529266E+02 0.  0.
         23    2    1    2    0    0 -0.40695618165E+02  0.44658503365E+02  0.18015774010E+03  0.20767689362E+03  0.83799555866E+02 0.  0.
        -11    1    3    3    0    0  0.39940806272E+02 -0.10430355996E+02 -0.24863290034E+01  0.41355074220E+02  0.00000000000E+00 0.  1.
         12    1    3    3    0    0  0.85637701757E+01 -0.13122217820E+02  0.85052853069E+02  0.86484209977E+02  0.00000000000E+00 0. -1.
        -11    1    4    4    0    0  0.65655678454E+01  0.33276378967E+02  0.18018360364E+02  0.38406840387E+02  0.00000000000E+00 0. -1.
         11    1    4    4    0    0 -0.47261186010E+02  0.11382124398E+02  0.16213937974E+03  0.16927005323E+03  0.00000000000E+00 0.  1.
         -4    1    1    2    0  502 -0.78089582832E+01 -0.21105929549E+02  0.14469616779E+03  0.14643572333E+03  0.00000000000E+00 0.  1.
<scales pt_clust_5="13000.00000" pt_clust_6="13000.00000" pt_clust_7="13000.00000" pt_clust_8="13000.00000" pt_clust_9="22.50422"></scales>
<clustering>
<clus scale="   22.504">  1  9  2 -1</clus>
<clus scale="   81.353">  5  6 -1 -1</clus>
<clus scale="   83.800">  7  8 -1 -1</clus>
<clus scale="   98.344">  2  5  1 -1</clus>
<clus scale="   22.504">  1  5  2 -1</clus>
</clustering>
</event>
<event>
 9    2  0.3745229E-005  0.1166140E+03  0.7546771E-02  0.1253361E+00
          4   -1    0    0  502    0 -0.00000000000E+00  0.00000000000E+00  0.59599117609E+03  0.59599117609E+03  0.00000000000E+00 0. -1.
         21   -1    0    0  501  502  0.00000000000E+00 -0.00000000000E+00 -0.43872570261E+02  0.43872570261E+02  0.00000000000E+00 0. -1.
         24    2    1    2    0    0 -0.40522129750E+02  0.76817222425E+02  0.40847712234E+03  0.42493120702E+03  0.78549618472E+02 0.  0.
         23    2    1    2    0    0  0.18100737117E+02 -0.37256272039E+02  0.13530772485E+03  0.16870225515E+03  0.91850988001E+02 0.  0.
        -11    1    3    3    0    0 -0.44984330365E+02  0.24848026840E+02  0.10384111837E+03  0.11586195355E+03  0.00000000000E+00 0.  1.
         12    1    3    3    0    0  0.44622006154E+01  0.51969195585E+02  0.30463600397E+03  0.30906925347E+03  0.00000000000E+00 0. -1.
        -11    1    4    4    0    0  0.10620408232E+02 -0.66581140044E+02  0.72631309152E+02  0.99101707098E+02  0.00000000000E+00 0.  1.
         11    1    4    4    0    0  0.74803288848E+01  0.29324868005E+02  0.62676415698E+02  0.69600548048E+02  0.00000000000E+00 0. -1.
          3    1    1    2  501    0  0.22421392633E+02 -0.39560950387E+02  0.83337586398E+01  0.46230284189E+02  0.00000000000E+00 0. -1.
<scales pt_clust_5="13000.00000" pt_clust_6="13000.00000" pt_clust_7="13000.00000" pt_clust_8="13000.00000" pt_clust_9="45.47293"></scales>
<clustering>
<clus scale="   45.473">  2  9  1 -1</clus>
<clus scale="   78.550">  5  6 -1 -1</clus>
<clus scale="   91.851">  7  8 -1 -1</clus>
<clus scale="  106.453">  1  5  2 -1</clus>
<clus scale="   45.473">  2  5  1 -1</clus>
</clustering>
</event>
<event>
 9    2  0.3745229E-005  0.2044185E+03  0.7546771E-02  0.1147404E+00
          2   -1    0    0  502    0 -0.00000000000E+00  0.00000000000E+00  0.91163032775E+03  0.91163032775E+03  0.00000000000E+00 0. -1.
         21   -1    0    0  501  502  0.00000000000E+00 -0.00000000000E+00 -0.54066637326E+03  0.54066637326E+03  0.00000000000E+00 0. -1.
         24    2    1    2    0    0 -0.17110763461E+03  0.79956210397E+02  0.81819691477E+03  0.84308451440E+03  0.75329203361E+02 0.  0.
         23    2    1    2    0    0  0.10361528124E+03 -0.10422373083E+03 -0.17663000972E+02  0.17369584909E+03  0.90882087421E+02 0.  0.
        -11    1    3    3    0    0 -0.34255649029E+02 -0.11037170940E+02  0.98687698899E+02  0.10504537375E+03  0.00000000000E+00 0.  1.
         12    1    3    3    0    0 -0.13685198558E+03  0.90993381337E+02  0.71950921587E+03  0.73803914065E+03  0.00000000000E+00 0. -1.
        -11    1    4    4    0    0  0.40726963948E+02 -0.75623430298E+02  0.28624097392E+02  0.90536886152E+02  0.00000000000E+00 0. -1.
         11    1    4    4    0    0  0.62888317288E+02 -0.28600300529E+02 -0.46287098365E+02  0.83158962936E+02  0.00000000000E+00 0.  1.
          1    1    1    2  501    0  0.67492353377E+02  0.24267520431E+02 -0.42956995931E+03  0.43551633753E+03  0.00000000000E+00 0. -1.
<scales pt_clust_5="13000.00000" pt_clust_6="13000.00000" pt_clust_7="13000.00000" pt_clust_8="13000.00000" pt_clust_9="71.72259"></scales>
<clustering>
<clus scale="   71.723">  2  9  1 -1</clus>
<clus scale="   75.329">  5  6 -1 -1</clus>
<clus scale="   90.882">  7  8 -1 -1</clus>
<clus scale="  197.995">  1  5  2 -1</clus>
<clus scale="   71.723">  2  5  1 -1</clus>
</clustering>
</event>
<event>
 9    2  0.3745229E-005  0.1341070E+03  0.7546771E-02  0.1224871E+00
         -1   -1    0    0    0  501 -0.00000000000E+00  0.00000000000E+00  0.14042112172E+03  0.14042112172E+03  0.00000000000E+00 0.  1.
         21   -1    0    0  501  502  0.00000000000E+00 -0.00000000000E+00 -0.21491797196E+03  0.21491797196E+03  0.00000000000E+00 0. -1.
         24    2    1    2    0    0 -0.11652656960E+03 -0.13725902777E+02  0.34852009235E+02  0.14472876397E+03  0.77232834614E+02 0.  0.
         23    2    1    2    0    0  0.56479702724E+02 -0.69984787693E+01 -0.99084842395E+02  0.14626379710E+03  0.91303651757E+02 0.  0.
        -11    1    3    3    0    0 -0.25822342699E+02  0.23113379460E+02 -0.11359936420E+02  0.36470122676E+02  0.00000000000E+00 0.  1.
         12    1    3    3    0    0 -0.90704226905E+02 -0.36839282237E+02  0.46211945654E+02  0.10825864130E+03  0.00000000000E+00 0. -1.
        -13    1    4    4    0    0  0.72187091455E+02  0.84227385753E+01 -0.39444414653E+02  0.82690873409E+02  0.00000000000E+00 0. -1.
         13    1    4    4    0    0 -0.15707388731E+02 -0.15421217345E+02 -0.59640427742E+02  0.63572923689E+02  0.00000000000E+00 0.  1.
         -2    1    1    2    0  502  0.60046866880E+02  0.20724381546E+02 -0.10264017083E+02  0.64346532612E+02  0.00000000000E+00 0.  1.
<scales pt_clust_5="13000.00000" pt_clust_6="13000.00000" pt_clust_7="13000.00000" pt_clust_8="13000.00000" pt_clust_9="63.52268"></scales>
<clustering>
<clus scale="   63.523">  2  9  1 -1</clus>
<clus scale="   77.233">  5  6 -1 -1</clus>
<clus scale="   91.304">  7  8 -1 -1</clus>
<clus scale="  124.953">  1  5  2 -1</clus>
<clus scale="   63.523">  2  5  1 -1</clus>
</clustering>
</event>
<event>
 9    2  0.3745229E-005  0.1016792E+03  0.7546771E-02  0.1280631E+00
         21   -1    0    0  501  502  0.00000000000E+00  0.00000000000E+00  0.61117559752E+02  0.61117559752E+02  0.00000000000E+00 0. -1.
         -1   -1    0    0    0  501 -0.00000000000E+00 -0.00000000000E+00 -0.25535081821E+03  0.25535081821E+03  0.00000000000E+00 0.  1.
         23    2    1    2    0    0 -0.87683003223E+00 -0.60565657245E+02 -0.13517828535E+03  0.17305564084E+03  0.89476915047E+02 0.  0.
         24    2    1    2    0    0  0.93233481423E+01  0.24916316222E+02 -0.16176537472E+02  0.87014337982E+02  0.81253104650E+02 0.  0.
        -13    1    4    4    0    0  0.25503003361E+02  0.32960757896E+02 -0.39561116765E+02  0.57462132759E+02  0.00000000000E+00 0.  1.
         14    1    4    4    0    0 -0.16179655219E+02 -0.80444416741E+01  0.23384579293E+02  0.29552205223E+02  0.00000000000E+00 0. -1.
        -11    1    3    3    0    0 -0.44277623041E+02 -0.22682054366E+02 -0.72463216409E+02  0.87897105896E+02  0.00000000000E+00 0.  1.
         11    1    3    3    0    0  0.43400793009E+02 -0.37883602879E+02 -0.62715068944E+02  0.85158534942E+02  0.00000000000E+00 0. -1.
         -2    1    1    2    0  502 -0.84465181101E+01  0.35649341023E+02 -0.42878435635E+02  0.56398399145E+02  0.00000000000E+00 0.  1.
<scales pt_clust_5="13000.00000" pt_clust_6="13000.00000" pt_clust_7="13000.00000" pt_clust_8="13000.00000" pt_clust_9="36.63633"></scales>
<clustering>
<clus scale="   36.636">  1  9  2 -1</clus>
<clus scale="   81.253">  5  6 -1 -1</clus>
<clus scale="   89.477">  7  8 -1 -1</clus>
<clus scale="   94.523">  1  5  2 -1</clus>
<clus scale="   36.636">  1  5  2 -1</clus>
</clustering>
</event>
<event>
 9    2  0.3745229E-005  0.9390656E+02  0.7546771E-02  0.1301619E+00
         21   -1    0    0  501  502  0.00000000000E+00  0.00000000000E+00  0.20327148676E+02  0.20327148676E+02  0.00000000000E+00 0.  1.
         -1   -1    0    0    0  501 -0.00000000000E+00 -0.00000000000E+00 -0.78538888676E+03  0.78538888676E+03  0.00000000000E+00 0.  1.
         24    2    1    2    0    0 -0.22022026505E+02  0.56891285169E+01 -0.50378770359E+03  0.51043213827E+03  0.78877003328E+02 0.  0.
         23    2    1    2    0    0  0.28697356280E+01  0.19212990275E+02 -0.13101032320E+03  0.16128553805E+03  0.92043172593E+02 0.  0.
        -13    1    3    3    0    0 -0.43074068768E+02  0.24430642842E+02 -0.23439001207E+03  0.23956399869E+03  0.00000000000E+00 0.  1.
         14    1    3    3    0    0  0.21052042263E+02 -0.18741514325E+02 -0.26939769152E+03  0.27086813958E+03  0.00000000000E+00 0. -1.
        -13    1    4    4    0    0  0.31148854275E+02  0.23167979105E+02 -0.14681800709E+02  0.41503754656E+02  0.00000000000E+00 0.  1.
         13    1    4    4    0    0 -0.28279118647E+02 -0.39549888296E+01 -0.11632852249E+03  0.11978178339E+03  0.00000000000E+00 0. -1.
         -2    1    1    2    0  502  0.19152290877E+02 -0.24902118792E+02 -0.13026371130E+03  0.13399835912E+03  0.00000000000E+00 0.  1.
<scales pt_clust_5="13000.00000" pt_clust_6="13000.00000" pt_clust_7="13000.00000" pt_clust_8="13000.00000" pt_clust_9="31.41539"></scales>
<clustering>
<clus scale="   31.415">  1  9  2 -1</clus>
<clus scale="   78.877">  5  6 -1 -1</clus>
<clus scale="   81.044">  2  5  1 -1</clus>
<clus scale="   92.043">  7  8 -1 -1</clus>
<clus scale="   31.415">  1  5  2 -1</clus>
</clustering>
</event>
<event>
 9    2  0.3745229E-005  0.9510338E+02  0.7546771E-02  0.1296738E+00
         -1   -1    0    0    0  501 -0.00000000000E+00  0.00000000000E+00  0.23481874901E+03  0.23481874901E+03  0.00000000000E+00 0.  1.
         21   -1    0    0  501  502  0.00000000000E+00 -0.00000000000E+00 -0.15700474191E+03  0.15700474191E+03  0.00000000000E+00 0.  1.
         23    2    1    2    0    0 -0.11241570196E+02  0.24152836427E+02  0.17533879131E+03  0.20055151723E+03  0.93634859524E+02 0.  0.
         24    2    1    2    0    0 -0.30118666921E+02  0.19399917102E+02 -0.20085211913E+02  0.93269938442E+02  0.83739923565E+02 0.  0.
        -13    1    4    4    0    0  0.77557999157E+01  0.33726566627E+02 -0.35838536737E+02  0.49820020516E+02  0.00000000000E+00 0.  1.
         14    1    4    4    0    0 -0.37874466836E+02 -0.14326649525E+02  0.15753324824E+02  0.43449917926E+02  0.00000000000E+00 0. -1.
        -11    1    3    3    0    0 -0.38291588878E+02 -0.18004145090E+02  0.11248668897E+03  0.12018173827E+03  0.00000000000E+00 0.  1.
         11    1    3    3    0    0  0.27050018682E+02  0.42156981516E+02  0.62852102344E+02  0.80369778962E+02  0.00000000000E+00 0. -1.
         -2    1    1    2    0  502  0.41360237117E+02 -0.43552753528E+02 -0.77439572298E+02  0.98002035244E+02  0.00000000000E+00 0.  1.
<scales pt_clust_5="13000.00000" pt_clust_6="13000.00000" pt_clust_7="13000.00000" pt_clust_8="13000.00000" pt_clust_9="60.06256"></scales>
<clustering>
<clus scale="   60.063">  2  9  1 -1</clus>
<clus scale="   83.740">  5  6 -1 -1</clus>
<clus scale="   85.379">  2  5  1 -1</clus>
<clus scale="   93.635">  7  8 -1 -1</clus>
<clus scale="   60.063">  2  5  1 -1</clus>
</clustering>
</event>
<event>
 9    2  0.3745229E-005  0.1024135E+03  0.7546771E-02  0.1280643E+00
         21   -1    0    0  501  502  0.00000000000E+00  0.00000000000E+00  0.86225215158E+02  0.86225215158E+02  0.00000000000E+00 0. -1.
         -1   -1    0    0    0  501 -0.00000000000E+00 -0.00000000000E+00 -0.26894185667E+03  0.26894185667E+03  0.00000000000E+00 0.  1.
         23    2    1    2    0    0  0.22429423846E+00 -0.50905779719E+02 -0.19303883522E+03  0.22000153399E+03  0.92440436711E+02 0.  0.
         24    2    1    2    0    0 -0.14902147034E+02  0.26662575827E+02 -0.24527539846E+02  0.90246986812E+02  0.81301608114E+02 0.  0.
        -13    1    4    4    0    0 -0.16616641046E+02  0.28993814303E+02  0.24309430006E+02  0.41324356192E+02  0.00000000000E+00 0.  1.
         14    1    4    4    0    0  0.17144940124E+01 -0.23312384757E+01 -0.48836969851E+02  0.48922630620E+02  0.00000000000E+00 0. -1.
        -11    1    3    3    0    0 -0.40017062536E+02 -0.50184937950E+02 -0.13358856830E+03  0.14820863292E+03  0.00000000000E+00 0. -1.
         11    1    3    3    0    0  0.40241356774E+02 -0.72084176892E+00 -0.59450266922E+02  0.71792901077E+02  0.00000000000E+00 0.  1.
         -2    1    1    2    0  502  0.14677852795E+02  0.24243203891E+02  0.34849733551E+02  0.44918551025E+02  0.00000000000E+00 0.  1.
<scales pt_clust_5="13000.00000" pt_clust_6="13000.00000" pt_clust_7="13000.00000" pt_clust_8="13000.00000" pt_clust_9="28.34029"></scales>
<clustering>
<clus scale="   28.340">  1  9  2 -1</clus>
<clus scale="   81.302">  5  6 -1 -1</clus>
<clus scale="   92.440">  7  8 -1 -1</clus>
<clus scale="   92.484">  1  5  2 -1</clus>
<clus scale="   28.340">  1  5  2 -1</clus>
</clustering>
</event>
<event>
 9    2  0.3745229E-005  0.9990525E+02  0.7546771E-02  0.1286456E+00
         -3   -1    0    0    0  501 -0.00000000000E+00  0.00000000000E+00  0.19323808383E+03  0.19323808383E+03  0.00000000000E+00 0.  1.
         21   -1    0    0  501  502  0.00000000000E+00 -0.00000000000E+00 -0.19454908120E+03  0.19454908120E+03  0.00000000000E+00 0. -1.
         23    2    1    2    0    0 -0.36474788838E+02 -0.29796455080E+01  0.13585336095E+03  0.16763032789E+03  0.91129043888E+02 0.  0.
         24    2    1    2    0    0  0.63148418455E+02 -0.37261354203E+02 -0.46805342595E+02  0.11770893674E+03  0.79300204437E+02 0.  0.
        -13    1    4    4    0    0  0.39408518767E+02  0.20912587865E+02 -0.25365055090E+02  0.51320110116E+02  0.00000000000E+00 0.  1.
         14    1    4    4    0    0  0.23739899687E+02 -0.58173942067E+02 -0.21440287505E+02  0.66388826629E+02  0.00000000000E+00 0. -1.
        -11    1    3    3    0    0 -0.22549541730E+02  0.42172634235E+02  0.89299103046E+02  0.10129828585E+03  0.00000000000E+00 0.  1.
         11    1    3    3    0    0 -0.13925247107E+02 -0.45152279743E+02  0.46554257900E+02  0.66332042043E+02  0.00000000000E+00 0. -1.
         -4    1    1    2    0  502 -0.26673629617E+02  0.40240999711E+02 -0.90359015718E+02  0.10244790040E+03  0.00000000000E+00 0.  1.
<scales pt_clust_5="13000.00000" pt_clust_6="13000.00000" pt_clust_7="13000.00000" pt_clust_8="13000.00000" pt_clust_9="48.27857"></scales>
<clustering>
<clus scale="   48.279">  2  9  1 -1</clus>
<clus scale="   79.300">  5  6 -1 -1</clus>
<clus scale="   89.247">  2  5  1 -1</clus>
<clus scale="   91.129">  7  8 -1 -1</clus>
<clus scale="   48.279">  2  5  1 -1</clus>
</clustering>
</event>
<event>
 9    2  0.3745229E-005  0.1492672E+03  0.7546771E-02  0.1203253E+00
          2   -1    0    0  502    0 -0.00000000000E+00  0.00000000000E+00  0.72469732732E+03  0.72469732732E+03  0.00000000000E+00 0. -1.
         21   -1    0    0  501  502  0.00000000000E+00 -0.00000000000E+00 -0.79251141035E+02  0.79251141035E+02  0.00000000000E+00 0. -1.
         24    2    1    2    0    0 -0.87382263985E+02 -0.90537000903E+02  0.56324142723E+03  0.58262117580E+03  0.79836837086E+02 0.  0.
         23    2    1    2    0    0  0.65142179999E+02  0.41893657717E+02 -0.51527751467E+01  0.11889616958E+03  0.90062011284E+02 0.  0.
        -11    1    3    3    0    0 -0.28567916210E+00 -0.50297838548E+02  0.14368061815E+03  0.15223033274E+03  0.00000000000E+00 0.  1.
         12    1    3    3    0    0 -0.87096584823E+02 -0.40239162355E+02  0.41956080908E+03  0.43039084306E+03  0.00000000000E+00 0. -1.
        -11    1    4    4    0    0  0.59712404490E+02  0.66979711569E+01  0.31456676238E+02  0.67822979494E+02  0.00000000000E+00 0.  1.
         11    1    4    4    0    0  0.54297755086E+01  0.35195686560E+02 -0.36609451384E+02  0.51073190082E+02  0.00000000000E+00 0. -1.
          1    1    1    2  501    0  0.22240083987E+02  0.48643343186E+02  0.87357534204E+02  0.10243112298E+03  0.00000000000E+00 0. -1.
<scales pt_clust_5="13000.00000" pt_clust_6="13000.00000" pt_clust_7="13000.00000" pt_clust_8="13000.00000" pt_clust_9="53.48644"></scales>
<clustering>
<clus scale="   53.486">  2  9  1 -1</clus>
<clus scale="   79.837">  5  6 -1 -1</clus>
<clus scale="   90.062">  7  8 -1 -1</clus>
<clus scale="  143.330">  1  5  2 -1</clus>
<clus scale="   53.486">  2  5  1 -1</clus>
</clustering>
</event>
<event>
 9    2  0.3745229E-005  0.1310796E+03  0.7546771E-02  0.1247059E+00
         -1   -1    0    0    0  501 -0.00000000000E+00  0.00000000000E+00  0.22932212406E+03  0.22932212406E+03  0.00000000000E+00 0.  1.
         21   -1    0    0  501  502  0.00000000000E+00 -0.00000000000E+00 -0.22212345751E+03  0.22212345751E+03  0.00000000000E+00 0.  1.
         24    2    1    2    0    0  0.15608727207E+01  0.37837198115E+02  0.24840508200E+02  0.88563791325E+02  0.76107847173E+02 0.  0.
         23    2    1    2    0    0  0.87497673580E+02 -0.72761541070E+02  0.12523797758E+03  0.19093477183E+03  0.88438969487E+02 0.  0.
        -11    1    3    3    0    0 -0.29639630833E+02  0.19731234748E+02  0.36167765573E+02  0.50753685651E+02  0.00000000000E+00 0.  1.
         12    1    3    3    0    0  0.31200503554E+02  0.18105963368E+02 -0.11327257373E+02  0.37810105674E+02  0.00000000000E+00 0. -1.
        -11    1    4    4    0    0 -0.62324850418E+01 -0.29652507986E+02  0.22192952255E+01  0.30381579468E+02  0.00000000000E+00 0. -1.
         11    1    4    4    0    0  0.93730158622E+02 -0.43109033084E+02  0.12301868236E+03  0.16055319236E+03  0.00000000000E+00 0.  1.
         -2    1    1    2    0  502 -0.89058546301E+02  0.34924342955E+02 -0.14287981923E+03  0.17194701842E+03  0.00000000000E+00 0.  1.
<scales pt_clust_5="13000.00000" pt_clust_6="13000.00000" pt_clust_7="13000.00000" pt_clust_8="13000.00000" pt_clust_9="96.74920"></scales>
<clustering>
<clus scale="   76.108">  5  6 -1 -1</clus>
<clus scale="   85.009">  1  5  2 -1</clus>
<clus scale="   88.439">  7  8 -1 -1</clus>
<clus scale="   96.749">  2  9  1 -1</clus>
<clus scale="   96.749">  2  5  1 -1</clus>
</clustering>
</event>
<event>
 9    2  0.3745229E-005  0.1175098E+03  0.7546771E-02  0.1250941E+00
          2   -1    0    0  502    0 -0.00000000000E+00  0.00000000000E+00  0.13707132939E+03  0.13707132939E+03  0.00000000000E+00 0. -1.
         21   -1    0    0  501  502  0.00000000000E+00 -0.00000000000E+00 -0.43813846306E+03  0.43813846306E+03  0.00000000000E+00 0. -1.
         23    2    1    2    0    0 -0.56368961550E+02 -0.54764254043E+02  0.69276239723E+02  0.13882643780E+03  0.91087864692E+02 0.  0.
         24    2    1    2    0    0  0.84672086450E+02 -0.12429292313E+02 -0.92950310045E+02  0.14956816825E+03  0.80043908489E+02 0.  0.
        -11    1    4    4    0    0  0.92146745800E+02  0.12647592193E+01 -0.52152489276E+02  0.10588911424E+03  0.00000000000E+00 0.  1.
         12    1    4    4    0    0 -0.74746593510E+01 -0.13694051532E+02 -0.40797820769E+02  0.43679054010E+02  0.00000000000E+00 0. -1.
        -13    1    3    3    0    0 -0.91633824489E+01 -0.63021655704E+02  0.64540467544E+02  0.90670660173E+02  0.00000000000E+00 0. -1.
         13    1    3    3    0    0 -0.47205579101E+02  0.82574016602E+01  0.47357721791E+01  0.48155777624E+02  0.00000000000E+00 0.  1.
          1    1    1    2  501    0 -0.28303124900E+02  0.67193546356E+02 -0.27739306336E+03  0.28681518640E+03  0.00000000000E+00 0. -1.
<scales pt_clust_5="13000.00000" pt_clust_6="13000.00000" pt_clust_7="13000.00000" pt_clust_8="13000.00000" pt_clust_9="72.91118"></scales>
<clustering>
<clus scale="   72.911">  2  9  1 -1</clus>
<clus scale="   80.044">  5  6 -1 -1</clus>
<clus scale="   91.088">  7  8 -1 -1</clus>
<clus scale="  109.172">  2  5  1 -1</clus>
<clus scale="   72.911">  2  5  1 -1</clus>
</clustering>
</event>
<event>
 9    2  0.3745229E-005  0.1870931E+03  0.7546771E-02  0.1187214E+00
          2   -1    0    0  502    0 -0.00000000000E+00  0.00000000000E+00  0.23445942464E+03  0.23445942464E+03  0.00000000000E+00 0. -1.
         21   -1    0    0  501  502  0.00000000000E+00 -0.00000000000E+00 -0.88713510234E+03  0.88713510234E+03  0.00000000000E+00 0. -1.
         23    2    1    2    0    0 -0.17333421206E+02  0.43648025517E+02  0.13486928036E+03  0.16995347890E+03  0.92135034504E+02 0.  0.
         24    2    1    2    0    0  0.21376914495E+02 -0.20714567141E+03 -0.99732238493E+02  0.24465153807E+03  0.80879874083E+02 0.  0.
        -11    1    4    4    0    0  0.43735084474E+02 -0.72292950761E+02 -0.55034251336E+02  0.10083549555E+03  0.00000000000E+00 0.  1.
         12    1    4    4    0    0 -0.22358169979E+02 -0.13485272064E+03 -0.44697987158E+02  0.14381604252E+03  0.00000000000E+00 0. -1.
        -13    1    3    3    0    0 -0.54519942815E+02  0.34335837153E+02  0.75153649615E+02  0.98992145790E+02  0.00000000000E+00 0. -1.
         13    1    3    3    0    0  0.37186521609E+02  0.93121883644E+01  0.59715630744E+02  0.70961333110E+02  0.00000000000E+00 0.  1.
          1    1    1    2  501    0 -0.40434932895E+01  0.16349764589E+03 -0.68781271957E+03  0.70698951000E+03  0.00000000000E+00 0. -1.
<scales pt_clust_5="13000.00000" pt_clust_6="13000.00000" pt_clust_7="13000.00000" pt_clust_8="13000.00000" pt_clust_9="168.70769"></scales>
<clustering>
<clus scale="   80.880">  5  6 -1 -1</clus>
<clus scale="   92.135">  7  8 -1 -1</clus>
<clus scale="  103.414">  1  7  2 -1</clus>
<clus scale="  168.708">  2  9  1 -1</clus>
<clus scale="  168.708">  2  5  1 -1</clus>
</clustering>
</event>
<event>
 9    2  0.3745229E-005  0.1048037E+03  0.7546771E-02  0.1275590E+00
         21   -1    0    0  501  502  0.00000000000E+00  0.00000000000E+00  0.25760510992E+03  0.25760510992E+03  0.00000000000E+00 0.  1.
         -1   -1    0    0    0  501 -0.00000000000E+00 -0.00000000000E+00 -0.78364637570E+02  0.78364637570E+02  0.00000000000E+00 0.  1.
         23    2    1    2    0    0 -0.54123266882E+02  0.57302608256E+01 -0.43381118829E+01  0.10650152243E+03  0.91441736414E+02 0.  0.
         24    2    1    2    0    0  0.44150847764E+02  0.26384453506E+02  0.93883626470E+02  0.13367683992E+03  0.80062010126E+02 0.  0.
        -11    1    4    4    0    0 -0.11347786806E+02  0.33966067794E+02  0.54462639569E+02  0.65181631888E+02  0.00000000000E+00 0.  1.
         12    1    4    4    0    0  0.55498634570E+02 -0.75816142884E+01  0.39420986901E+02  0.68495208027E+02  0.00000000000E+00 0. -1.
        -13    1    3    3    0    0  0.89539744305E+01 -0.24195598399E+02  0.19916282386E+02  0.32592314187E+02  0.00000000000E+00 0. -1.
         13    1    3    3    0    0 -0.63077241313E+02  0.29925859225E+02 -0.24254394269E+02  0.73909208244E+02  0.00000000000E+00 0.  1.
         -2    1    1    2    0  502  0.99724191181E+01 -0.32114714331E+02  0.89694957758E+02  0.95791385139E+02  0.00000000000E+00 0.  1.
<scales pt_clust_5="13000.00000" pt_clust_6="13000.00000" pt_clust_7="13000.00000" pt_clust_8="13000.00000" pt_clust_9="33.62743"></scales>
<clustering>
<clus scale="   33.627">  1  9  2 -1</clus>
<clus scale="   80.062">  5  6 -1 -1</clus>
<clus scale="   91.442">  7  8 -1 -1</clus>
<clus scale="   95.038">  1  5  2 -1</clus>
<clus scale="   33.627">  1  5  2 -1</clus>
</clustering>
</event>
<event>
 9    2  0.3745229E-005  0.2213188E+03  0.7546771E-02  0.1132904E+00
         -1   -1    0    0    0  501 -0.00000000000E+00  0.00000000000E+00  0.57039407484E+03  0.57039407484E+03  0.00000000000E+00 0.  1.
         21   -1    0    0  501  502  0.00000000000E+00 -0.00000000000E+00 -0.10240513643E+03  0.10240513643E+03  0.00000000000E+00 0. -1.
         24    2    1    2    0    0 -0.70545847331E+02  0.62112113450E+02  0.30687392622E+02  0.12791205195E+03  0.81148910997E+02 0.  0.
         23    2    1    2    0    0 -0.31494813539E+02  0.10058302647E+02  0.67359837545E+01  0.96548483044E+02  0.90460728325E+02 0.  0.
        -13    1    3    3    0    0 -0.38241162629E+02  0.30575120553E+02  0.57407715368E+02  0.75451111985E+02  0.00000000000E+00 0.  1.
         14    1    3    3    0    0 -0.32304684702E+02  0.31536992897E+02 -0.26720322745E+02  0.52460939968E+02  0.00000000000E+00 0. -1.
        -11    1    4    4    0    0  0.17364268396E+02  0.32867339458E+02  0.18252031242E+02  0.41411549892E+02  0.00000000000E+00 0.  1.
         11    1    4    4    0    0 -0.48859081935E+02 -0.22809036811E+02 -0.11516047487E+02  0.55136933153E+02  0.00000000000E+00 0. -1.
         -2    1    1    2    0  502  0.10204066087E+03 -0.72170416097E+02  0.43056556204E+03  0.44833867628E+03  0.00000000000E+00 0.  1.
<scales pt_clust_5="13000.00000" pt_clust_6="13000.00000" pt_clust_7="13000.00000" pt_clust_8="13000.00000" pt_clust_9="124.98352"></scales>
<clustering>
<clus scale="   81.149">  5  6 -1 -1</clus>
<clus scale="   90.461">  7  8 -1 -1</clus>
<clus scale="   96.302">  5  7 -1 -1</clus>
<clus scale="  124.984">  2  9  1 -1</clus>
<clus scale="  124.984">  2  5  1 -1</clus>
</clustering>
</event>
<event>
 9    2  0.3745229E-005  0.9250309E+02  0.7546771E-02  0.1303501E+00
         21   -1    0    0  501  502  0.00000000000E+00  0.00000000000E+00  0.99111991026E+02  0.99111991026E+02  0.00000000000E+00 0.  1.
          2   -1    0    0  502    0 -0.00000000000E+00 -0.00000000000E+00 -0.15995076857E+03  0.15995076857E+03  0.00000000000E+00 0. -1.
         23    2    1    2    0    0  0.70961215695E+01 -0.58416348104E+00 -0.80333198623E+02  0.12204290671E+03  0.91598865113E+02 0.  0.
         24    2    1    2    0    0 -0.23695505766E+02 -0.30434988977E+02  0.37920158856E+02  0.97305432482E+02  0.80886607021E+02 0.  0.
        -13    1    4    4    0    0 -0.36040841278E+02 -0.31990984334E+02  0.56928253187E+02  0.74586803991E+02  0.00000000000E+00 0.  1.
         14    1    4    4    0    0  0.12345335511E+02  0.15559953572E+01 -0.19008094331E+02  0.22718628491E+02  0.00000000000E+00 0. -1.
        -13    1    3    3    0    0 -0.33971938723E+02  0.24055110312E+02 -0.23797211859E+02  0.47948391474E+02  0.00000000000E+00 0.  1.
         13    1    3    3    0    0  0.41068060293E+02 -0.24639273793E+02 -0.56535986764E+02  0.74094515240E+02  0.00000000000E+00 0. -1.
          1    1    1    2  501    0  0.16599384197E+02  0.31019152458E+02 -0.18425737775E+02  0.39714420397E+02  0.00000000000E+00 0. -1.
<scales pt_clust_5="13000.00000" pt_clust_6="13000.00000" pt_clust_7="13000.00000" pt_clust_8="13000.00000" pt_clust_9="35.18137"></scales>
<clustering>
<clus scale="   35.181">  1  9  2 -1</clus>
<clus scale="   80.887">  5  6 -1 -1</clus>
<clus scale="   81.909">  1  5  2 -1</clus>
<clus scale="   91.599">  7  8 -1 -1</clus>
<clus scale="   35.181">  1  5  2 -1</clus>
</clustering>
</event>
<event>
 9    2  0.3745229E-005  0.1246229E+03  0.7546771E-02  0.1249469E+00
         21   -1    0    0  501  502  0.00000000000E+00  0.00000000000E+00  0.64877033393E+02  0.64877033393E+02  0.00000000000E+00 0.  1.
          2   -1    0    0  502    0 -0.00000000000E+00 -0.00000000000E+00 -0.39059075723E+03  0.39059075723E+03  0.00000000000E+00 0. -1.
         23    2    1    2    0    0  0.40221690453E+02 -0.14068079637E+02 -0.10995924261E+03  0.14482794758E+03  0.84073801609E+02 0.  0.
         24    2    1    2    0    0  0.56738919286E+01 -0.82727910925E+02 -0.11762995461E+03  0.16536668312E+03  0.81444664460E+02 0.  0.
        -11    1    4    4    0    0 -0.20501308663E+02 -0.80974182288E+02 -0.62533605174E+02  0.10434353660E+03  0.00000000000E+00 0.  1.
         12    1    4    4    0    0  0.26175200591E+02 -0.17537286370E+01 -0.55096349434E+02  0.61023146519E+02  0.00000000000E+00 0. -1.
        -13    1    3    3    0    0  0.23874940721E+02 -0.44412713699E+02 -0.94375606285E+02  0.10700120090E+03  0.00000000000E+00 0. -1.
         13    1    3    3    0    0  0.16346749732E+02  0.30344634062E+02 -0.15583636326E+02  0.37826746679E+02  0.00000000000E+00 0.  1.
          1    1    1    2  501    0 -0.45895582381E+02  0.96795990561E+02 -0.98124526621E+02  0.14527315993E+03  0.00000000000E+00 0. -1.
<scales pt_clust_5="13000.00000" pt_clust_6="13000.00000" pt_clust_7="13000.00000" pt_clust_8="13000.00000" pt_clust_9="94.32736"></scales>
<clustering>
<clus scale="   81.445">  5  6 -1 -1</clus>
<clus scale="   84.074">  7  8 -1 -1</clus>
<clus scale="   94.256">  2  7  1 -1</clus>
<clus scale="   94.327">  1  9  2 -1</clus>
<clus scale="   94.327">  1  5  2 -1</clus>
</clustering>
</event>
<event>
 9    2  0.3745229E-005  0.1519443E+03  0.7546771E-02  0.1212954E+00
          2   -1    0    0  502    0 -0.00000000000E+00  0.00000000000E+00  0.96397270209E+02  0.96397270209E+02  0.00000000000E+00 0. -1.
         21   -1    0    0  501  502  0.00000000000E+00 -0.00000000000E+00 -0.65860380388E+03  0.65860380388E+03  0.00000000000E+00 0. -1.
         23    2    1    2    0    0 -0.35055281933E+02 -0.54445218957E+02  0.77512765384E+01  0.11065869480E+03  0.89398600591E+02 0.  0.
         24    2    1    2    0    0  0.70705951897E+01 -0.90527578558E+02 -0.11968572293E+03  0.17048036637E+03  0.80583169747E+02 0.  0.
        -11    1    4    4    0    0  0.24481835394E+02 -0.16964025808E+02 -0.10463293617E+01  0.29803242122E+02  0.00000000000E+00 0.  1.
         12    1    4    4    0    0 -0.17411240204E+02 -0.73563552751E+02 -0.11863939357E+03  0.14067712424E+03  0.00000000000E+00 0. -1.
        -11    1    3    3    0    0 -0.22007780953E+02  0.42210499272E+01  0.37433924634E+02  0.43628641951E+02  0.00000000000E+00 0.  1.
         11    1    3    3    0    0 -0.13047500980E+02 -0.58666268885E+02 -0.29682648096E+02  0.67030052847E+02  0.00000000000E+00 0. -1.
          1    1    1    2  501    0  0.27984686743E+02  0.14497279752E+03 -0.45027208728E+03  0.47386201292E+03  0.00000000000E+00 0. -1.
<scales pt_clust_5="13000.00000" pt_clust_6="13000.00000" pt_clust_7="13000.00000" pt_clust_8="13000.00000" pt_clust_9="128.81544"></scales>
<clustering>
<clus scale="   80.583">  5  6 -1 -1</clus>
<clus scale="   89.399">  7  8 -1 -1</clus>
<clus scale="  110.387">  1  7  2 -1</clus>
<clus scale="  128.815">  2  9  1 -1</clus>
<clus scale="  128.815">  2  5  1 -1</clus>
</clustering>
</event>
<event>
 9    2  0.3745229E-005  0.3953647E+03  0.7546771E-02  0.1045397E+00
          2   -1    0    0  502    0 -0.00000000000E+00  0.00000000000E+00  0.67387171221E+03  0.67387171221E+03  0.00000000000E+00 0. -1.
         21   -1    0    0  501  502  0.00000000000E+00 -0.00000000000E+00 -0.22908688798E+03  0.22908688798E+03  0.00000000000E+00 0. -1.
         24    2    1    2    0    0 -0.27797453139E+02  0.25757828642E+03  0.20304272134E+02  0.27240805534E+03  0.81698305427E+02 0.  0.
         23    2    1    2    0    0  0.24310677558E+02  0.72034607752E+02  0.45708095814E+02  0.12842965178E+03  0.92870617938E+02 0.  0.
        -11    1    3    3    0    0  0.97340790738E+01  0.10479234687E+03 -0.25999614465E+02  0.10840741769E+03  0.00000000000E+00 0.  1.
         12    1    3    3    0    0 -0.37531532213E+02  0.15278593955E+03  0.46303886599E+02  0.16400063765E+03  0.00000000000E+00 0. -1.
        -13    1    4    4    0    0 -0.21919647210E+02  0.64126955765E+02  0.79823155069E+01  0.68238220598E+02  0.00000000000E+00 0.  1.
         13    1    4    4    0    0  0.46230324768E+02  0.79076519874E+01  0.37725780307E+02  0.60191431183E+02  0.00000000000E+00 0. -1.
          1    1    1    2  501    0  0.34867755814E+01 -0.32961289418E+03  0.37877245628E+03  0.50212089306E+03  0.00000000000E+00 0. -1.
<scales pt_clust_5="13000.00000" pt_clust_6="13000.00000" pt_clust_7="13000.00000" pt_clust_8="13000.00000" pt_clust_9="329.63150"></scales>
<clustering>
<clus scale="   81.698">  5  6 -1 -1</clus>
<clus scale="   92.871">  7  8 -1 -1</clus>
<clus scale="   99.908">  5  7 -1 -1</clus>
<clus scale="  329.632">  2  9  1 -1</clus>
<clus scale="  329.632">  2  5  1 -1</clus>
</clustering>
</event>
<event>
 9    2  0.3745229E-005  0.1200575E+03  0.7546771E-02  0.1246498E+00
         21   -1    0    0  501  502  0.00000000000E+00  0.00000000000E+00  0.13501633388E+03  0.13501633388E+03  0.00000000000E+00 0.  1.
         -1   -1    0    0    0  501 -0.00000000000E+00 -0.00000000000E+00 -0.27610844928E+03  0.27610844928E+03  0.00000000000E+00 0.  1.
         24    2    1    2    0    0 -0.38042085029E+02  0.65121572127E+02 -0.21480762352E+03  0.24161110138E+03  0.80904819371E+02 0.  0.
         23    2    1    2    0    0  0.33089025190E+02 -0.85925590654E+02  0.55470534858E+02  0.14140284688E+03  0.91867808028E+02 0.  0.
        -13    1    3    3    0    0 -0.31758752020E+02  0.51204803081E+02 -0.21786064989E+03  0.22603940577E+03  0.00000000000E+00 0.  1.
         14    1    3    3    0    0 -0.62833330094E+01  0.13916769045E+02  0.30530263662E+01  0.15571695616E+02  0.00000000000E+00 0. -1.
        -13    1    4    4    0    0 -0.12698485316E+02 -0.81603769545E+02  0.25204153500E+02  0.86346256936E+02  0.00000000000E+00 0.  1.
         13    1    4    4    0    0  0.45787510506E+02 -0.43218211093E+01  0.30266381358E+02  0.55056589947E+02  0.00000000000E+00 0. -1.
         -2    1    1    2    0  502  0.49530598392E+01  0.20804018527E+02  0.18244973270E+02  0.28110834891E+02  0.00000000000E+00 0.  1.
<scales pt_clust_5="13000.00000" pt_clust_6="13000.00000" pt_clust_7="13000.00000" pt_clust_8="13000.00000" pt_clust_9="21.38551"></scales>
<clustering>
<clus scale="   21.386">  1  9  2 -1</clus>
<clus scale="   80.905">  5  6 -1 -1</clus>
<clus scale="   91.868">  7  8 -1 -1</clus>
<clus scale="  111.892">  2  5  1 -1</clus>
<clus scale="   21.386">  1  5  2 -1</clus>
</clustering>
</event>
<event>
 9    2  0.3745229E-005  0.1345399E+03  0.7546771E-02  0.1243971E+00
         21   -1    0    0  501  502  0.00000000000E+00  0.00000000000E+00  0.27381913279E+03  0.27381913279E+03  0.00000000000E+00 0.  1.
          2   -1    0    0  502    0 -0.00000000000E+00 -0.00000000000E+00 -0.16290672948E+03  0.16290672948E+03  0.00000000000E+00 0. -1.
         24    2    1    2    0    0  0.18098129075E+02  0.35531013122E+01  0.16407779835E+03  0.18417448237E+03  0.81599934071E+02 0.  0.
         23    2    1    2    0    0  0.77218239840E+02 -0.51885048638E+02  0.54015640021E+01  0.13068556843E+03  0.91623283429E+02 0.  0.
        -13    1    3    3    0    0  0.27638754782E+02  0.12612309681E+02  0.16777894789E+03  0.17050732088E+03  0.00000000000E+00 0.  1.
         14    1    3    3    0    0 -0.95406257072E+01 -0.90592083688E+01 -0.37011495383E+01  0.13667161485E+02  0.00000000000E+00 0. -1.
        -11    1    4    4    0    0  0.64252047306E+02  0.53063340937E+01 -0.18934410768E+02  0.67193710090E+02  0.00000000000E+00 0.  1.
         11    1    4    4    0    0  0.12966192534E+02 -0.57191382732E+02  0.24335974770E+02  0.63491858341E+02  0.00000000000E+00 0. -1.
          1    1    1    2  501    0 -0.95316368914E+02  0.48331947326E+02 -0.58566959033E+02  0.12186581147E+03  0.00000000000E+00 0. -1.
<scales pt_clust_5="13000.00000" pt_clust_6="13000.00000" pt_clust_7="13000.00000" pt_clust_8="13000.00000" pt_clust_9="98.51986"></scales>
<clustering>
<clus scale="   81.600">  5  6 -1 -1</clus>
<clus scale="   83.658">  2  5  1 -1</clus>
<clus scale="   91.623">  7  8 -1 -1</clus>
<clus scale="   98.520">  1  9  2 -1</clus>
<clus scale="   98.520">  1  5  2 -1</clus>
</clustering>
</event>
<event>
 9    2  0.3745229E-005  0.1463669E+03  0.7546771E-02  0.1206716E+00
         21   -1    0    0  501  502  0.00000000000E+00  0.00000000000E+00  0.31825371583E+03  0.31825371583E+03  0.00000000000E+00 0. -1.
         -1   -1    0    0    0  501 -0.00000000000E+00 -0.00000000000E+00 -0.18197389356E+03  0.18197389356E+03  0.00000000000E+00 0.  1.
         23    2    1    2    0    0  0.12108368311E+03  0.49522221360E+01 -0.90253049787E+02  0.17601031373E+03  0.90267572940E+02 0.  0.
         24    2    1    2    0    0 -0.86142078113E+02  0.74273155813E+02  0.17273816343E+03  0.22227884880E+03  0.81439881033E+02 0.  0.
        -13    1    4    4    0    0 -0.73512779009E+02  0.38278170584E+02  0.57455230438E+02  0.10084865158E+03  0.00000000000E+00 0.  1.
         14    1    4    4    0    0 -0.12629299104E+02  0.35994985229E+02  0.11528293299E+03  0.12143019722E+03  0.00000000000E+00 0. -1.
        -11    1    3    3    0    0  0.17360224276E+02 -0.22332887746E+02  0.91984429132E+01  0.29744690518E+02  0.00000000000E+00 0. -1.
         11    1    3    3    0    0  0.10372345883E+03  0.27285109882E+02 -0.99451492701E+02  0.14626562321E+03  0.00000000000E+00 0.  1.
         -2    1    1    2    0  502 -0.34941604993E+02 -0.79225377949E+02  0.53794708626E+02  0.10193844685E+03  0.00000000000E+00 0.  1.
<scales pt_clust_5="13000.00000" pt_clust_6="13000.00000" pt_clust_7="13000.00000" pt_clust_8="13000.00000" pt_clust_9="86.58855"></scales>
<clustering>
<clus scale="   81.440">  5  6 -1 -1</clus>
<clus scale="   86.589">  1  9  2 -1</clus>
<clus scale="   90.268">  7  8 -1 -1</clus>
<clus scale="  141.094">  1  5  2 -1</clus>
<clus scale="   86.589">  1  5  2 -1</clus>
</clustering>
</event>
<event>
 9    2  0.3745229E-005  0.1359791E+03  0.7546771E-02  0.1231354E+00
         21   -1    0    0  501  502  0.00000000000E+00  0.00000000000E+00  0.18997232746E+03  0.18997232746E+03  0.00000000000E+00 0.  1.
         -3   -1    0    0    0  501 -0.00000000000E+00 -0.00000000000E+00 -0.35224675525E+03  0.35224675525E+03  0.00000000000E+00 0.  1.
         23    2    1    2    0    0  0.49309707133E+02 -0.84476687461E+01 -0.15495355968E+03  0.18706647070E+03  0.92089350513E+02 0.  0.
         24    2    1    2    0    0 -0.83394015598E+02  0.11353168764E+03 -0.11827683461E+03  0.19857797290E+03  0.74831783221E+02 0.  0.
        -13    1    4    4    0    0 -0.10371518712E+01  0.40915658317E+02 -0.64319937171E+02  0.76237924271E+02  0.00000000000E+00 0.  1.
         14    1    4    4    0    0 -0.82356863726E+02  0.72616029323E+02 -0.53956897442E+02  0.12234004863E+03  0.00000000000E+00 0. -1.
        -11    1    3    3    0    0  0.29077965167E+02  0.73097451938E+01  0.22885542262E-01  0.29982677612E+02  0.00000000000E+00 0. -1.
         11    1    3    3    0    0  0.20231741966E+02 -0.15757413940E+02 -0.15497644522E+03  0.15708379309E+03  0.00000000000E+00 0.  1.
         -4    1    1    2    0  502  0.34084308464E+02 -0.10508401889E+03  0.11095596650E+03  0.15657463911E+03  0.00000000000E+00 0.  1.
<scales pt_clust_5="13000.00000" pt_clust_6="13000.00000" pt_clust_7="13000.00000" pt_clust_8="13000.00000" pt_clust_9="113.53643"></scales>
<clustering>
<clus scale="   74.832">  5  6 -1 -1</clus>
<clus scale="   92.089">  7  8 -1 -1</clus>
<clus scale="  104.801">  2  7  1 -1</clus>
<clus scale="  113.536">  1  9  2 -1</clus>
<clus scale="  113.536">  1  5  2 -1</clus>
</clustering>
</event>
<event>
 9    2  0.3745229E-005  0.7561985E+02  0.7546771E-02  0.1344169E+00
         21   -1    0    0  501  502  0.00000000000E+00  0.00000000000E+00  0.81622966874E+02  0.81622966874E+02  0.00000000000E+00 0.  1.
          4   -1    0    0  502    0 -0.00000000000E+00 -0.00000000000E+00 -0.15292885097E+03  0.15292885097E+03  0.00000000000E+00 0. -1.
         24    2    1    2    0    0 -0.81184964377E+01  0.20116462599E+02 -0.92108887020E+02  0.11821488981E+03  0.70852883169E+02 0.  0.
         23    2    1    2    0    0 -0.67832403620E+00  0.66987333126E+01  0.38052529228E+02  0.83261484877E+02  0.73750571061E+02 0.  0.
        -13    1    3    3    0    0  0.29976235625E+02  0.18528589712E+02 -0.52554201329E+02  0.63275804351E+02  0.00000000000E+00 0.  1.
         14    1    3    3    0    0 -0.38094732062E+02  0.15878728867E+01 -0.39554685691E+02  0.54939085461E+02  0.00000000000E+00 0. -1.
        -13    1    4    4    0    0  0.16738455785E+02  0.36021033075E+02  0.17179355402E+02  0.43276101695E+02  0.00000000000E+00 0. -1.
         13    1    4    4    0    0 -0.17416779821E+02 -0.29322299762E+02  0.20873173826E+02  0.39985383182E+02  0.00000000000E+00 0.  1.
          3    1    1    2  501    0  0.87968204739E+01 -0.26815195912E+02 -0.17249526305E+02  0.33075443156E+02  0.00000000000E+00 0. -1.
<scales pt_clust_5="13000.00000" pt_clust_6="13000.00000" pt_clust_7="13000.00000" pt_clust_8="13000.00000" pt_clust_9="28.22126"></scales>
<clustering>
<clus scale="   28.221">  1  9  2 -1</clus>
<clus scale="   70.853">  5  6 -1 -1</clus>
<clus scale="   72.797">  2  5  1 -1</clus>
<clus scale="   73.751">  7  8 -1 -1</clus>
<clus scale="   28.221">  1  5  2 -1</clus>
</clustering>
</event>
<event>
 9    2  0.3745229E-005  0.9020932E+02  0.7546771E-02  0.1307374E+00
          2   -1    0    0  502    0 -0.00000000000E+00  0.00000000000E+00  0.36802391289E+03  0.36802391289E+03  0.00000000000E+00 0. -1.
         21   -1    0    0  501  502  0.00000000000E+00 -0.00000000000E+00 -0.45684179599E+02  0.45684179599E+02  0.00000000000E+00 0. -1.
         24    2    1    2    0    0 -0.55600833303E+01  0.23998581839E+02  0.19487778739E+03  0.21265545675E+03  0.81474810897E+02 0.  0.
         23    2    1    2    0    0 -0.17988370160E+02  0.10353014334E+02  0.13017355824E+03  0.15931638455E+03  0.89475073373E+02 0.  0.
        -13    1    3    3    0    0  0.21236196070E+02 -0.19933050267E+02  0.40197945682E+02  0.49640480996E+02  0.00000000000E+00 0.  1.
         14    1    3    3    0    0 -0.26796279401E+02  0.43931632106E+02  0.15467984171E+03  0.16301497576E+03  0.00000000000E+00 0. -1.
        -11    1    4    4    0    0 -0.43091290419E+02 -0.23766067305E+02  0.76139348258E+02  0.90658069791E+02  0.00000000000E+00 0. -1.
         11    1    4    4    0    0  0.25102920259E+02  0.34119081639E+02  0.54034209980E+02  0.68658314759E+02  0.00000000000E+00 0.  1.
          1    1    1    2  501    0  0.23548453491E+02 -0.34351596174E+02 -0.27116123398E+01  0.41736251185E+02  0.00000000000E+00 0. -1.
<scales pt_clust_5="13000.00000" pt_clust_6="13000.00000" pt_clust_7="13000.00000" pt_clust_8="13000.00000" pt_clust_9="41.64807"></scales>
<clustering>
<clus scale="   41.648">  2  9  1 -1</clus>
<clus scale="   81.475">  5  6 -1 -1</clus>
<clus scale="   82.280">  1  5  2 -1</clus>
<clus scale="   89.475">  7  8 -1 -1</clus>
<clus scale="   41.648">  2  5  1 -1</clus>
</clustering>
</event>
<event>
 9    2  0.3745229E-005  0.1701167E+03  0.7546771E-02  0.1198094E+00
         21   -1    0    0  501  502  0.00000000000E+00  0.00000000000E+00  0.75822902422E+02  0.75822902422E+02  0.00000000000E+00 0.  1.
         -3   -1    0    0    0  501 -0.00000000000E+00 -0.00000000000E+00 -0.70144916504E+03  0.70144916504E+03  0.00000000000E+00 0.  1.
         23    2    1    2    0    0 -0.46445756829E+02 -0.17643567409E+02 -0.69141384894E+02  0.12848059926E+03  0.96219693840E+02 0.  0.
         24    2    1    2    0    0  0.15335012220E+03  0.97693547568E+02 -0.36380226941E+03  0.41434930005E+03  0.79202032872E+02 0.  0.
        -11    1    4    4    0    0  0.59922478853E+02  0.79099607639E+02 -0.14495584642E+03  0.17566914587E+03  0.00000000000E+00 0.  1.
         12    1    4    4    0    0  0.93427643350E+02  0.18593939929E+02 -0.21884642299E+03  0.23868015418E+03  0.00000000000E+00 0. -1.
        -11    1    3    3    0    0  0.25644217899E+02 -0.24740028552E+02 -0.26683591341E+02  0.44516389917E+02  0.00000000000E+00 0.  1.
         11    1    3    3    0    0 -0.72089974728E+02  0.70964611433E+01 -0.42457793553E+02  0.83964209342E+02  0.00000000000E+00 0. -1.
         -4    1    1    2    0  502 -0.10690436537E+03 -0.80049980160E+02 -0.19268260831E+03  0.23444216815E+03  0.00000000000E+00 0.  1.
<scales pt_clust_5="13000.00000" pt_clust_6="13000.00000" pt_clust_7="13000.00000" pt_clust_8="13000.00000" pt_clust_9="150.55478"></scales>
<clustering>
<clus scale="   79.202">  5  6 -1 -1</clus>
<clus scale="   96.220">  7  8 -1 -1</clus>
<clus scale="  108.290">  2  7  1 -1</clus>
<clus scale="  150.555">  1  9  2 -1</clus>
<clus scale="  150.555">  1  5  2 -1</clus>
</clustering>
</event>
<event>
 9    2  0.3745229E-005  0.1272356E+03  0.7546771E-02  0.1250744E+00
         21   -1    0    0  501  502  0.00000000000E+00  0.00000000000E+00  0.25148594668E+03  0.25148594668E+03  0.00000000000E+00 0. -1.
          2   -1    0    0  502    0 -0.00000000000E+00 -0.00000000000E+00 -0.24948394818E+03  0.24948394818E+03  0.00000000000E+00 0. -1.
         24    2    1    2    0    0  0.23938175319E+02 -0.23857877193E+02 -0.48249538430E+02  0.98907968919E+02  0.79451455716E+02 0.  0.
         23    2    1    2    0    0  0.21127066694E+02 -0.55080803193E+02 -0.14832106463E+03  0.18367403848E+03  0.90866750637E+02 0.  0.
        -13    1    3    3    0    0  0.28879086256E+01  0.24963308262E+02  0.26950754767E+01  0.25273903684E+02  0.00000000000E+00 0.  1.
         14    1    3    3    0    0  0.21050266693E+02 -0.48821185455E+02 -0.50944613907E+02  0.73634065236E+02  0.00000000000E+00 0. -1.
        -11    1    4    4    0    0  0.25543817354E+01 -0.71820875940E+02 -0.13991972469E+03  0.15729682910E+03  0.00000000000E+00 0.  1.
         11    1    4    4    0    0  0.18572684959E+02  0.16740072748E+02 -0.84013399453E+01  0.26377209387E+02  0.00000000000E+00 0. -1.
          1    1    1    2  501    0 -0.45065242013E+02  0.78938680386E+02  0.19857260156E+03  0.21838788746E+03  0.00000000000E+00 0. -1.
<scales pt_clust_5="13000.00000" pt_clust_6="13000.00000" pt_clust_7="13000.00000" pt_clust_8="13000.00000" pt_clust_9="89.06258"></scales>
<clustering>
<clus scale="   79.451">  5  6 -1 -1</clus>
<clus scale="   86.341">  2  5  1 -1</clus>
<clus scale="   89.063">  1  9  2 -1</clus>
<clus scale="   90.867">  7  8 -1 -1</clus>
<clus scale="   89.063">  1  5  2 -1</clus>
</clustering>
</event>
<event>
 9    2  0.3745229E-005  0.1082293E+03  0.7546771E-02  0.1267215E+00
         21   -1    0    0  501  502  0.00000000000E+00  0.00000000000E+00  0.30717931735E+03  0.30717931735E+03  0.00000000000E+00 0.  1.
          2   -1    0    0  502    0 -0.00000000000E+00 -0.00000000000E+00 -0.11731877364E+03  0.11731877364E+03  0.00000000000E+00 0. -1.
         23    2    1    2    0    0  0.46085152308E+02 -0.28501939543E+02 -0.63057550227E+02  0.12293483607E+03  0.90556708523E+02 0.  0.
         24    2    1    2    0    0 -0.76106879717E+02  0.42661636151E+02  0.14249406938E+03  0.18625815389E+03  0.82312014565E+02 0.  0.
        -11    1    4    4    0    0 -0.50663814835E+02  0.55198118275E+02  0.13869798619E+03  0.15764131999E+03  0.00000000000E+00 0.  1.
         12    1    4    4    0    0 -0.25443064882E+02 -0.12536482125E+02  0.37960831879E+01  0.28616833896E+02  0.00000000000E+00 0. -1.
        -11    1    3    3    0    0  0.72823005908E+02 -0.24891451510E+02 -0.55599485306E+02  0.94942494775E+02  0.00000000000E+00 0.  1.
         11    1    3    3    0    0 -0.26737853600E+02 -0.36104880335E+01 -0.74580649209E+01  0.27992341298E+02  0.00000000000E+00 0. -1.
          1    1    1    2  501    0  0.30021727409E+02 -0.14159696607E+02  0.11042402455E+03  0.11530510103E+03  0.00000000000E+00 0. -1.
<scales pt_clust_5="13000.00000" pt_clust_6="13000.00000" pt_clust_7="13000.00000" pt_clust_8="13000.00000" pt_clust_9="33.19339"></scales>
<clustering>
<clus scale="   33.193">  1  9  2 -1</clus>
<clus scale="   82.312">  5  6 -1 -1</clus>
<clus scale="   90.557">  7  8 -1 -1</clus>
<clus scale="  101.431">  1  5  2 -1</clus>
<clus scale="   33.193">  1  5  2 -1</clus>
</clustering>
</event>
<event>
 9    2  0.3745229E-005  0.1012164E+03  0.7546771E-02  0.1279181E+00
         21   -1    0    0  501  502  0.00000000000E+00  0.00000000000E+00  0.30678849629E+03  0.30678849629E+03  0.00000000000E+00 0.  1.
         -3   -1    0    0    0  501 -0.00000000000E+00 -0.00000000000E+00 -0.63980033963E+02  0.63980033963E+02  0.00000000000E+00 0.  1.
         23    2    1    2    0    0 -0.10788132597E+02  0.55254949565E+02  0.27460152018E+02  0.10900862663E+03  0.89215063044E+02 0.  0.
         24    2    1    2    0    0 -0.11089590134E+02 -0.18859759531E+02  0.95169935511E+02  0.13429976720E+03  0.92197837856E+02 0.  0.
        -11    1    4    4    0    0 -0.47771486566E+01 -0.43846597939E+02  0.98772294868E+01  0.45198506197E+02  0.00000000000E+00 0.  1.
         12    1    4    4    0    0 -0.63124414776E+01  0.24986838407E+02  0.85292706025E+02  0.89101261001E+02  0.00000000000E+00 0. -1.
        -11    1    3    3    0    0 -0.17196824635E+02 -0.18042579898E+02 -0.94947040268E+01  0.26672361565E+02  0.00000000000E+00 0. -1.
         11    1    3    3    0    0  0.64086920384E+01  0.73297529463E+02  0.36954856045E+02  0.82336265062E+02  0.00000000000E+00 0.  1.
         -4    1    1    2    0  502  0.21877722731E+02 -0.36395190034E+02  0.12017837480E+03  0.12746013643E+03  0.00000000000E+00 0.  1.
<scales pt_clust_5="13000.00000" pt_clust_6="13000.00000" pt_clust_7="13000.00000" pt_clust_8="13000.00000" pt_clust_9="42.46463"></scales>
<clustering>
<clus scale="   42.465">  1  9  2 -1</clus>
<clus scale="   89.215">  7  8 -1 -1</clus>
<clus scale="   92.198">  5  6 -1 -1</clus>
<clus scale="   98.507">  2  7  1 -1</clus>
<clus scale="   42.465">  1  5  2 -1</clus>
</clustering>
</event>
<event>
 9    2  0.3745229E-005  0.1182720E+03  0.7546771E-02  0.1247019E+00
         21   -1    0    0  501  502  0.00000000000E+00  0.00000000000E+00  0.54039133691E+03  0.54039133691E+03  0.00000000000E+00 0.  1.
          2   -1    0    0  502    0 -0.00000000000E+00 -0.00000000000E+00 -0.64127003200E+02  0.64127003200E+02  0.00000000000E+00 0. -1.
         23    2    1    2    0    0  0.33806534291E+02 -0.75639327065E+02  0.50338908051E+02  0.13328583434E+03  0.91470860999E+02 0.  0.
         24    2    1    2    0    0 -0.67374409816E+02  0.13569617086E+02  0.35060441301E+03  0.36802055825E+03  0.88273615918E+02 0.  0.
        -11    1    4    4    0    0 -0.60527330545E+02  0.26370693964E+02  0.34677868601E+03  0.35300768874E+03  0.00000000000E+00 0.  1.
         12    1    4    4    0    0 -0.68470792707E+01 -0.12801076878E+02  0.38257270044E+01  0.15012869509E+02  0.00000000000E+00 0. -1.
        -13    1    3    3    0    0 -0.10383361866E+02 -0.42850900929E+02  0.62929201129E+02  0.76838130305E+02  0.00000000000E+00 0.  1.
         13    1    3    3    0    0  0.44189896157E+02 -0.32788426136E+02 -0.12590293078E+02  0.56447704033E+02  0.00000000000E+00 0. -1.
          1    1    1    2  501    0  0.33567875525E+02  0.62069709979E+02  0.75321012645E+02  0.10321194752E+03  0.00000000000E+00 0. -1.
<scales pt_clust_5="13000.00000" pt_clust_6="13000.00000" pt_clust_7="13000.00000" pt_clust_8="13000.00000" pt_clust_9="70.56526"></scales>
<clustering>
<clus scale="   70.565">  1  9  2 -1</clus>
<clus scale="   88.274">  5  6 -1 -1</clus>
<clus scale="   91.471">  7  8 -1 -1</clus>
<clus scale="  115.817">  1  5  2 -1</clus>
<clus scale="   70.565">  1  5  2 -1</clus>
</clustering>
</event>
<event>
 9    2  0.3745229E-005  0.1008052E+03  0.7546771E-02  0.1283353E+00
         -1   -1    0    0    0  501 -0.00000000000E+00  0.00000000000E+00  0.39576478113E+03  0.39576478113E+03  0.00000000000E+00 0.  1.
         21   -1    0    0  501  502  0.00000000000E+00 -0.00000000000E+00 -0.63109370332E+02  0.63109370332E+02  0.00000000000E+00 0. -1.
         23    2    1    2    0    0 -0.53877814961E+02  0.14771681799E+02  0.14261697464E+03  0.17749028977E+03  0.89678202364E+02 0.  0.
         24    2    1    2    0    0  0.25489224810E+02  0.66451930599E+02  0.52418375701E+02  0.11908023172E+03  0.79792579940E+02 0.  0.
        -13    1    4    4    0    0  0.42299632990E+02  0.13856662108E+02  0.45125380546E+02  0.63384272538E+02  0.00000000000E+00 0.  1.
         14    1    4    4    0    0 -0.16810408179E+02  0.52595268491E+02  0.72929951558E+01  0.55695959181E+02  0.00000000000E+00 0. -1.
        -13    1    3    3    0    0 -0.77917577287E+02  0.15405066849E+02  0.92630706376E+02  0.12202013235E+03  0.00000000000E+00 0. -1.
         13    1    3    3    0    0  0.24039762327E+02 -0.63338504996E+00  0.49986268263E+02  0.55470157420E+02  0.00000000000E+00 0.  1.
         -2    1    1    2    0  502  0.28388590150E+02 -0.81223612398E+02  0.13762006046E+03  0.16230362997E+03  0.00000000000E+00 0.  1.
<scales pt_clust_5="13000.00000" pt_clust_6="13000.00000" pt_clust_7="13000.00000" pt_clust_8="13000.00000" pt_clust_9="86.04182"></scales>
<clustering>
<clus scale="   79.793">  5  6 -1 -1</clus>
<clus scale="   86.042">  2  9  1 -1</clus>
<clus scale="   89.678">  7  8 -1 -1</clus>
<clus scale="   92.121">  2  5  1 -1</clus>
<clus scale="   86.042">  2  5  1 -1</clus>
</clustering>
</event>
<event>
 9    2  0.3745229E-005  0.1031843E+03  0.7546771E-02  0.1276874E+00
         21   -1    0    0  501  502  0.00000000000E+00  0.00000000000E+00  0.12388840338E+03  0.12388840338E+03  0.00000000000E+00 0.  1.
          4   -1    0    0  502    0 -0.00000000000E+00 -0.00000000000E+00 -0.12058697833E+03  0.12058697833E+03  0.00000000000E+00 0. -1.
         23    2    1    2    0    0  0.23855269781E+02  0.61183721903E+02 -0.34875516799E+02  0.11526777536E+03  0.88078582197E+02 0.  0.
         24    2    1    2    0    0 -0.20541980483E+02 -0.28075726134E+02  0.37965669414E+02  0.95933563824E+02  0.80942184638E+02 0.  0.
        -11    1    4    4    0    0 -0.33022596433E+02 -0.51720715552E+02  0.26252460726E+02  0.66743658774E+02  0.00000000000E+00 0.  1.
         12    1    4    4    0    0  0.12480615950E+02  0.23644989418E+02  0.11713208687E+02  0.29189905050E+02  0.00000000000E+00 0. -1.
        -13    1    3    3    0    0 -0.23276923480E+02  0.57514030143E+02 -0.25449784850E+02  0.67062436422E+02  0.00000000000E+00 0.  1.
         13    1    3    3    0    0  0.47132193261E+02  0.36696917607E+01 -0.94257319485E+01  0.48205338936E+02  0.00000000000E+00 0. -1.
          3    1    1    2  501    0 -0.33132892982E+01 -0.33107995770E+02  0.21127243520E+00  0.33274042524E+02  0.00000000000E+00 0. -1.
<scales pt_clust_5="13000.00000" pt_clust_6="13000.00000" pt_clust_7="13000.00000" pt_clust_8="13000.00000" pt_clust_9="33.27339"></scales>
<clustering>
<clus scale="   33.273">  1  9  2 -1</clus>
<clus scale="   80.942">  5  6 -1 -1</clus>
<clus scale="   88.079">  7  8 -1 -1</clus>
<clus scale="   97.164">  1  5  2 -1</clus>
<clus scale="   33.273">  1  5  2 -1</clus>
</clustering>
</event>
<event>
 9    2  0.3745229E-005  0.1649768E+03  0.7546771E-02  0.1184881E+00
          2   -1    0    0  502    0 -0.00000000000E+00  0.00000000000E+00  0.87605173259E+03  0.87605173259E+03  0.00000000000E+00 0. -1.
         21   -1    0    0  501  502  0.00000000000E+00 -0.00000000000E+00 -0.15983720623E+03  0.15983720623E+03  0.00000000000E+00 0.  1.
         23    2    1    2    0    0 -0.23570477713E+02  0.13091364775E+03  0.48894020454E+03  0.51494615922E+03  0.91722803569E+02 0.  0.
         24    2    1    2    0    0 -0.13045960826E+02 -0.18699355818E+03 -0.70497405568E+02  0.21573183360E+03  0.80209425514E+02 0.  0.
        -11    1    4    4    0    0 -0.31860586555E+02 -0.17856898291E+03 -0.53788957049E+02  0.18919627516E+03  0.00000000000E+00 0.  1.
         12    1    4    4    0    0  0.18814625729E+02 -0.84245752687E+01 -0.16708448520E+02  0.26535558440E+02  0.00000000000E+00 0. -1.
        -11    1    3    3    0    0  0.22718584056E+02  0.40361660662E+01  0.40527318746E+02  0.46635697301E+02  0.00000000000E+00 0.  1.
         11    1    3    3    0    0 -0.46289061769E+02  0.12687748168E+03  0.44841288580E+03  0.46831046192E+03  0.00000000000E+00 0. -1.
          1    1    1    2  501    0  0.36616438539E+02  0.56079910429E+02  0.29777172738E+03  0.30521094599E+03  0.00000000000E+00 0. -1.
<scales pt_clust_5="13000.00000" pt_clust_6="13000.00000" pt_clust_7="13000.00000" pt_clust_8="13000.00000" pt_clust_9="66.97555"></scales>
<clustering>
<clus scale="   66.976">  2  9  1 -1</clus>
<clus scale="   80.209">  5  6 -1 -1</clus>
<clus scale="   91.723">  7  8 -1 -1</clus>
<clus scale="  158.864">  2  5  1 -1</clus>
<clus scale="   66.976">  2  5  1 -1</clus>
</clustering>
</event>
<event>
 9    2  0.3745229E-005  0.1361857E+03  0.7546771E-02  0.1229670E+00
         -1   -1    0    0    0  501 -0.00000000000E+00  0.00000000000E+00  0.39862303021E+03  0.39862303021E+03  0.00000000000E+00 0.  1.
         21   -1    0    0  501  502  0.00000000000E+00 -0.00000000000E+00 -0.89364563875E+02  0.89364563875E+02  0.00000000000E+00 0.  1.
         24    2    1    2    0    0  0.60717922389E+02 -0.38915616543E+02  0.17790191664E+03  0.20812469664E+03  0.80409614461E+02 0.  0.
         23    2    1    2    0    0  0.32209110172E+02  0.96794748302E+02  0.76850047071E+02  0.15756659291E+03  0.92274868676E+02 0.  0.
        -13    1    3    3    0    0  0.34923649796E+02  0.53024737332E+00  0.14855065912E+03  0.15260157536E+03  0.00000000000E+00 0.  1.
         14    1    3    3    0    0  0.25794272593E+02 -0.39445863917E+02  0.29351257518E+02  0.55523121280E+02  0.00000000000E+00 0. -1.
        -13    1    4    4    0    0 -0.71876403317E+01  0.84719817709E+02  0.19984454895E+02  0.87341216637E+02  0.00000000000E+00 0.  1.
         13    1    4    4    0    0  0.39396750503E+02  0.12074930594E+02  0.56865592176E+02  0.70225376272E+02  0.00000000000E+00 0. -1.
         -2    1    1    2    0  502 -0.92927032561E+02 -0.57879131759E+02  0.54506502617E+02  0.12229630453E+03  0.00000000000E+00 0.  1.
<scales pt_clust_5="13000.00000" pt_clust_6="13000.00000" pt_clust_7="13000.00000" pt_clust_8="13000.00000" pt_clust_9="100.15936"></scales>
<clustering>
<clus scale="   80.410">  5  6 -1 -1</clus>
<clus scale="   92.275">  7  8 -1 -1</clus>
<clus scale="  108.013">  1  5  2 -1</clus>
<clus scale="  100.159">  2  9  1 -1</clus>
<clus scale="  100.159">  2  5  1 -1</clus>
</clustering>
</event>
<event>
 9    2  0.3745229E-005  0.9307015E+02  0.7546771E-02  0.1302654E+00
         21   -1    0    0  501  502  0.00000000000E+00  0.00000000000E+00  0.69036977036E+02  0.69036977036E+02  0.00000000000E+00 0. -1.
          2   -1    0    0  502    0 -0.00000000000E+00 -0.00000000000E+00 -0.18233870173E+03  0.18233870173E+03  0.00000000000E+00 0. -1.
         24    2    1    2    0    0 -0.24088154859E+01  0.18127879254E+02 -0.84185269353E+02  0.11747332829E+03  0.79864891448E+02 0.  0.
         23    2    1    2    0    0 -0.19645600369E+02 -0.12982028546E+02  0.31091638298E+01  0.94514946788E+02  0.91481832008E+02 0.  0.
        -11    1    3    3    0    0 -0.47499608844E+01 -0.31475842195E+02 -0.38921258599E+02  0.50280763132E+02  0.00000000000E+00 0.  1.
         12    1    3    3    0    0  0.23411453985E+01  0.49603721449E+02 -0.45264010755E+02  0.67192565161E+02  0.00000000000E+00 0. -1.
        -13    1    4    4    0    0 -0.46083819126E+02 -0.33851067985E+02  0.14443939344E+02  0.58976610387E+02  0.00000000000E+00 0. -1.
         13    1    4    4    0    0  0.26438218757E+02  0.20869039439E+02 -0.11334775514E+02  0.35538336400E+02  0.00000000000E+00 0.  1.
          1    1    1    2  501    0  0.22054415855E+02 -0.51458507078E+01 -0.32225619172E+02  0.39387403687E+02  0.00000000000E+00 0. -1.
<scales pt_clust_5="13000.00000" pt_clust_6="13000.00000" pt_clust_7="13000.00000" pt_clust_8="13000.00000" pt_clust_9="22.64680"></scales>
<clustering>
<clus scale="   22.647">  1  9  2 -1</clus>
<clus scale="   79.865">  5  6 -1 -1</clus>
<clus scale="   81.679">  2  5  1 -1</clus>
<clus scale="   91.482">  7  8 -1 -1</clus>
<clus scale="   22.647">  1  5  2 -1</clus>
</clustering>
</event>
<event>
 9    2  0.3745229E-005  0.1035167E+03  0.7546771E-02  0.1285031E+00
         21   -1    0    0  501  502  0.00000000000E+00  0.00000000000E+00  0.48551173841E+03  0.48551173841E+03  0.00000000000E+00 0.  1.
         -3   -1    0    0    0  501 -0.00000000000E+00 -0.00000000000E+00 -0.13978262812E+03  0.13978262812E+03  0.00000000000E+00 0.  1.
         23    2    1    2    0    0  0.12999742671E+02 -0.18375257112E+02 -0.77553953443E+02  0.13112207080E+03  0.10330410627E+03 0.  0.
         24    2    1    2    0    0  0.13111960928E+02 -0.59792876404E+02  0.51123311571E+02  0.11299653668E+03  0.80046940772E+02 0.  0.
        -13    1    4    4    0    0  0.19421199389E+02 -0.56480020177E+02 -0.16457245315E+01  0.59748506877E+02  0.00000000000E+00 0.  1.
         14    1    4    4    0    0 -0.63092384610E+01 -0.33128562273E+01  0.52769036103E+02  0.53248029800E+02  0.00000000000E+00 0. -1.
        -11    1    3    3    0    0  0.57482693850E+02 -0.13030172880E+02 -0.31337600693E+02  0.66753956547E+02  0.00000000000E+00 0.  1.
         11    1    3    3    0    0 -0.44482951179E+02 -0.53450842325E+01 -0.46216352751E+02  0.64368114254E+02  0.00000000000E+00 0. -1.
         -4    1    1    2    0  502 -0.26111703599E+02  0.78168133516E+02  0.37215975216E+03  0.38117575905E+03  0.00000000000E+00 0.  1.
<scales pt_clust_5="13000.00000" pt_clust_6="13000.00000" pt_clust_7="13000.00000" pt_clust_8="13000.00000" pt_clust_9="82.41407"></scales>
<clustering>
<clus scale="   80.047">  5  6 -1 -1</clus>
<clus scale="   82.414">  1  9  2 -1</clus>
<clus scale="   82.414">  1  5  2 -1</clus>
<clus scale="  103.304">  7  8 -1 -1</clus>
<clus scale="   82.414">  1  5  2 -1</clus>
</clustering>
</event>
<event>
 9    2  0.3745229E-005  0.1421043E+03  0.7546771E-02  0.1212404E+00
         21   -1    0    0  501  502  0.00000000000E+00  0.00000000000E+00  0.21551741412E+03  0.21551741412E+03  0.00000000000E+00 0.  1.
         -1   -1    0    0    0  501 -0.00000000000E+00 -0.00000000000E+00 -0.55952354586E+03  0.55952354586E+03  0.00000000000E+00 0.  1.
         23    2    1    2    0    0 -0.10174736367E+03  0.43601343502E+02 -0.50779626002E+03  0.52756377542E+03  0.90625009166E+02 0.  0.
         24    2    1    2    0    0  0.79331579882E+02 -0.59417697597E+02  0.62986063053E+02  0.14300669118E+03  0.81607029295E+02 0.  0.
        -11    1    4    4    0    0  0.79511940835E+02 -0.76273634038E+02  0.61249002610E+02  0.12606052636E+03  0.00000000000E+00 0.  1.
         12    1    4    4    0    0 -0.18036095368E+00  0.16855936441E+02  0.17370604427E+01  0.16946164827E+02  0.00000000000E+00 0. -1.
        -13    1    3    3    0    0 -0.44820341646E+01  0.33368588146E+02 -0.56325101502E+02  0.65620639774E+02  0.00000000000E+00 0. -1.
         13    1    3    3    0    0 -0.97265329505E+02  0.10232755356E+02 -0.45147115851E+03  0.46194313565E+03  0.00000000000E+00 0.  1.
         -2    1    1    2    0  502  0.22415783788E+02  0.15816354096E+02  0.10080406522E+03  0.10447049337E+03  0.00000000000E+00 0.  1.
<scales pt_clust_5="13000.00000" pt_clust_6="13000.00000" pt_clust_7="13000.00000" pt_clust_8="13000.00000" pt_clust_9="27.43400"></scales>
<clustering>
<clus scale="   27.434">  1  9  2 -1</clus>
<clus scale="   81.607">  5  6 -1 -1</clus>
<clus scale="   90.625">  7  8 -1 -1</clus>
<clus scale="  136.530">  1  5  2 -1</clus>
<clus scale="   27.434">  1  5  2 -1</clus>
</clustering>
</event>
<event>
 9    2  0.3745229E-005  0.9626308E+02  0.7546771E-02  0.1293825E+00
          2   -1    0    0  502    0 -0.00000000000E+00  0.00000000000E+00  0.18788894123E+03  0.18788894123E+03  0.00000000000E+00 0. -1.
         21   -1    0    0  501  502  0.00000000000E+00 -0.00000000000E+00 -0.34406551802E+03  0.34406551802E+03  0.00000000000E+00 0. -1.
         23    2    1    2    0    0 -0.90884717361E+01  0.17020784124E+02  0.10966310955E+03  0.14370342205E+03  0.90842547859E+02 0.  0.
         24    2    1    2    0    0  0.64479918326E+02 -0.39264607311E+02  0.51699220149E+01  0.11074570779E+03  0.80861081154E+02 0.  0.
        -11    1    4    4    0    0  0.43605541186E+02 -0.64414169781E+02  0.95967972647E+00  0.77791705701E+02  0.00000000000E+00 0.  1.
         12    1    4    4    0    0  0.20874377140E+02  0.25149562470E+02  0.42102422885E+01  0.32954002087E+02  0.00000000000E+00 0. -1.
        -11    1    3    3    0    0  0.35709001357E+01 -0.34850384348E+02  0.22985612932E+02  0.41900346285E+02  0.00000000000E+00 0. -1.
         11    1    3    3    0    0 -0.12659371872E+02  0.51871168472E+02  0.86677496620E+02  0.10180307576E+03  0.00000000000E+00 0.  1.
          1    1    1    2  501    0 -0.55391446590E+02  0.22243823187E+02 -0.27100960836E+03  0.27750532941E+03  0.00000000000E+00 0. -1.
<scales pt_clust_5="13000.00000" pt_clust_6="13000.00000" pt_clust_7="13000.00000" pt_clust_8="13000.00000" pt_clust_9="59.69087"></scales>
<clustering>
<clus scale="   59.691">  2  9  1 -1</clus>
<clus scale="   80.861">  5  6 -1 -1</clus>
<clus scale="   86.906">  2  5  1 -1</clus>
<clus scale="   90.843">  7  8 -1 -1</clus>
<clus scale="   59.691">  2  5  1 -1</clus>
</clustering>
</event>
<event>
 9    2  0.3745229E-005  0.9796127E+02  0.7546771E-02  0.1294178E+00
         21   -1    0    0  501  502  0.00000000000E+00  0.00000000000E+00  0.44524820562E+02  0.44524820562E+02  0.00000000000E+00 0. -1.
          2   -1    0    0  502    0 -0.00000000000E+00 -0.00000000000E+00 -0.66948499667E+03  0.66948499667E+03  0.00000000000E+00 0. -1.
         24    2    1    2    0    0  0.11140102254E+02  0.40376570814E+02 -0.38497092798E+03  0.39520424349E+03  0.78926607278E+02 0.  0.
         23    2    1    2    0    0  0.35306299417E+02  0.22250572470E+02 -0.21153954492E+03  0.23580670076E+03  0.95468310460E+02 0.  0.
        -11    1    3    3    0    0  0.34128909409E+02  0.20456992927E+02 -0.86798970650E+02  0.95484722983E+02  0.00000000000E+00 0.  1.
         12    1    3    3    0    0 -0.22988807155E+02  0.19919577887E+02 -0.29817195732E+03  0.29971952051E+03  0.00000000000E+00 0. -1.
        -11    1    4    4    0    0  0.38698151953E+02  0.57165372275E+02 -0.13584237869E+03  0.15237643715E+03  0.00000000000E+00 0. -1.
         11    1    4    4    0    0 -0.33918525352E+01 -0.34914799805E+02 -0.75697166234E+02  0.83430263603E+02  0.00000000000E+00 0.  1.
          1    1    1    2  501    0 -0.46446401672E+02 -0.62627143284E+02 -0.28449703210E+02  0.82998872986E+02  0.00000000000E+00 0. -1.
<scales pt_clust_5="13000.00000" pt_clust_6="13000.00000" pt_clust_7="13000.00000" pt_clust_8="13000.00000" pt_clust_9="77.97068"></scales>
<clustering>
<clus scale="   77.971">  1  9  2 -1</clus>
<clus scale="   78.927">  5  6 -1 -1</clus>
<clus scale="   81.924">  2  5  1 -1</clus>
<clus scale="   95.468">  7  8 -1 -1</clus>
<clus scale="   77.971">  1  5  2 -1</clus>
</clustering>
</event>
<event>
 9    2  0.3745229E-005  0.1836754E+03  0.7546771E-02  0.1165683E+00
          2   -1    0    0  502    0 -0.00000000000E+00  0.00000000000E+00  0.11322622526E+04  0.11322622526E+04  0.00000000000E+00 0. -1.
         21   -1    0    0  501  502  0.00000000000E+00 -0.00000000000E+00 -0.38041275016E+02  0.38041275016E+02  0.00000000000E+00 0. -1.
         23    2    1    2    0    0  0.13982181638E+02 -0.14781225638E+03  0.56355637409E+03  0.59006017219E+03  0.92364795719E+02 0.  0.
         24    2    1    2    0    0 -0.28358919814E+02  0.17474247757E+03  0.38339125856E+03  0.42983934769E+03  0.80211257846E+02 0.  0.
        -11    1    4    4    0    0  0.27292419808E+02  0.52626621413E+02  0.99379275550E+02  0.11571809655E+03  0.00000000000E+00 0.  1.
         12    1    4    4    0    0 -0.55651339622E+02  0.12211585615E+03  0.28401198301E+03  0.31412125114E+03  0.00000000000E+00 0. -1.
        -11    1    3    3    0    0 -0.15683627475E+02 -0.75259599033E+02  0.14391412531E+03  0.16316022456E+03  0.00000000000E+00 0. -1.
         11    1    3    3    0    0  0.29665809113E+02 -0.72552657348E+02  0.41964224878E+03  0.42689994762E+03  0.00000000000E+00 0.  1.
          1    1    1    2  501    0  0.14376738176E+02 -0.26930221187E+02  0.14727334490E+03  0.15040400770E+03  0.00000000000E+00 0. -1.
<scales pt_clust_5="13000.00000" pt_clust_6="13000.00000" pt_clust_7="13000.00000" pt_clust_8="13000.00000" pt_clust_9="30.52750"></scales>
<clustering>
<clus scale="   30.528">  2  9  1 -1</clus>
<clus scale="   80.211">  5  6 -1 -1</clus>
<clus scale="   92.365">  7  8 -1 -1</clus>
<clus scale="  177.874">  2  5  1 -1</clus>
<clus scale="   30.528">  2  5  1 -1</clus>
</clustering>
</event>
<event>
 9    2  0.3745229E-005  0.8721209E+02  0.7546771E-02  0.1313642E+00
         -1   -1    0    0    0  501 -0.00000000000E+00  0.00000000000E+00  0.19806275001E+03  0.19806275001E+03  0.00000000000E+00 0.  1.
         21   -1    0    0  501  502  0.00000000000E+00 -0.00000000000E+00 -0.96594050022E+02  0.96594050022E+02  0.00000000000E+00 0.  1.
         23    2    1    2    0    0 -0.35761394994E+02 -0.31525880382E+02  0.65586689681E+02  0.11844386521E+03  0.86339891336E+02 0.  0.
         24    2    1    2    0    0 -0.31339995385E+02 -0.67662793409E+01  0.46535482083E+02  0.98223303794E+02  0.80338586424E+02 0.  0.
        -13    1    4    4    0    0 -0.23098069986E+02 -0.32986585459E+02  0.56156645472E+02  0.69102854413E+02  0.00000000000E+00 0.  1.
         14    1    4    4    0    0 -0.82419253989E+01  0.26220306118E+02 -0.96211633886E+01  0.29120449381E+02  0.00000000000E+00 0. -1.
        -13    1    3    3    0    0  0.21326292799E+02  0.12231843297E+02  0.66916837854E+01  0.25479548404E+02  0.00000000000E+00 0.  1.
         13    1    3    3    0    0 -0.57087687793E+02 -0.43757723679E+02  0.58895005896E+02  0.92964316803E+02  0.00000000000E+00 0. -1.
         -2    1    1    2    0  502  0.67101390379E+02  0.38292159723E+02 -0.10653471779E+02  0.77989631029E+02  0.00000000000E+00 0.  1.
<scales pt_clust_5="13000.00000" pt_clust_6="13000.00000" pt_clust_7="13000.00000" pt_clust_8="13000.00000" pt_clust_9="77.25857"></scales>
<clustering>
<clus scale="   77.259">  2  9  1 -1</clus>
<clus scale="   80.339">  5  6 -1 -1</clus>
<clus scale="   81.275">  2  5  1 -1</clus>
<clus scale="   86.340">  7  8 -1 -1</clus>
<clus scale="   77.259">  2  5  1 -1</clus>
</clustering>
</event>
<event>
 9    2  0.3745229E-005  0.9119470E+02  0.7546771E-02  0.1303663E+00
          2   -1    0    0  502    0 -0.00000000000E+00  0.00000000000E+00  0.42663443556E+03  0.42663443556E+03  0.00000000000E+00 0. -1.
         21   -1    0    0  501  502  0.00000000000E+00 -0.00000000000E+00 -0.31558801923E+02  0.31558801923E+02  0.00000000000E+00 0.  1.
         24    2    1    2    0    0 -0.16075837551E+02  0.12014870383E+02  0.23053102122E+03  0.24481279992E+03  0.79912236841E+02 0.  0.
         23    2    1    2    0    0  0.44887846026E+02 -0.23220715647E+02  0.14719963868E+03  0.17793257565E+03  0.86244695451E+02 0.  0.
        -13    1    3    3    0    0  0.31331990431E+02 -0.53956470697E+01  0.83339142249E+02  0.89197641575E+02  0.00000000000E+00 0.  1.
         14    1    3    3    0    0 -0.47407827983E+02  0.17410517453E+02  0.14719187897E+03  0.15561515834E+03  0.00000000000E+00 0. -1.
        -13    1    4    4    0    0 -0.21703228600E+02 -0.14137989487E+02  0.74749525685E+02  0.79110078173E+02  0.00000000000E+00 0. -1.
         13    1    4    4    0    0  0.66591074626E+02 -0.90827261601E+01  0.72450112996E+02  0.98822497476E+02  0.00000000000E+00 0.  1.
          1    1    1    2  501    0 -0.28812008475E+02  0.11205845264E+02  0.17344973739E+02  0.35447861916E+02  0.00000000000E+00 0. -1.
<scales pt_clust_5="13000.00000" pt_clust_6="13000.00000" pt_clust_7="13000.00000" pt_clust_8="13000.00000" pt_clust_9="30.91444"></scales>
<clustering>
<clus scale="   30.914">  2  9  1 -1</clus>
<clus scale="   79.912">  5  6 -1 -1</clus>
<clus scale="   85.231">  1  5  2 -1</clus>
<clus scale="   86.245">  7  8 -1 -1</clus>
<clus scale="   30.914">  2  5  1 -1</clus>
</clustering>
</event>
<event>
 9    2  0.3745229E-005  0.1215083E+03  0.7546771E-02  0.1253864E+00
         -1   -1    0    0    0  501 -0.00000000000E+00  0.00000000000E+00  0.20343262147E+03  0.20343262147E+03  0.00000000000E+00 0.  1.
         21   -1    0    0  501  502  0.00000000000E+00 -0.00000000000E+00 -0.13839645133E+03  0.13839645133E+03  0.00000000000E+00 0.  1.
         23    2    1    2    0    0  0.80621969083E+01  0.11606147255E+02  0.54496416313E+02  0.10793371764E+03  0.92087601445E+02 0.  0.
         24    2    1    2    0    0  0.64874000393E+02  0.50327185336E+02  0.57161729458E+02  0.12745741468E+03  0.78971309541E+02 0.  0.
        -13    1    4    4    0    0  0.56327310534E+02  0.71111808764E+02  0.51360150877E+02  0.10424739976E+03  0.00000000000E+00 0.  1.
         14    1    4    4    0    0  0.85466898581E+01 -0.20784623428E+02  0.58015785813E+01  0.23210014921E+02  0.00000000000E+00 0. -1.
        -11    1    3    3    0    0 -0.39096283907E+02 -0.79122563387E+01  0.12391080526E+02  0.41769152402E+02  0.00000000000E+00 0. -1.
         11    1    3    3    0    0  0.47158480816E+02  0.19518403593E+02  0.42105335787E+02  0.66164565240E+02  0.00000000000E+00 0.  1.
         -2    1    1    2    0  502 -0.72936197301E+02 -0.61933332590E+02 -0.46621975632E+02  0.10643794048E+03  0.00000000000E+00 0.  1.
<scales pt_clust_5="13000.00000" pt_clust_6="13000.00000" pt_clust_7="13000.00000" pt_clust_8="13000.00000" pt_clust_9="92.34605"></scales>
<clustering>
<clus scale="   78.971">  5  6 -1 -1</clus>
<clus scale="   92.088">  7  8 -1 -1</clus>
<clus scale="   93.166">  1  7  2 -1</clus>
<clus scale="   92.346">  2  9  1 -1</clus>
<clus scale="   92.346">  2  5  1 -1</clus>
</clustering>
</event>
<event>
 9    2  0.3745229E-005  0.1099295E+03  0.7546771E-02  0.1264698E+00
          2   -1    0    0  502    0 -0.00000000000E+00  0.00000000000E+00  0.47159188529E+02  0.47159188529E+02  0.00000000000E+00 0. -1.
         21   -1    0    0  501  502  0.00000000000E+00 -0.00000000000E+00 -0.43320902889E+03  0.43320902889E+03  0.00000000000E+00 0.  1.
         23    2    1    2    0    0  0.46682925094E+02 -0.54515072088E+02 -0.11029351291E+03  0.15951401326E+03  0.90160262075E+02 0.  0.
         24    2    1    2    0    0 -0.19663439161E+01  0.54336388297E+02 -0.25270430586E+03  0.27054515666E+03  0.79868053645E+02 0.  0.
        -11    1    4    4    0    0 -0.20509659601E+02  0.62126535840E+02 -0.23436740198E+03  0.24332782764E+03  0.00000000000E+00 0.  1.
         12    1    4    4    0    0  0.18543315685E+02 -0.77901475431E+01 -0.18336903874E+02  0.27217329020E+02  0.00000000000E+00 0. -1.
        -13    1    3    3    0    0 -0.18494917065E+02 -0.22803566964E+02 -0.71519778089E+02  0.77311986661E+02  0.00000000000E+00 0.  1.
         13    1    3    3    0    0  0.65177842158E+02 -0.31711505124E+02 -0.38773734820E+02  0.82202026602E+02  0.00000000000E+00 0. -1.
          1    1    1    2  501    0 -0.44716581177E+02  0.17868379158E+00 -0.23052021593E+02  0.50309047493E+02  0.00000000000E+00 0. -1.
<scales pt_clust_5="13000.00000" pt_clust_6="13000.00000" pt_clust_7="13000.00000" pt_clust_8="13000.00000" pt_clust_9="44.71696"></scales>
<clustering>
<clus scale="   44.717">  2  9  1 -1</clus>
<clus scale="   79.868">  5  6 -1 -1</clus>
<clus scale="   90.160">  7  8 -1 -1</clus>
<clus scale="  101.659">  2  5  1 -1</clus>
<clus scale="   44.717">  2  5  1 -1</clus>
</clustering>
</event>
<event>
 9    2  0.3745229E-005  0.9645210E+02  0.7546771E-02  0.1295056E+00
          2   -1    0    0  502    0 -0.00000000000E+00  0.00000000000E+00  0.93032287412E+03  0.93032287412E+03  0.00000000000E+00 0. -1.
         21   -1    0    0  501  502  0.00000000000E+00 -0.00000000000E+00 -0.21048529720E+02  0.21048529720E+02  0.00000000000E+00 0.  1.
         24    2    1    2    0    0 -0.71098642561E+01 -0.33942347407E+01  0.43981184894E+03  0.44752612973E+03  0.82359597666E+02 0.  0.
         23    2    1    2    0    0  0.34791185310E+02 -0.30710872060E+01  0.46407639402E+03  0.47491318100E+03  0.94634939901E+02 0.  0.
        -11    1    3    3    0    0 -0.23503332153E+02  0.27956569607E+02  0.11186378178E+03  0.11767532486E+03  0.00000000000E+00 0.  1.
         12    1    3    3    0    0  0.16393467897E+02 -0.31350804348E+02  0.32794806716E+03  0.32985080487E+03  0.00000000000E+00 0. -1.
        -11    1    4    4    0    0  0.66896285585E+02  0.68945944120E+00  0.35045036312E+03  0.35677870647E+03  0.00000000000E+00 0. -1.
         11    1    4    4    0    0 -0.32105100274E+02 -0.37605466472E+01  0.11362603090E+03  0.11813447453E+03  0.00000000000E+00 0.  1.
          1    1    1    2  501    0 -0.27681321054E+02  0.64653219467E+01  0.53861014498E+01  0.28932093115E+02  0.00000000000E+00 0. -1.
<scales pt_clust_5="13000.00000" pt_clust_6="13000.00000" pt_clust_7="13000.00000" pt_clust_8="13000.00000" pt_clust_9="28.42632"></scales>
<clustering>
<clus scale="   28.426">  2  9  1 -1</clus>
<clus scale="   82.360">  5  6 -1 -1</clus>
<clus scale="   84.441">  1  5  2 -1</clus>
<clus scale="   94.635">  7  8 -1 -1</clus>
<clus scale="   28.426">  2  5  1 -1</clus>
</clustering>
</event>
<event>
 9    2  0.3745229E-005  0.4965922E+03  0.7546771E-02  0.1067373E+00
          2   -1    0    0  502    0 -0.00000000000E+00  0.00000000000E+00  0.47776032867E+03  0.47776032867E+03  0.00000000000E+00 0. -1.
         21   -1    0    0  501  502  0.00000000000E+00 -0.00000000000E+00 -0.93375542288E+03  0.93375542288E+03  0.00000000000E+00 0. -1.
         24    2    1    2    0    0 -0.58569296649E+02  0.39843051352E+02  0.12701881240E+03  0.16633680209E+03  0.80723737374E+02 0.  0.
         23    2    1    2    0    0 -0.28947696420E+03  0.32856627516E+03  0.31340467943E+02  0.44875385626E+03  0.92978968625E+02 0.  0.
        -13    1    3    3    0    0 -0.66849361780E+02  0.17295383023E+02  0.48908900907E+02  0.84617067027E+02  0.00000000000E+00 0.  1.
         14    1    3    3    0    0  0.82800651315E+01  0.22547668329E+02  0.78109911490E+02  0.81719735062E+02  0.00000000000E+00 0. -1.
        -11    1    4    4    0    0 -0.29186411378E+03  0.29951085476E+03  0.25185567783E+02  0.41895790464E+03  0.00000000000E+00 0. -1.
         11    1    4    4    0    0  0.23871495775E+01  0.29055420393E+02  0.61549001601E+01  0.29795951626E+02  0.00000000000E+00 0.  1.
          1    1    1    2  501    0  0.34804626085E+03 -0.36840932651E+03 -0.61435437454E+03  0.79642509320E+03  0.00000000000E+00 0. -1.
<scales pt_clust_5="13000.00000" pt_clust_6="13000.00000" pt_clust_7="13000.00000" pt_clust_8="13000.00000" pt_clust_9="487.81017"></scales>
<clustering>
<clus scale="   80.724">  5  6 -1 -1</clus>
<clus scale="   92.979">  7  8 -1 -1</clus>
<clus scale="  107.397">  1  5  2 -1</clus>
<clus scale="  487.810">  2  9  1 -1</clus>
<clus scale="  487.810">  2  5  1 -1</clus>
</clustering>
</event>
<event>
 9    2  0.3745229E-005  0.1225094E+03  0.7546771E-02  0.1242280E+00
          2   -1    0    0  502    0 -0.00000000000E+00  0.00000000000E+00  0.11750004617E+03  0.11750004617E+03  0.00000000000E+00 0. -1.
         21   -1    0    0  501  502  0.00000000000E+00 -0.00000000000E+00 -0.34088359368E+03  0.34088359368E+03  0.00000000000E+00 0. -1.
         24    2    1    2    0    0 -0.35220536737E+02 -0.76722073539E+02 -0.92876400202E+02  0.14870835432E+03  0.79758298333E+02 0.  0.
         23    2    1    2    0    0  0.68413162800E+02  0.51178367832E+02 -0.19581378025E+03  0.23209186183E+03  0.90686325388E+02 0.  0.
        -11    1    3    3    0    0  0.22098498526E+02 -0.18066904569E+02 -0.46305747674E+02  0.54396497547E+02  0.00000000000E+00 0.  1.
         12    1    3    3    0    0 -0.57319035263E+02 -0.58655168970E+02 -0.46570652528E+02  0.94311856769E+02  0.00000000000E+00 0. -1.
        -13    1    4    4    0    0 -0.11386168913E+02  0.31207466000E+02 -0.22139437630E+02  0.39921240903E+02  0.00000000000E+00 0.  1.
         13    1    4    4    0    0  0.79799331713E+02  0.19970901832E+02 -0.17367434262E+03  0.19217062093E+03  0.00000000000E+00 0. -1.
          1    1    1    2  501    0 -0.33192626063E+02  0.25543705707E+02  0.65306632943E+02  0.77583423697E+02  0.00000000000E+00 0. -1.
<scales pt_clust_5="13000.00000" pt_clust_6="13000.00000" pt_clust_7="13000.00000" pt_clust_8="13000.00000" pt_clust_9="41.88357"></scales>
<clustering>
<clus scale="   41.884">  2  9  1 -1</clus>
<clus scale="   79.758">  5  6 -1 -1</clus>
<clus scale="   90.686">  7  8 -1 -1</clus>
<clus scale="  114.656">  1  5  2 -1</clus>
<clus scale="   41.884">  2  5  1 -1</clus>
</clustering>
</event>
<event>
 9    2  0.3745229E-005  0.2636921E+03  0.7546771E-02  0.1105291E+00
          2   -1    0    0  502    0 -0.00000000000E+00  0.00000000000E+00  0.58198868904E+03  0.58198868904E+03  0.00000000000E+00 0. -1.
         21   -1    0    0  501  502  0.00000000000E+00 -0.00000000000E+00 -0.25513301017E+03  0.25513301017E+03  0.00000000000E+00 0. -1.
         24    2    1    2    0    0 -0.15773098501E+03  0.17512261616E+03  0.20531091333E+03  0.32281339037E+03  0.80677875195E+02 0.  0.
         23    2    1    2    0    0  0.25589205169E+03 -0.15304681136E+03 -0.50558448006E+02  0.31495321792E+03  0.87950578334E+02 0.  0.
        -13    1    3    3    0    0  0.99072839966E+00  0.27155574230E+02  0.52680794934E+01  0.27679584825E+02  0.00000000000E+00 0.  1.
         14    1    3    3    0    0 -0.15872171341E+03  0.14796704193E+03  0.20004283384E+03  0.29513380554E+03  0.00000000000E+00 0. -1.
        -13    1    4    4    0    0  0.90204642955E+02 -0.73280851468E+02 -0.60056946212E+02  0.13081971408E+03  0.00000000000E+00 0. -1.
         13    1    4    4    0    0  0.16568740873E+03 -0.79765959889E+02  0.94984982058E+01  0.18413350384E+03  0.00000000000E+00 0.  1.
          1    1    1    2  501    0 -0.98161066677E+02 -0.22075804798E+02  0.17210321354E+03  0.19935509093E+03  0.00000000000E+00 0. -1.
<scales pt_clust_5="13000.00000" pt_clust_6="13000.00000" pt_clust_7="13000.00000" pt_clust_8="13000.00000" pt_clust_9="100.61285"></scales>
<clustering>
<clus scale="   80.678">  5  6 -1 -1</clus>
<clus scale="   87.951">  7  8 -1 -1</clus>
<clus scale="  100.613">  2  9  1 -1</clus>
<clus scale="  261.356">  1  5  2 -1</clus>
<clus scale="  100.613">  2  5  1 -1</clus>
</clustering>
</event>
<event>
 9    2  0.3745229E-005  0.1910794E+03  0.7546771E-02  0.1187120E+00
         -1   -1    0    0    0  501 -0.00000000000E+00  0.00000000000E+00  0.33705794642E+03  0.33705794642E+03  0.00000000000E+00 0.  1.
         21   -1    0    0  501  502  0.00000000000E+00 -0.00000000000E+00 -0.29894066415E+03  0.29894066415E+03  0.00000000000E+00 0.  1.
         23    2    1    2    0    0  0.21962586944E+02 -0.24053115788E+02  0.10251146510E+03  0.14132266871E+03  0.91665634837E+02 0.  0.
         24    2    1    2    0    0 -0.12239377011E+03 -0.12312316103E+03 -0.19575490941E+03  0.27330991127E+03  0.78985918342E+02 0.  0.
        -13    1    4    4    0    0 -0.11909310555E+03 -0.12398904432E+03 -0.15216899037E+03  0.22959061943E+03  0.00000000000E+00 0.  1.
         14    1    4    4    0    0 -0.33006645593E+01  0.86588328549E+00 -0.43585919040E+02  0.43719291839E+02  0.00000000000E+00 0. -1.
        -11    1    3    3    0    0  0.55195775424E+02 -0.71780642642E+01  0.81023438826E+02  0.98300029860E+02  0.00000000000E+00 0.  1.
         11    1    3    3    0    0 -0.33233188480E+02 -0.16875051523E+02  0.21488026271E+02  0.43022638848E+02  0.00000000000E+00 0. -1.
         -2    1    1    2    0  502  0.10043118317E+03  0.14717627682E+03  0.13136072658E+03  0.22136603059E+03  0.00000000000E+00 0.  1.
<scales pt_clust_5="13000.00000" pt_clust_6="13000.00000" pt_clust_7="13000.00000" pt_clust_8="13000.00000" pt_clust_9="173.99024"></scales>
<clustering>
<clus scale="   78.986">  5  6 -1 -1</clus>
<clus scale="   91.666">  7  8 -1 -1</clus>
<clus scale="   97.281">  1  7  2 -1</clus>
<clus scale="  173.990">  2  9  1 -1</clus>
<clus scale="  173.990">  2  5  1 -1</clus>
</clustering>
</event>
<event>
 9    2  0.3745229E-005  0.1133319E+03  0.7546771E-02  0.1259139E+00
          4   -1    0    0  502    0 -0.00000000000E+00  0.00000000000E+00  0.16097845568E+03  0.16097845568E+03  0.00000000000E+00 0. -1.
         21   -1    0    0  501  502  0.00000000000E+00 -0.00000000000E+00 -0.14564553759E+03  0.14564553759E+03  0.00000000000E+00 0. -1.
         24    2    1    2    0    0 -0.39237259301E+02 -0.65804724078E+02  0.52962480716E+02  0.12359466120E+03  0.81245256382E+02 0.  0.
         23    2    1    2    0    0 -0.58581430015E+01  0.37302134994E+02 -0.68016015838E+02  0.12163446720E+03  0.93504000372E+02 0.  0.
        -11    1    3    3    0    0  0.21902933816E+02 -0.38432280704E+01  0.10926976304E+01  0.22264386357E+02  0.00000000000E+00 0.  1.
         12    1    3    3    0    0 -0.61140193117E+02 -0.61961496008E+02  0.51869783085E+02  0.10133027484E+03  0.00000000000E+00 0. -1.
        -11    1    4    4    0    0 -0.38889267949E+01  0.64339863907E+02 -0.69109272584E+02  0.94503086703E+02  0.00000000000E+00 0. -1.
         11    1    4    4    0    0 -0.19692162066E+01 -0.27037728913E+02  0.10932567463E+01  0.27131380495E+02  0.00000000000E+00 0.  1.
          3    1    1    2  501    0  0.45095402302E+02  0.28502589085E+02  0.30386453213E+02  0.61394864868E+02  0.00000000000E+00 0. -1.
<scales pt_clust_5="13000.00000" pt_clust_6="13000.00000" pt_clust_7="13000.00000" pt_clust_8="13000.00000" pt_clust_9="53.34787"></scales>
<clustering>
<clus scale="   53.348">  2  9  1 -1</clus>
<clus scale="   81.245">  5  6 -1 -1</clus>
<clus scale="   93.504">  7  8 -1 -1</clus>
<clus scale="  103.450">  1  5  2 -1</clus>
<clus scale="   53.348">  2  5  1 -1</clus>
</clustering>
</event>
<event>
 9    2  0.3745229E-005  0.1145526E+03  0.7546771E-02  0.1255562E+00
         -1   -1    0    0    0  501 -0.00000000000E+00  0.00000000000E+00  0.73997876941E+03  0.73997876941E+03  0.00000000000E+00 0.  1.
         21   -1    0    0  501  502  0.00000000000E+00 -0.00000000000E+00 -0.30454529822E+02  0.30454529822E+02  0.00000000000E+00 0.  1.
         23    2    1    2    0    0  0.63360630254E+01  0.62411060846E+02  0.48645773338E+03  0.49894448521E+03  0.91483259372E+02 0.  0.
         24    2    1    2    0    0 -0.16174217228E+02 -0.82291302269E+02  0.21948337840E+03  0.24901990033E+03  0.82489354675E+02 0.  0.
        -11    1    4    4    0    0 -0.36446895162E+02 -0.54936727961E+02  0.19817633832E+03  0.20885468948E+03  0.00000000000E+00 0.  1.
         12    1    4    4    0    0  0.20272677934E+02 -0.27354574307E+02  0.21307040084E+02  0.40165210859E+02  0.00000000000E+00 0. -1.
        -13    1    3    3    0    0  0.38900583585E+02  0.66556149509E+02  0.37016605898E+03  0.37810830150E+03  0.00000000000E+00 0.  1.
         13    1    3    3    0    0 -0.32564520560E+02 -0.41450886628E+01  0.11629167441E+03  0.12083618372E+03  0.00000000000E+00 0. -1.
         -2    1    1    2    0  502  0.98381542023E+01  0.19880241423E+02  0.35831277950E+01  0.22468913679E+02  0.00000000000E+00 0.  1.
<scales pt_clust_5="13000.00000" pt_clust_6="13000.00000" pt_clust_7="13000.00000" pt_clust_8="13000.00000" pt_clust_9="22.18137"></scales>
<clustering>
<clus scale="   22.181">  2  9  1 -1</clus>
<clus scale="   82.489">  5  6 -1 -1</clus>
<clus scale="   91.483">  7  8 -1 -1</clus>
<clus scale="  107.506">  2  5  1 -1</clus>
<clus scale="   22.181">  2  5  1 -1</clus>
</clustering>
</event>
<event>
 9    2  0.3745229E-005  0.1028399E+03  0.7546771E-02  0.1277837E+00
         21   -1    0    0  501  502  0.00000000000E+00  0.00000000000E+00  0.19601077623E+03  0.19601077623E+03  0.00000000000E+00 0. -1.
          2   -1    0    0  502    0 -0.00000000000E+00 -0.00000000000E+00 -0.17382118009E+03  0.17382118009E+03  0.00000000000E+00 0. -1.
         24    2    1    2    0    0  0.43550151272E+02  0.31044677815E+02 -0.13093615989E+03  0.16370171204E+03  0.82423205844E+02 0.  0.
         23    2    1    2    0    0 -0.35747213200E+01 -0.35576613367E+02  0.96440612671E+02  0.13661924575E+03  0.89919700211E+02 0.  0.
        -13    1    3    3    0    0  0.22724339362E+01  0.51508812975E+02 -0.59907357880E+02  0.79039314890E+02  0.00000000000E+00 0.  1.
         14    1    3    3    0    0  0.41277717335E+02 -0.20464135160E+02 -0.71028802010E+02  0.84662397150E+02  0.00000000000E+00 0. -1.
        -11    1    4    4    0    0  0.38947622482E+02 -0.17678506250E+02  0.19728768905E+02  0.47102772771E+02  0.00000000000E+00 0. -1.
         11    1    4    4    0    0 -0.42522343802E+02 -0.17898107117E+02  0.76711843765E+02  0.89516472980E+02  0.00000000000E+00 0.  1.
          1    1    1    2  501    0 -0.39975429952E+02  0.45319355516E+01  0.56685143358E+02  0.69510998534E+02  0.00000000000E+00 0. -1.
<scales pt_clust_5="13000.00000" pt_clust_6="13000.00000" pt_clust_7="13000.00000" pt_clust_8="13000.00000" pt_clust_9="40.23150"></scales>
<clustering>
<clus scale="   40.231">  1  9  2 -1</clus>
<clus scale="   82.423">  5  6 -1 -1</clus>
<clus scale="   89.920">  7  8 -1 -1</clus>
<clus scale="   96.354">  2  5  1 -1</clus>
<clus scale="   40.231">  1  5  2 -1</clus>
</clustering>
</event>
<event>
 9    2  0.3745229E-005  0.1388827E+03  0.7546771E-02  0.1217512E+00
         21   -1    0    0  501  502  0.00000000000E+00  0.00000000000E+00  0.84704082667E+02  0.84704082667E+02  0.00000000000E+00 0. -1.
          2   -1    0    0  502    0 -0.00000000000E+00 -0.00000000000E+00 -0.32966290744E+03  0.32966290744E+03  0.00000000000E+00 0. -1.
         23    2    1    2    0    0 -0.93704294813E+02  0.73249425506E+02 -0.18743449667E+03  0.23953950144E+03  0.90008382978E+02 0.  0.
         24    2    1    2    0    0  0.51027600171E+02 -0.64885687951E+02 -0.15654564506E+02  0.11445920663E+03  0.77729506068E+02 0.  0.
        -13    1    4    4    0    0  0.43110183528E+02 -0.21546284834E+02 -0.41310522050E+02  0.63476685059E+02  0.00000000000E+00 0.  1.
         14    1    4    4    0    0  0.79174166428E+01 -0.43339403116E+02  0.25655957544E+02  0.50982521576E+02  0.00000000000E+00 0. -1.
        -11    1    3    3    0    0  0.61788115575E+01  0.44581508910E+02 -0.62903146999E+02  0.77346587199E+02  0.00000000000E+00 0.  1.
         11    1    3    3    0    0 -0.99883106370E+02  0.28667916597E+02 -0.12453134967E+03  0.16219291425E+03  0.00000000000E+00 0. -1.
          1    1    1    2  501    0  0.42676694642E+02 -0.83637375556E+01 -0.41869763591E+02  0.60368282025E+02  0.00000000000E+00 0. -1.
<scales pt_clust_5="13000.00000" pt_clust_6="13000.00000" pt_clust_7="13000.00000" pt_clust_8="13000.00000" pt_clust_9="43.48855"></scales>
<clustering>
<clus scale="   43.489">  1  9  2 -1</clus>
<clus scale="   77.730">  5  6 -1 -1</clus>
<clus scale="   90.008">  7  8 -1 -1</clus>
<clus scale="  131.258">  1  5  2 -1</clus>
<clus scale="   43.489">  1  5  2 -1</clus>
</clustering>
</event>
<event>
 9    2  0.3745229E-005  0.2203772E+03  0.7546771E-02  0.1134624E+00
          2   -1    0    0  502    0 -0.00000000000E+00  0.00000000000E+00  0.61205476852E+03  0.61205476852E+03  0.00000000000E+00 0. -1.
         21   -1    0    0  501  502  0.00000000000E+00 -0.00000000000E+00 -0.33330535825E+03  0.33330535825E+03  0.00000000000E+00 0.  1.
         23    2    1    2    0    0 -0.18903261135E+03 -0.50909835284E+02  0.50707261215E+03  0.55152773449E+03  0.93461587994E+02 0.  0.
         24    2    1    2    0    0  0.24099449372E+03  0.19278092088E+02 -0.15311508015E+03  0.29710149767E+03  0.79844106295E+02 0.  0.
        -11    1    4    4    0    0  0.24442089330E+03  0.24750856642E+02 -0.15486846668E+03  0.29041077796E+03  0.00000000000E+00 0.  1.
         12    1    4    4    0    0 -0.34263995748E+01 -0.54727645539E+01  0.17533865295E+01  0.66907197095E+01  0.00000000000E+00 0. -1.
        -13    1    3    3    0    0 -0.64973118585E+02 -0.22091646656E+02  0.77714974671E+02  0.10367817648E+03  0.00000000000E+00 0.  1.
         13    1    3    3    0    0 -0.12405949277E+03 -0.28818188629E+02  0.42935763748E+03  0.44784955801E+03  0.00000000000E+00 0. -1.
          1    1    1    2  501    0 -0.51961882373E+02  0.31631743196E+02 -0.75208121734E+02  0.96730894611E+02  0.00000000000E+00 0. -1.
<scales pt_clust_5="13000.00000" pt_clust_6="13000.00000" pt_clust_7="13000.00000" pt_clust_8="13000.00000" pt_clust_9="60.83259"></scales>
<clustering>
<clus scale="   60.833">  2  9  1 -1</clus>
<clus scale="   79.844">  5  6 -1 -1</clus>
<clus scale="   93.462">  7  8 -1 -1</clus>
<clus scale="  214.956">  2  5  1 -1</clus>
<clus scale="   60.833">  2  5  1 -1</clus>
</clustering>
</event>
<event>
 9    2  0.3745229E-005  0.1020583E+03  0.7546771E-02  0.1284269E+00
          2   -1    0    0  502    0 -0.00000000000E+00  0.00000000000E+00  0.49021900037E+03  0.49021900037E+03  0.00000000000E+00 0. -1.
         21   -1    0    0  501  502  0.00000000000E+00 -0.00000000000E+00 -0.49136175178E+02  0.49136175178E+02  0.00000000000E+00 0. -1.
         23    2    1    2    0    0 -0.70517008667E+01 -0.43769139559E+02  0.27037374351E+03  0.28991752187E+03  0.94787890812E+02 0.  0.
         24    2    1    2    0    0 -0.50992901920E+02  0.19579322905E+02  0.15882042855E+03  0.18544028486E+03  0.78616440987E+02 0.  0.
        -13    1    4    4    0    0  0.13809746987E+02 -0.16532027353E+02  0.36416704263E+02  0.42310677017E+02  0.00000000000E+00 0.  1.
         14    1    4    4    0    0 -0.64802648906E+02  0.36111350258E+02  0.12240372428E+03  0.14312960784E+03  0.00000000000E+00 0. -1.
        -13    1    3    3    0    0 -0.37492822674E+02  0.61604580260E+01  0.55725835317E+02  0.67446510042E+02  0.00000000000E+00 0.  1.
         13    1    3    3    0    0  0.30441121807E+02 -0.49929597585E+02  0.21464790819E+03  0.22247101182E+03  0.00000000000E+00 0. -1.
          1    1    1    2  501    0  0.58044602787E+02  0.24189816655E+02  0.11888653136E+02  0.63997368820E+02  0.00000000000E+00 0. -1.
<scales pt_clust_5="13000.00000" pt_clust_6="13000.00000" pt_clust_7="13000.00000" pt_clust_8="13000.00000" pt_clust_9="62.88341"></scales>
<clustering>
<clus scale="   62.883">  2  9  1 -1</clus>
<clus scale="   78.616">  5  6 -1 -1</clus>
<clus scale="   87.245">  2  5  1 -1</clus>
<clus scale="   94.788">  7  8 -1 -1</clus>
<clus scale="   62.883">  2  5  1 -1</clus>
</clustering>
</event>
<event>
 9    2  0.3745229E-005  0.1120710E+03  0.7546771E-02  0.1266007E+00
          2   -1    0    0  502    0 -0.00000000000E+00  0.00000000000E+00  0.49490488030E+03  0.49490488030E+03  0.00000000000E+00 0. -1.
         21   -1    0    0  501  502  0.00000000000E+00 -0.00000000000E+00 -0.39415172531E+02  0.39415172531E+02  0.00000000000E+00 0.  1.
         24    2    1    2    0    0  0.35006730073E+02  0.92138786997E+01  0.33874312596E+03  0.35730471154E+03  0.10774685515E+03 0.  0.
         23    2    1    2    0    0 -0.13421152383E+02 -0.24339282782E+02  0.11876653326E+03  0.15058060625E+03  0.88297800305E+02 0.  0.
        -13    1    3    3    0    0  0.49459952606E+02  0.56883916178E+01  0.59138727698E+02  0.77304811135E+02  0.00000000000E+00 0.  1.
         14    1    3    3    0    0 -0.14453222532E+02  0.35254870819E+01  0.27960439826E+03  0.27999990041E+03  0.00000000000E+00 0. -1.
        -11    1    4    4    0    0  0.22412831896E+02 -0.15071995097E+02  0.88375816509E+00  0.27023713629E+02  0.00000000000E+00 0.  1.
         11    1    4    4    0    0 -0.35833984279E+02 -0.92672876844E+01  0.11788277509E+03  0.12355689262E+03  0.00000000000E+00 0. -1.
          1    1    1    2  501    0 -0.21585577691E+02  0.15125404082E+02 -0.20199514456E+01  0.26434735042E+02  0.00000000000E+00 0. -1.
<scales pt_clust_5="13000.00000" pt_clust_6="13000.00000" pt_clust_7="13000.00000" pt_clust_8="13000.00000" pt_clust_9="26.35745"></scales>
<clustering>
<clus scale="   26.357">  2  9  1 -1</clus>
<clus scale="   88.298">  7  8 -1 -1</clus>
<clus scale="   93.526">  2  7  1 -1</clus>
<clus scale="  107.747">  5  6 -1 -1</clus>
<clus scale="   26.357">  2  5  1 -1</clus>
</clustering>
</event>
<event>
 9    2  0.3745229E-005  0.2515942E+03  0.7546771E-02  0.1152758E+00
         21   -1    0    0  501  502  0.00000000000E+00  0.00000000000E+00  0.74132569099E+02  0.74132569099E+02  0.00000000000E+00 0.  1.
          2   -1    0    0  502    0 -0.00000000000E+00 -0.00000000000E+00 -0.12749651023E+04  0.12749651023E+04  0.00000000000E+00 0. -1.
         23    2    1    2    0    0  0.60451217568E+01 -0.21827203069E+02 -0.27026135214E+03  0.28599249255E+03  0.90760878396E+02 0.  0.
         24    2    1    2    0    0  0.15744251222E+03  0.18507970540E+03 -0.31641713874E+03  0.40693083183E+03  0.80188865785E+02 0.  0.
        -13    1    4    4    0    0  0.13162497372E+03  0.14068633296E+03 -0.19047867927E+03  0.27092416881E+03  0.00000000000E+00 0.  1.
         14    1    4    4    0    0  0.25817538501E+02  0.44393372445E+02 -0.12593845947E+03  0.13600666302E+03  0.00000000000E+00 0. -1.
        -11    1    3    3    0    0 -0.41165837235E+02 -0.13447239686E+02 -0.15998772624E+03  0.16574536783E+03  0.00000000000E+00 0.  1.
         11    1    3    3    0    0  0.47210958992E+02 -0.83799633832E+01 -0.11027362590E+03  0.12024712472E+03  0.00000000000E+00 0. -1.
          1    1    1    2  501    0 -0.16348763398E+03 -0.16325250233E+03 -0.61415404232E+03  0.65617434702E+03  0.00000000000E+00 0. -1.
<scales pt_clust_5="13000.00000" pt_clust_6="13000.00000" pt_clust_7="13000.00000" pt_clust_8="13000.00000" pt_clust_9="238.47313"></scales>
<clustering>
<clus scale="   80.189">  5  6 -1 -1</clus>
<clus scale="   90.761">  7  8 -1 -1</clus>
<clus scale="   93.544">  2  7  1 -1</clus>
<clus scale="  238.473">  1  9  2 -1</clus>
<clus scale="  238.473">  1  5  2 -1</clus>
</clustering>
</event>
<event>
 9    2  0.3745229E-005  0.9289246E+02  0.7546771E-02  0.1301173E+00
         21   -1    0    0  501  502  0.00000000000E+00  0.00000000000E+00  0.94920643213E+02  0.94920643213E+02  0.00000000000E+00 0. -1.
          2   -1    0    0  502    0 -0.00000000000E+00 -0.00000000000E+00 -0.24679432662E+03  0.24679432662E+03  0.00000000000E+00 0. -1.
         24    2    1    2    0    0  0.13859833009E+02  0.18596330537E+02 -0.16335878581E+03  0.18380159646E+03  0.80987748935E+02 0.  0.
         23    2    1    2    0    0  0.27763725050E+02 -0.42530086280E+02 -0.13074779502E+02  0.10398255612E+03  0.89787468231E+02 0.  0.
        -11    1    3    3    0    0 -0.33423407099E+02 -0.24037906334E-01 -0.64144753599E+02  0.72330312693E+02  0.00000000000E+00 0.  1.
         12    1    3    3    0    0  0.47283240108E+02  0.18620368443E+02 -0.99214032213E+02  0.11147128376E+03  0.00000000000E+00 0. -1.
        -13    1    4    4    0    0 -0.14809377175E+02  0.13711292178E+02 -0.25331122029E+02  0.32388005939E+02  0.00000000000E+00 0.  1.
         13    1    4    4    0    0  0.42573102226E+02 -0.56241378458E+02  0.12256342526E+02  0.71594550184E+02  0.00000000000E+00 0. -1.
          1    1    1    2  501    0 -0.41623558059E+02  0.23933755743E+02  0.24559881912E+02  0.53930817248E+02  0.00000000000E+00 0. -1.
<scales pt_clust_5="13000.00000" pt_clust_6="13000.00000" pt_clust_7="13000.00000" pt_clust_8="13000.00000" pt_clust_9="48.01401"></scales>
<clustering>
<clus scale="   48.014">  1  9  2 -1</clus>
<clus scale="   80.988">  5  6 -1 -1</clus>
<clus scale="   84.417">  2  5  1 -1</clus>
<clus scale="   89.787">  7  8 -1 -1</clus>
<clus scale="   48.014">  1  5  2 -1</clus>
</clustering>
</event>
<event>
 9    2  0.3745229E-005  0.1125188E+03  0.7546771E-02  0.1260846E+00
         21   -1    0    0  501  502  0.00000000000E+00  0.00000000000E+00  0.20527011505E+03  0.20527011505E+03  0.00000000000E+00 0. -1.
          2   -1    0    0  502    0 -0.00000000000E+00 -0.00000000000E+00 -0.62936843017E+03  0.62936843017E+03  0.00000000000E+00 0. -1.
         24    2    1    2    0    0 -0.13276359615E+02  0.67484954028E+02 -0.55434967206E+03  0.56357679420E+03  0.74731273890E+02 0.  0.
         23    2    1    2    0    0  0.32395007117E+02 -0.75688390815E+02 -0.17382304890E+02  0.12196944014E+03  0.88296267271E+02 0.  0.
        -13    1    3    3    0    0  0.51119197950E+01  0.26850432385E+02 -0.47764943777E+02  0.55032420420E+02  0.00000000000E+00 0.  1.
         14    1    3    3    0    0 -0.18388279410E+02  0.40634521644E+02 -0.50658472828E+03  0.50854437378E+03  0.00000000000E+00 0. -1.
        -13    1    4    4    0    0  0.25983677359E+02  0.14733049790E+02 -0.12456560540E+01  0.29895917852E+02  0.00000000000E+00 0. -1.
         13    1    4    4    0    0  0.64113297572E+01 -0.90421440605E+02 -0.16136648836E+02  0.92073522285E+02  0.00000000000E+00 0.  1.
          1    1    1    2  501    0 -0.19118647501E+02  0.82034367867E+01  0.14763366183E+03  0.14909231088E+03  0.00000000000E+00 0. -1.
<scales pt_clust_5="13000.00000" pt_clust_6="13000.00000" pt_clust_7="13000.00000" pt_clust_8="13000.00000" pt_clust_9="20.80430"></scales>
<clustering>
<clus scale="   20.804">  1  9  2 -1</clus>
<clus scale="   74.731">  5  6 -1 -1</clus>
<clus scale="   88.296">  7  8 -1 -1</clus>
<clus scale="  102.220">  2  5  1 -1</clus>
<clus scale="   20.804">  1  5  2 -1</clus>
</clustering>
</event>
<event>
 9    2  0.3745229E-005  0.1020596E+03  0.7546771E-02  0.1281677E+00
         -1   -1    0    0    0  501 -0.00000000000E+00  0.00000000000E+00  0.72687629636E+02  0.72687629636E+02  0.00000000000E+00 0.  1.
         21   -1    0    0  501  502  0.00000000000E+00 -0.00000000000E+00 -0.30093646208E+03  0.30093646208E+03  0.00000000000E+00 0. -1.
         24    2    1    2    0    0 -0.47355295255E+02 -0.19870529391E+02  0.15383474219E+02  0.96204636222E+02  0.79883157328E+02 0.  0.
         23    2    1    2    0    0  0.18080236960E+02  0.10986499067E+02 -0.13485571657E+03  0.16442254586E+03  0.91657575612E+02 0.  0.
        -13    1    3    3    0    0 -0.46830940406E+02  0.21934542115E+02  0.16795825484E+02  0.54372427487E+02  0.00000000000E+00 0.  1.
         14    1    3    3    0    0 -0.52435484899E+00 -0.41805071506E+02 -0.14123512655E+01  0.41832208736E+02  0.00000000000E+00 0. -1.
        -11    1    4    4    0    0 -0.20156573779E+02  0.39556578843E+02 -0.81685831672E+02  0.92970885185E+02  0.00000000000E+00 0. -1.
         11    1    4    4    0    0  0.38236810738E+02 -0.28570079775E+02 -0.53169884894E+02  0.71451660676E+02  0.00000000000E+00 0.  1.
         -2    1    1    2    0  502  0.29275058296E+02  0.88840303233E+01 -0.10877659010E+03  0.11299690963E+03  0.00000000000E+00 0.  1.
<scales pt_clust_5="13000.00000" pt_clust_6="13000.00000" pt_clust_7="13000.00000" pt_clust_8="13000.00000" pt_clust_9="30.59338"></scales>
<clustering>
<clus scale="   30.593">  2  9  1 -1</clus>
<clus scale="   79.883">  5  6 -1 -1</clus>
<clus scale="   91.632">  1  5  2 -1</clus>
<clus scale="   91.658">  7  8 -1 -1</clus>
<clus scale="   30.593">  2  5  1 -1</clus>
</clustering>
</event>
<event>
 9    2  0.3745229E-005  0.9538997E+02  0.7546771E-02  0.1297830E+00
         -1   -1    0    0    0  501 -0.00000000000E+00  0.00000000000E+00  0.18110384924E+03  0.18110384924E+03  0.00000000000E+00 0.  1.
         21   -1    0    0  501  502  0.00000000000E+00 -0.00000000000E+00 -0.10014571565E+03  0.10014571565E+03  0.00000000000E+00 0.  1.
         24    2    1    2    0    0  0.18003949896E+01 -0.26257480243E+02  0.84503202494E+02  0.11958751151E+03  0.80421918575E+02 0.  0.
         23    2    1    2    0    0 -0.18944620055E+02  0.51658331882E+01  0.45505252838E+02  0.10558428512E+03  0.93229441528E+02 0.  0.
        -11    1    3    3    0    0  0.11059492334E+02 -0.17999571882E+02  0.98583178667E+02  0.10082132748E+03  0.00000000000E+00 0.  1.
         12    1    3    3    0    0 -0.92590973445E+01 -0.82579083606E+01 -0.14079976173E+02  0.18766184033E+02  0.00000000000E+00 0. -1.
        -11    1    4    4    0    0 -0.49310645409E+02  0.77666848962E+01 -0.10625049640E+01  0.49929851409E+02  0.00000000000E+00 0.  1.
         11    1    4    4    0    0  0.30366025354E+02 -0.26008517080E+01  0.46567757802E+02  0.55654433715E+02  0.00000000000E+00 0. -1.
         -2    1    1    2    0  502  0.17144225065E+02  0.21091647055E+02 -0.49050321743E+02  0.56077768248E+02  0.00000000000E+00 0.  1.
<scales pt_clust_5="13000.00000" pt_clust_6="13000.00000" pt_clust_7="13000.00000" pt_clust_8="13000.00000" pt_clust_9="27.18055"></scales>
<clustering>
<clus scale="   27.181">  2  9  1 -1</clus>
<clus scale="   80.422">  5  6 -1 -1</clus>
<clus scale="   82.917">  1  5  2 -1</clus>
<clus scale="   93.229">  7  8 -1 -1</clus>
<clus scale="   27.181">  2  5  1 -1</clus>
</clustering>
</event>
<event>
 9    2  0.3745229E-005  0.1682441E+03  0.7546771E-02  0.1198219E+00
         21   -1    0    0  501  502  0.00000000000E+00  0.00000000000E+00  0.25463562969E+03  0.25463562969E+03  0.00000000000E+00 0. -1.
          2   -1    0    0  502    0 -0.00000000000E+00 -0.00000000000E+00 -0.25353780479E+03  0.25353780479E+03  0.00000000000E+00 0. -1.
         23    2    1    2    0    0  0.51803273110E+02 -0.35902545828E+02 -0.12015376258E+03  0.16401564686E+03  0.92150061587E+02 0.  0.
         24    2    1    2    0    0 -0.82008366240E+02 -0.11795057532E+03  0.52634440481E+02  0.17301035586E+03  0.80774306296E+02 0.  0.
        -13    1    4    4    0    0 -0.54833550306E+02 -0.17985122033E+02  0.36198591665E+02  0.68121368837E+02  0.00000000000E+00 0.  1.
         14    1    4    4    0    0 -0.27174815934E+02 -0.99965453287E+02  0.16435848816E+02  0.10488898702E+03  0.00000000000E+00 0. -1.
        -13    1    3    3    0    0  0.74142363122E+02 -0.25252739514E+02 -0.11433944586E+03  0.13859401048E+03  0.00000000000E+00 0.  1.
         13    1    3    3    0    0 -0.22339090012E+02 -0.10649806314E+02 -0.58143167214E+01  0.25421636376E+02  0.00000000000E+00 0. -1.
          1    1    1    2  501    0  0.30205093130E+02  0.15385312115E+03  0.68617147002E+02  0.17114743177E+03  0.00000000000E+00 0. -1.
<scales pt_clust_5="13000.00000" pt_clust_6="13000.00000" pt_clust_7="13000.00000" pt_clust_8="13000.00000" pt_clust_9="147.58583"></scales>
<clustering>
<clus scale="   80.774">  5  6 -1 -1</clus>
<clus scale="   92.150">  7  8 -1 -1</clus>
<clus scale="  111.643">  2  7  1 -1</clus>
<clus scale="  147.586">  1  9  2 -1</clus>
<clus scale="  147.586">  1  5  2 -1</clus>
</clustering>
</event>
<event>
 9    2  0.3745229E-005  0.1117724E+03  0.7546771E-02  0.1260850E+00
         21   -1    0    0  501  502  0.00000000000E+00  0.00000000000E+00  0.73302349044E+02  0.73302349044E+02  0.00000000000E+00 0. -1.
         -1   -1    0    0    0  501 -0.00000000000E+00 -0.00000000000E+00 -0.26099809140E+03  0.26099809140E+03  0.00000000000E+00 0.  1.
         23    2    1    2    0    0  0.69136914665E+02 -0.24001443759E+02 -0.17709374377E+03  0.21185069123E+03  0.90346770953E+02 0.  0.
         24    2    1    2    0    0 -0.44635897433E+02  0.21290010775E+02 -0.18440558645E+02  0.96582883570E+02  0.80886162582E+02 0.  0.
        -13    1    4    4    0    0 -0.11989927726E+02  0.32676457283E+02 -0.42146974197E+02  0.54661473283E+02  0.00000000000E+00 0.  1.
         14    1    4    4    0    0 -0.32645969707E+02 -0.11386446508E+02  0.23706415552E+02  0.41921410287E+02  0.00000000000E+00 0. -1.
        -11    1    3    3    0    0  0.16117804692E+01  0.28837916735E+02 -0.30372431655E+02  0.41913099175E+02  0.00000000000E+00 0.  1.
         11    1    3    3    0    0  0.67525134196E+02 -0.52839360494E+02 -0.14672131212E+03  0.16993759206E+03  0.00000000000E+00 0. -1.
         -2    1    1    2    0  502 -0.24501017232E+02  0.27114329835E+01  0.78385600596E+01  0.25866865640E+02  0.00000000000E+00 0.  1.
<scales pt_clust_5="13000.00000" pt_clust_6="13000.00000" pt_clust_7="13000.00000" pt_clust_8="13000.00000" pt_clust_9="24.65059"></scales>
<clustering>
<clus scale="   24.651">  1  9  2 -1</clus>
<clus scale="   80.886">  5  6 -1 -1</clus>
<clus scale="   90.347">  7  8 -1 -1</clus>
<clus scale="  104.274">  1  5  2 -1</clus>
<clus scale="   24.651">  1  5  2 -1</clus>
</clustering>
</event>
<event>
 9    2  0.3745229E-005  0.9818905E+02  0.7546771E-02  0.1294203E+00
         21   -1    0    0  501  502  0.00000000000E+00  0.00000000000E+00  0.44743060088E+03  0.44743060088E+03  0.00000000000E+00 0. -1.
         -1   -1    0    0    0  501 -0.00000000000E+00 -0.00000000000E+00 -0.11316872748E+03  0.11316872748E+03  0.00000000000E+00 0.  1.
         23    2    1    2    0    0 -0.79371266636E+01  0.60969117104E+01 -0.80070705210E+02  0.12662891443E+03  0.97587877442E+02 0.  0.
         24    2    1    2    0    0 -0.30774886359E+01 -0.38119805269E+02  0.35093656277E+03  0.36209661979E+03  0.80590945412E+02 0.  0.
        -13    1    4    4    0    0  0.25888089914E+02 -0.24647192613E+02  0.63328464092E+02  0.72719816194E+02  0.00000000000E+00 0.  1.
         14    1    4    4    0    0 -0.28965578550E+02 -0.13472612657E+02  0.28760809868E+03  0.28937680359E+03  0.00000000000E+00 0. -1.
        -13    1    3    3    0    0 -0.46150527647E+02 -0.77465758920E+01 -0.70920134333E+02  0.84967912144E+02  0.00000000000E+00 0.  1.
         13    1    3    3    0    0  0.38213400984E+02  0.13843487602E+02 -0.91505708764E+01  0.41661002281E+02  0.00000000000E+00 0. -1.
         -2    1    1    2    0  502  0.11014615299E+02  0.32022893559E+02  0.63396015831E+02  0.71873794149E+02  0.00000000000E+00 0.  1.
<scales pt_clust_5="13000.00000" pt_clust_6="13000.00000" pt_clust_7="13000.00000" pt_clust_8="13000.00000" pt_clust_9="33.86425"></scales>
<clustering>
<clus scale="   33.864">  1  9  2 -1</clus>
<clus scale="   80.591">  5  6 -1 -1</clus>
<clus scale="   81.318">  1  5  2 -1</clus>
<clus scale="   97.588">  7  8 -1 -1</clus>
<clus scale="   33.864">  1  5  2 -1</clus>
</clustering>
</event>
<event>
 9    2  0.3745229E-005  0.1138187E+03  0.7546771E-02  0.1258948E+00
         21   -1    0    0  501  502  0.00000000000E+00  0.00000000000E+00  0.17566721466E+03  0.17566721466E+03  0.00000000000E+00 0.  1.
          4   -1    0    0  502    0 -0.00000000000E+00 -0.00000000000E+00 -0.29299887871E+03  0.29299887871E+03  0.00000000000E+00 0. -1.
         24    2    1    2    0    0  0.61539250962E+02 -0.13937889110E+02 -0.23396905634E+03  0.25535191990E+03  0.80509251087E+02 0.  0.
         23    2    1    2    0    0 -0.54575739481E+02  0.61216739519E+02  0.10685520139E+03  0.16453434724E+03  0.94485537636E+02 0.  0.
        -11    1    3    3    0    0  0.21934365151E+02 -0.44756852139E+02 -0.14331308483E+03  0.15173309616E+03  0.00000000000E+00 0.  1.
         12    1    3    3    0    0  0.39604885811E+02  0.30818963029E+02 -0.90655971511E+02  0.10361882374E+03  0.00000000000E+00 0. -1.
        -11    1    4    4    0    0 -0.40570433841E+02  0.28753118923E+02 -0.23165834654E+01  0.49780201976E+02  0.00000000000E+00 0. -1.
         11    1    4    4    0    0 -0.14005305640E+02  0.32463620596E+02  0.10917178485E+03  0.11475414527E+03  0.00000000000E+00 0.  1.
          3    1    1    2  501    0 -0.69635114812E+01 -0.47278850409E+02  0.97821909046E+01  0.48779826230E+02  0.00000000000E+00 0. -1.
<scales pt_clust_5="13000.00000" pt_clust_6="13000.00000" pt_clust_7="13000.00000" pt_clust_8="13000.00000" pt_clust_9="47.78891"></scales>
<clustering>
<clus scale="   47.789">  1  9  2 -1</clus>
<clus scale="   80.509">  5  6 -1 -1</clus>
<clus scale="   94.486">  7  8 -1 -1</clus>
<clus scale="  102.513">  2  5  1 -1</clus>
<clus scale="   47.789">  1  5  2 -1</clus>
</clustering>
</event>
<event>
 9    2  0.3745229E-005  0.1109133E+03  0.7546771E-02  0.1263094E+00
         -3   -1    0    0    0  501 -0.00000000000E+00  0.00000000000E+00  0.44091597997E+03  0.44091597997E+03  0.00000000000E+00 0.  1.
         21   -1    0    0  501  502  0.00000000000E+00 -0.00000000000E+00 -0.98072854543E+02  0.98072854543E+02  0.00000000000E+00 0.  1.
         23    2    1    2    0    0 -0.54398409596E+02 -0.28212420192E+02  0.32124545193E+03  0.33954919575E+03  0.91322989044E+02 0.  0.
         24    2    1    2    0    0  0.89049618774E+02 -0.30305017393E+02  0.38040178082E+02  0.12947284124E+03  0.80423459181E+02 0.  0.
        -13    1    4    4    0    0  0.87177132503E+02 -0.27641957122E+02  0.58625393497E+02  0.10863179547E+03  0.00000000000E+00 0.  1.
         14    1    4    4    0    0  0.18724862706E+01 -0.26630602711E+01 -0.20585215416E+02  0.20841045764E+02  0.00000000000E+00 0. -1.
        -11    1    3    3    0    0 -0.58596166360E+02 -0.52409321399E+02  0.28588641207E+03  0.29649837823E+03  0.00000000000E+00 0.  1.
         11    1    3    3    0    0  0.41977567638E+01  0.24196901208E+02  0.35359039858E+02  0.43050817525E+02  0.00000000000E+00 0. -1.
         -4    1    1    2    0  502 -0.34651209177E+02  0.58517437585E+02 -0.16442504586E+02  0.69966797526E+02  0.00000000000E+00 0.  1.
<scales pt_clust_5="13000.00000" pt_clust_6="13000.00000" pt_clust_7="13000.00000" pt_clust_8="13000.00000" pt_clust_9="68.00733"></scales>
<clustering>
<clus scale="   68.007">  2  9  1 -1</clus>
<clus scale="   80.423">  5  6 -1 -1</clus>
<clus scale="   91.323">  7  8 -1 -1</clus>
<clus scale="  102.126">  2  5  1 -1</clus>
<clus scale="   68.007">  2  5  1 -1</clus>
</clustering>
</event>
<event>
 9    2  0.3745229E-005  0.1184733E+03  0.7546771E-02  0.1246741E+00
         -1   -1    0    0    0  501 -0.00000000000E+00  0.00000000000E+00  0.12876748015E+04  0.12876748015E+04  0.00000000000E+00 0.  1.
         21   -1    0    0  501  502  0.00000000000E+00 -0.00000000000E+00 -0.36422483447E+02  0.36422483447E+02  0.00000000000E+00 0. -1.
         24    2    1    2    0    0  0.80435818736E+02 -0.76032966163E+01  0.11116472658E+04  0.11181422017E+04  0.89188612147E+02 0.  0.
         23    2    1    2    0    0 -0.55383424838E+02  0.38210830779E+02  0.11902625412E+03  0.16136886882E+03  0.85704558333E+02 0.  0.
        -11    1    3    3    0    0  0.51940015131E+02 -0.23152592210E+02  0.27265171482E+03  0.27851887780E+03  0.00000000000E+00 0.  1.
         12    1    3    3    0    0  0.28495803605E+02  0.15549295594E+02  0.83899555098E+03  0.83962332387E+03  0.00000000000E+00 0. -1.
        -11    1    4    4    0    0 -0.24859032571E+02 -0.22958143626E+02  0.68364359235E+02  0.76280623180E+02  0.00000000000E+00 0.  1.
         11    1    4    4    0    0 -0.30524392266E+02  0.61168974405E+02  0.50661894889E+02  0.85088245643E+02  0.00000000000E+00 0. -1.
         -2    1    1    2    0  502 -0.25052393898E+02 -0.30607534163E+02  0.20578798143E+02  0.44586214468E+02  0.00000000000E+00 0.  1.
<scales pt_clust_5="13000.00000" pt_clust_6="13000.00000" pt_clust_7="13000.00000" pt_clust_8="13000.00000" pt_clust_9="39.55305"></scales>
<clustering>
<clus scale="   39.553">  2  9  1 -1</clus>
<clus scale="   85.705">  7  8 -1 -1</clus>
<clus scale="   89.189">  5  6 -1 -1</clus>
<clus scale="  115.873">  2  7  1 -1</clus>
<clus scale="   39.553">  2  5  1 -1</clus>
</clustering>
</event>
<event>
 9    2  0.3745229E-005  0.9366555E+02  0.7546771E-02  0.1297105E+00
         -1   -1    0    0    0  501 -0.00000000000E+00  0.00000000000E+00  0.26025818167E+03  0.26025818167E+03  0.00000000000E+00 0.  1.
         21   -1    0    0  501  502  0.00000000000E+00 -0.00000000000E+00 -0.55161368668E+02  0.55161368668E+02  0.00000000000E+00 0.  1.
         23    2    1    2    0    0  0.49334779156E+02  0.89207919310E+01  0.14245706301E+03  0.16844983385E+03  0.74617898381E+02 0.  0.
         24    2    1    2    0    0 -0.38789824373E+02 -0.27360708689E+02  0.77263285589E+02  0.12118068016E+03  0.80385838855E+02 0.  0.
        -11    1    4    4    0    0  0.19617017660E+02 -0.20114492453E+02  0.47599164565E+02  0.55272964963E+02  0.00000000000E+00 0.  1.
         12    1    4    4    0    0 -0.58406842032E+02 -0.72462162366E+01  0.29664121024E+02  0.65907715194E+02  0.00000000000E+00 0. -1.
        -11    1    3    3    0    0  0.50705198547E+02  0.29496555258E+02  0.13378270416E+03  0.14607832100E+03  0.00000000000E+00 0. -1.
         11    1    3    3    0    0 -0.13704193912E+01 -0.20575763327E+02  0.86743588448E+01  0.22371512850E+02  0.00000000000E+00 0.  1.
         -2    1    1    2    0  502 -0.10544954783E+02  0.18439916758E+02 -0.14623535600E+02  0.25789036331E+02  0.00000000000E+00 0.  1.
<scales pt_clust_5="13000.00000" pt_clust_6="13000.00000" pt_clust_7="13000.00000" pt_clust_8="13000.00000" pt_clust_9="21.24210"></scales>
<clustering>
<clus scale="   21.242">  2  9  1 -1</clus>
<clus scale="   74.618">  7  8 -1 -1</clus>
<clus scale="   80.386">  5  6 -1 -1</clus>
<clus scale="   88.765">  1  7  2 -1</clus>
<clus scale="   21.242">  2  5  1 -1</clus>
</clustering>
</event>
<event>
 9    2  0.3745229E-005  0.3179130E+03  0.7546771E-02  0.1117968E+00
          2   -1    0    0  502    0 -0.00000000000E+00  0.00000000000E+00  0.86964235629E+03  0.86964235629E+03  0.00000000000E+00 0. -1.
         21   -1    0    0  501  502  0.00000000000E+00 -0.00000000000E+00 -0.20115506608E+03  0.20115506608E+03  0.00000000000E+00 0. -1.
         23    2    1    2    0    0  0.44392630436E+02  0.35630938737E+02  0.33528620268E+03  0.35227827809E+03  0.91885135219E+02 0.  0.
         24    2    1    2    0    0 -0.22494136968E+03  0.21404817796E+03  0.22644871555E+03  0.39243084722E+03  0.79421072736E+02 0.  0.
        -13    1    4    4    0    0 -0.11264270368E+03  0.81656201094E+02  0.58637057910E+02  0.15097820515E+03  0.00000000000E+00 0.  1.
         14    1    4    4    0    0 -0.11229866600E+03  0.13239197686E+03  0.16781165764E+03  0.24145264207E+03  0.00000000000E+00 0. -1.
        -11    1    3    3    0    0 -0.96090209255E+01  0.42067343761E+02  0.22742440077E+03  0.23148186270E+03  0.00000000000E+00 0. -1.
         11    1    3    3    0    0  0.54001651361E+02 -0.64364050243E+01  0.10786180191E+03  0.12079641539E+03  0.00000000000E+00 0.  1.
          1    1    1    2  501    0  0.18054873924E+03 -0.24967911669E+03  0.10675237198E+03  0.32608829706E+03  0.00000000000E+00 0. -1.
<scales pt_clust_5="13000.00000" pt_clust_6="13000.00000" pt_clust_7="13000.00000" pt_clust_8="13000.00000" pt_clust_9="307.83268"></scales>
<clustering>
<clus scale="   79.421">  5  6 -1 -1</clus>
<clus scale="   91.885">  7  8 -1 -1</clus>
<clus scale="  108.089">  1  7  2 -1</clus>
<clus scale="  307.833">  2  9  1 -1</clus>
<clus scale="  307.833">  2  5  1 -1</clus>
</clustering>
</event>
<event>
 9    2  0.3745229E-005  0.2435460E+03  0.7546771E-02  0.1135993E+00
         21   -1    0    0  501  502  0.00000000000E+00  0.00000000000E+00  0.92647193834E+02  0.92647193834E+02  0.00000000000E+00 0.  1.
         -3   -1    0    0    0  501 -0.00000000000E+00 -0.00000000000E+00 -0.12328361633E+04  0.12328361633E+04  0.00000000000E+00 0.  1.
         24    2    1    2    0    0  0.61728114923E+02 -0.12175912249E+03 -0.12544301743E+03  0.19865995121E+03  0.71373535089E+02 0.  0.
         23    2    1    2    0    0 -0.79560298380E+02  0.27867577427E+03 -0.47065005463E+03  0.56027140659E+03  0.91665407189E+02 0.  0.
        -11    1    3    3    0    0  0.72692764118E+02 -0.88522085516E+02 -0.11457659218E+03  0.16201294101E+03  0.00000000000E+00 0.  1.
         12    1    3    3    0    0 -0.10964649195E+02 -0.33237036975E+02 -0.10866425250E+02  0.36647010199E+02  0.00000000000E+00 0. -1.
        -11    1    4    4    0    0 -0.65534092606E+02  0.17266511902E+03 -0.21668162352E+03  0.28470842382E+03  0.00000000000E+00 0.  1.
         11    1    4    4    0    0 -0.14026205774E+02  0.10601065525E+03 -0.25396843111E+03  0.27556298277E+03  0.00000000000E+00 0. -1.
         -4    1    1    2    0  502  0.17832183457E+02 -0.15691665178E+03 -0.54409589739E+03  0.56655199932E+03  0.00000000000E+00 0.  1.
<scales pt_clust_5="13000.00000" pt_clust_6="13000.00000" pt_clust_7="13000.00000" pt_clust_8="13000.00000" pt_clust_9="225.63724"></scales>
<clustering>
<clus scale="   71.374">  5  6 -1 -1</clus>
<clus scale="   91.665">  7  8 -1 -1</clus>
<clus scale="  154.045">  2  5  1 -1</clus>
<clus scale="  225.637">  1  9  2 -1</clus>
<clus scale="  225.637">  1  5  2 -1</clus>
</clustering>
</event>
<event>
 9    2  0.3745229E-005  0.2083867E+03  0.7546771E-02  0.1147821E+00
         -1   -1    0    0    0  501 -0.00000000000E+00  0.00000000000E+00  0.22329864845E+03  0.22329864845E+03  0.00000000000E+00 0.  1.
         21   -1    0    0  501  502  0.00000000000E+00 -0.00000000000E+00 -0.35061227504E+03  0.35061227504E+03  0.00000000000E+00 0. -1.
         24    2    1    2    0    0  0.12613151426E+03 -0.10471675827E+03  0.11350857989E+03  0.21527665994E+03  0.81148532053E+02 0.  0.
         23    2    1    2    0    0 -0.14586711430E+03  0.99208805548E+02 -0.14488246389E+03  0.26053092183E+03  0.12556205937E+03 0.  0.
        -13    1    3    3    0    0  0.10443308306E+03 -0.36227595432E+02  0.76786242771E+02  0.13459136149E+03  0.00000000000E+00 0.  1.
         14    1    3    3    0    0  0.21698431198E+02 -0.68489162838E+02  0.36722337115E+02  0.80685298449E+02  0.00000000000E+00 0. -1.
        -11    1    4    4    0    0 -0.61574708648E+02 -0.22304953882E+02 -0.65757426369E+02  0.92806221965E+02  0.00000000000E+00 0.  1.
         11    1    4    4    0    0 -0.84292405651E+02  0.12151375943E+03 -0.79125037522E+02  0.16772469986E+03  0.00000000000E+00 0. -1.
         -2    1    1    2    0  502  0.19735600040E+02  0.55079527226E+01 -0.95939742581E+02  0.98103341730E+02  0.00000000000E+00 0.  1.
<scales pt_clust_5="13000.00000" pt_clust_6="13000.00000" pt_clust_7="13000.00000" pt_clust_8="13000.00000" pt_clust_9="20.48979"></scales>
<clustering>
<clus scale="   20.490">  2  9  1 -1</clus>
<clus scale="   81.149">  5  6 -1 -1</clus>
<clus scale="  125.562">  7  8 -1 -1</clus>
<clus scale="  185.052">  1  5  2 -1</clus>
<clus scale="   20.490">  2  5  1 -1</clus>
</clustering>
</event>
<event>
 9    2  0.3745229E-005  0.9094813E+02  0.7546771E-02  0.1308957E+00
          2   -1    0    0  502    0 -0.00000000000E+00  0.00000000000E+00  0.33093079312E+03  0.33093079312E+03  0.00000000000E+00 0. -1.
         21   -1    0    0  501  502  0.00000000000E+00 -0.00000000000E+00 -0.65934398578E+02  0.65934398578E+02  0.00000000000E+00 0. -1.
         24    2    1    2    0    0 -0.11504666522E+02 -0.21743383292E+00  0.19382621101E+03  0.20903844815E+03  0.77434282454E+02 0.  0.
         23    2    1    2    0    0 -0.30554090587E+02  0.39988486270E+02  0.77903663976E+02  0.12955140210E+03  0.90454151036E+02 0.  0.
        -11    1    3    3    0    0 -0.13152641892E+02 -0.34452036320E+02  0.14340762910E+03  0.14807323485E+03  0.00000000000E+00 0.  1.
         12    1    3    3    0    0  0.16479753695E+01  0.34234602487E+02  0.50418581919E+02  0.60965213302E+02  0.00000000000E+00 0. -1.
        -13    1    4    4    0    0  0.26100286972E+02  0.17497126333E+02  0.57043024169E+02  0.65125118167E+02  0.00000000000E+00 0.  1.
         13    1    4    4    0    0 -0.56654377558E+02  0.22491359936E+02  0.20860639806E+02  0.64426283933E+02  0.00000000000E+00 0. -1.
          1    1    1    2  501    0  0.42058757109E+02 -0.39771052437E+02 -0.67334804526E+01  0.58275341445E+02  0.00000000000E+00 0. -1.
<scales pt_clust_5="13000.00000" pt_clust_6="13000.00000" pt_clust_7="13000.00000" pt_clust_8="13000.00000" pt_clust_9="57.88502"></scales>
<clustering>
<clus scale="   57.885">  2  9  1 -1</clus>
<clus scale="   77.434">  5  6 -1 -1</clus>
<clus scale="   78.011">  1  5  2 -1</clus>
<clus scale="   90.454">  7  8 -1 -1</clus>
<clus scale="   57.885">  2  5  1 -1</clus>
</clustering>
</event>
<event>
 9    2  0.3745229E-005  0.1369362E+03  0.7546771E-02  0.1219836E+00
         -1   -1    0    0    0  501 -0.00000000000E+00  0.00000000000E+00  0.37340783557E+03  0.37340783557E+03  0.00000000000E+00 0.  1.
         21   -1    0    0  501  502  0.00000000000E+00 -0.00000000000E+00 -0.10274379540E+03  0.10274379540E+03  0.00000000000E+00 0.  1.
         24    2    1    2    0    0  0.91173475174E+02 -0.65603992388E+02  0.26915876778E+03  0.30269568352E+03  0.81004618092E+02 0.  0.
         23    2    1    2    0    0 -0.64292905041E+02  0.39716398159E+02  0.34831869971E+02  0.12342201204E+03  0.91152421632E+02 0.  0.
        -11    1    3    3    0    0  0.88443556194E+02 -0.24544606061E+02  0.22129287474E+03  0.23957303006E+03  0.00000000000E+00 0.  1.
         12    1    3    3    0    0  0.27299189805E+01 -0.41059386327E+02  0.47865893043E+02  0.63122653461E+02  0.00000000000E+00 0. -1.
        -13    1    4    4    0    0 -0.38830079178E+02  0.64223462199E+02  0.43887329738E+02  0.86939782938E+02  0.00000000000E+00 0. -1.
         13    1    4    4    0    0 -0.25462825863E+02 -0.24507064040E+02 -0.90554597670E+01  0.36482229104E+02  0.00000000000E+00 0.  1.
         -2    1    1    2    0  502 -0.26880570134E+02  0.25887594230E+02 -0.33326597585E+02  0.50033935407E+02  0.00000000000E+00 0.  1.
<scales pt_clust_5="13000.00000" pt_clust_6="13000.00000" pt_clust_7="13000.00000" pt_clust_8="13000.00000" pt_clust_9="37.31933"></scales>
<clustering>
<clus scale="   37.319">  2  9  1 -1</clus>
<clus scale="   81.005">  5  6 -1 -1</clus>
<clus scale="   91.152">  7  8 -1 -1</clus>
<clus scale="  130.401">  1  5  2 -1</clus>
<clus scale="   37.319">  2  5  1 -1</clus>
</clustering>
</event>
<event>
 9    2  0.3745229E-005  0.8851303E+02  0.7546771E-02  0.1310367E+00
         21   -1    0    0  501  502  0.00000000000E+00  0.00000000000E+00  0.25626868779E+03  0.25626868779E+03  0.00000000000E+00 0.  1.
         -3   -1    0    0    0  501 -0.00000000000E+00 -0.00000000000E+00 -0.66264190538E+02  0.66264190538E+02  0.00000000000E+00 0.  1.
         24    2    1    2    0    0  0.39104379424E+00  0.14842839052E+02  0.48105893597E+02  0.94396297351E+02  0.79849991663E+02 0.  0.
         23    2    1    2    0    0  0.91357875327E+01 -0.35123430498E+02  0.16892759529E+03  0.19302776025E+03  0.86058502143E+02 0.  0.
        -11    1    3    3    0    0  0.32203740648E+02  0.17183239082E+02 -0.20805223071E+00  0.36501889031E+02  0.00000000000E+00 0.  1.
         12    1    3    3    0    0 -0.31812696854E+02 -0.23404000303E+01  0.48313945827E+02  0.57894408321E+02  0.00000000000E+00 0. -1.
        -11    1    4    4    0    0  0.33355893550E+02 -0.53175486152E+02  0.12234077315E+03  0.13750459169E+03  0.00000000000E+00 0.  1.
         11    1    4    4    0    0 -0.24220106018E+02  0.18052055655E+02  0.46586822146E+02  0.55523168556E+02  0.00000000000E+00 0. -1.
         -4    1    1    2    0  502 -0.95268313270E+01  0.20280591446E+02 -0.27028991633E+02  0.35108820733E+02  0.00000000000E+00 0.  1.
<scales pt_clust_5="13000.00000" pt_clust_6="13000.00000" pt_clust_7="13000.00000" pt_clust_8="13000.00000" pt_clust_9="22.40677"></scales>
<clustering>
<clus scale="   22.407">  1  9  2 -1</clus>
<clus scale="   79.850">  5  6 -1 -1</clus>
<clus scale="   82.489">  2  5  1 -1</clus>
<clus scale="   86.059">  7  8 -1 -1</clus>
<clus scale="   22.407">  1  5  2 -1</clus>
</clustering>
</event>
<event>
 9    2  0.3745229E-005  0.9886836E+02  0.7546771E-02  0.1285589E+00
          2   -1    0    0  502    0 -0.00000000000E+00  0.00000000000E+00  0.48398100041E+03  0.48398100041E+03  0.00000000000E+00 0. -1.
         21   -1    0    0  501  502  0.00000000000E+00 -0.00000000000E+00 -0.54271708140E+02  0.54271708140E+02  0.00000000000E+00 0.  1.
         23    2    1    2    0    0 -0.23812814283E+02 -0.28308715123E+02  0.36244086867E+03  0.37568658019E+03  0.91698363013E+02 0.  0.
         24    2    1    2    0    0  0.53661802469E+02 -0.17186241126E+01  0.28872412831E+02  0.10540970405E+03  0.85994457794E+02 0.  0.
        -11    1    4    4    0    0  0.33451004828E+02 -0.45240878687E+01 -0.28713315673E+02  0.44315816499E+02  0.00000000000E+00 0.  1.
         12    1    4    4    0    0  0.20210797641E+02  0.28054637561E+01  0.57585728504E+02  0.61093887547E+02  0.00000000000E+00 0. -1.
        -13    1    3    3    0    0 -0.57150983044E+02 -0.14155766711E+02  0.27125305332E+03  0.27756952197E+03  0.00000000000E+00 0. -1.
         13    1    3    3    0    0  0.33338168761E+02 -0.14152948412E+02  0.91187815350E+02  0.98117058218E+02  0.00000000000E+00 0.  1.
          1    1    1    2  501    0 -0.29848988186E+02  0.30027339236E+02  0.38396010774E+02  0.57156424317E+02  0.00000000000E+00 0. -1.
<scales pt_clust_5="13000.00000" pt_clust_6="13000.00000" pt_clust_7="13000.00000" pt_clust_8="13000.00000" pt_clust_9="42.33914"></scales>
<clustering>
<clus scale="   42.339">  2  9  1 -1</clus>
<clus scale="   85.994">  5  6 -1 -1</clus>
<clus scale="   91.698">  7  8 -1 -1</clus>
<clus scale="   93.602">  2  5  1 -1</clus>
<clus scale="   42.339">  2  5  1 -1</clus>
</clustering>
</event>
<event>
 9    2  0.3745229E-005  0.9250094E+02  0.7546771E-02  0.1302151E+00
         -3   -1    0    0    0  501 -0.00000000000E+00  0.00000000000E+00  0.14340360258E+03  0.14340360258E+03  0.00000000000E+00 0.  1.
         21   -1    0    0  501  502  0.00000000000E+00 -0.00000000000E+00 -0.20376339457E+03  0.20376339457E+03  0.00000000000E+00 0.  1.
         23    2    1    2    0    0  0.17518253240E+02  0.41425193142E+01  0.91318123712E+02  0.13001997382E+03  0.90786255621E+02 0.  0.
         24    2    1    2    0    0 -0.72892654721E+01 -0.25674316755E+02 -0.27323576148E+02  0.90528492861E+02  0.82076344182E+02 0.  0.
        -13    1    4    4    0    0  0.30246102865E+02 -0.25268039257E+02  0.65670912224E+01  0.39955315460E+02  0.00000000000E+00 0.  1.
         14    1    4    4    0    0 -0.37535368337E+02 -0.40627749891E+00 -0.33890667370E+02  0.50573177401E+02  0.00000000000E+00 0. -1.
        -11    1    3    3    0    0 -0.77476318917E+01  0.42327717262E+02  0.62629049898E+02  0.75987231425E+02  0.00000000000E+00 0.  1.
         11    1    3    3    0    0  0.25265885132E+02 -0.38185197948E+02  0.28689073814E+02  0.54032742390E+02  0.00000000000E+00 0. -1.
         -4    1    1    2    0  502 -0.10228987768E+02  0.21531797441E+02 -0.12435433956E+03  0.12661853047E+03  0.00000000000E+00 0.  1.
<scales pt_clust_5="13000.00000" pt_clust_6="13000.00000" pt_clust_7="13000.00000" pt_clust_8="13000.00000" pt_clust_9="23.83801"></scales>
<clustering>
<clus scale="   23.838">  2  9  1 -1</clus>
<clus scale="   82.076">  5  6 -1 -1</clus>
<clus scale="   83.969">  2  5  1 -1</clus>
<clus scale="   90.786">  7  8 -1 -1</clus>
<clus scale="   23.838">  2  5  1 -1</clus>
</clustering>
</event>
<event>
 9    2  0.3745229E-005  0.4320677E+03  0.7546771E-02  0.1086658E+00
         21   -1    0    0  501  502  0.00000000000E+00  0.00000000000E+00  0.64724501182E+03  0.64724501182E+03  0.00000000000E+00 0.  1.
         -1   -1    0    0    0  501 -0.00000000000E+00 -0.00000000000E+00 -0.36676521574E+03  0.36676521574E+03  0.00000000000E+00 0.  1.
         23    2    1    2    0    0 -0.13322408495E+02  0.25072219542E+02 -0.31956957469E+02  0.10184605453E+03  0.92440623817E+02 0.  0.
         24    2    1    2    0    0  0.14208172427E+02 -0.43690021668E+03  0.17921096040E+03  0.47932217442E+03  0.80929024817E+02 0.  0.
        -11    1    4    4    0    0  0.21334115649E+02 -0.35485925341E+03  0.11110295955E+03  0.37245684561E+03  0.00000000000E+00 0.  1.
         12    1    4    4    0    0 -0.71259432220E+01 -0.82040963275E+02  0.68108000841E+02  0.10686532880E+03  0.00000000000E+00 0. -1.
        -11    1    3    3    0    0  0.18839335539E+02  0.28769715088E+02  0.20623027567E+02  0.40098956792E+02  0.00000000000E+00 0.  1.
         11    1    3    3    0    0 -0.32161744034E+02 -0.36974955452E+01 -0.52579985036E+02  0.61747097737E+02  0.00000000000E+00 0. -1.
         -2    1    1    2    0  502 -0.88576393134E+00  0.41182799714E+03  0.13322579315E+03  0.43284199862E+03  0.00000000000E+00 0.  1.
<scales pt_clust_5="13000.00000" pt_clust_6="13000.00000" pt_clust_7="13000.00000" pt_clust_8="13000.00000" pt_clust_9="424.42098"></scales>
<clustering>
<clus scale="   80.929">  5  6 -1 -1</clus>
<clus scale="   92.441">  7  8 -1 -1</clus>
<clus scale="   96.702">  2  7  1 -1</clus>
<clus scale="  424.421">  1  9  2 -1</clus>
<clus scale="  424.421">  1  5  2 -1</clus>
</clustering>
</event>
<event>
 9    2  0.3745229E-005  0.9303945E+02  0.7546771E-02  0.1299126E+00
         21   -1    0    0  501  502  0.00000000000E+00  0.00000000000E+00  0.38776383257E+03  0.38776383257E+03  0.00000000000E+00 0. -1.
          2   -1    0    0  502    0 -0.00000000000E+00 -0.00000000000E+00 -0.11439205066E+03  0.11439205066E+03  0.00000000000E+00 0. -1.
         23    2    1    2    0    0 -0.12817510761E+02  0.18104694554E+02 -0.70959638777E+02  0.11817791506E+03  0.91862292191E+02 0.  0.
         24    2    1    2    0    0 -0.23884153412E+02  0.10367243994E+02  0.96578964265E+02  0.13190864616E+03  0.85991058027E+02 0.  0.
        -11    1    4    4    0    0  0.30175400877E+02  0.16790240987E+02  0.46645982233E+02  0.58037183503E+02  0.00000000000E+00 0.  1.
         12    1    4    4    0    0 -0.54059554288E+02 -0.64229969939E+01  0.49932982032E+02  0.73871462655E+02  0.00000000000E+00 0. -1.
        -11    1    3    3    0    0 -0.30923276957E+01  0.40510829258E+02 -0.81892558071E+02  0.91417070863E+02  0.00000000000E+00 0. -1.
         11    1    3    3    0    0 -0.97251830655E+01 -0.22406134705E+02  0.10932919294E+02  0.26760844201E+02  0.00000000000E+00 0.  1.
          1    1    1    2  501    0  0.36701664173E+02 -0.28471938547E+02  0.24775245642E+03  0.25206932201E+03  0.00000000000E+00 0. -1.
<scales pt_clust_5="13000.00000" pt_clust_6="13000.00000" pt_clust_7="13000.00000" pt_clust_8="13000.00000" pt_clust_9="46.45066"></scales>
<clustering>
<clus scale="   46.451">  1  9  2 -1</clus>
<clus scale="   85.991">  5  6 -1 -1</clus>
<clus scale="   87.247">  1  5  2 -1</clus>
<clus scale="   91.862">  7  8 -1 -1</clus>
<clus scale="   46.451">  1  5  2 -1</clus>
</clustering>
</event>
<event>
 9    2  0.3745229E-005  0.9859653E+02  0.7546771E-02  0.1292360E+00
         21   -1    0    0  501  502  0.00000000000E+00  0.00000000000E+00  0.10271540745E+03  0.10271540745E+03  0.00000000000E+00 0. -1.
          2   -1    0    0  502    0 -0.00000000000E+00 -0.00000000000E+00 -0.45736598554E+03  0.45736598554E+03  0.00000000000E+00 0. -1.
         24    2    1    2    0    0 -0.55320779051E+01 -0.32547305274E+02 -0.23718486667E+03  0.25127314672E+03  0.76102577632E+02 0.  0.
         23    2    1    2    0    0 -0.38035100307E+02  0.31053820426E+02 -0.19409172278E+03  0.22065000712E+03  0.92756779651E+02 0.  0.
        -13    1    3    3    0    0  0.13161140176E+02 -0.33655642905E+02 -0.42918314176E+02  0.56106145847E+02  0.00000000000E+00 0.  1.
         14    1    3    3    0    0 -0.18693218082E+02  0.11083376309E+01 -0.19426655249E+03  0.19516700088E+03  0.00000000000E+00 0. -1.
        -11    1    4    4    0    0  0.23354961448E+01 -0.30808867323E+02 -0.63342110747E+02  0.70475980602E+02  0.00000000000E+00 0.  1.
         11    1    4    4    0    0 -0.40370596451E+02  0.61862687749E+02 -0.13074961203E+03  0.15017402652E+03  0.00000000000E+00 0. -1.
          1    1    1    2  501    0  0.43567178212E+02  0.14934848480E+01  0.76626011354E+02  0.88158239152E+02  0.00000000000E+00 0. -1.
<scales pt_clust_5="13000.00000" pt_clust_6="13000.00000" pt_clust_7="13000.00000" pt_clust_8="13000.00000" pt_clust_9="43.59277"></scales>
<clustering>
<clus scale="   43.593">  1  9  2 -1</clus>
<clus scale="   76.103">  5  6 -1 -1</clus>
<clus scale="   83.121">  2  5  1 -1</clus>
<clus scale="   92.757">  7  8 -1 -1</clus>
<clus scale="   43.593">  1  5  2 -1</clus>
</clustering>
</event>
<event>
 9    2  0.3745229E-005  0.1185407E+03  0.7546771E-02  0.1248869E+00
         21   -1    0    0  501  502  0.00000000000E+00  0.00000000000E+00  0.14825290143E+03  0.14825290143E+03  0.00000000000E+00 0.  1.
          2   -1    0    0  502    0 -0.00000000000E+00 -0.00000000000E+00 -0.20062388037E+03  0.20062388037E+03  0.00000000000E+00 0. -1.
         23    2    1    2    0    0 -0.27973405482E+01  0.53032044121E+02 -0.34485888633E+02  0.11062816020E+03  0.90714334569E+02 0.  0.
         24    2    1    2    0    0  0.39148710297E+02 -0.12319423285E+03  0.14359284728E+02  0.15290312065E+03  0.80397355182E+02 0.  0.
        -11    1    4    4    0    0  0.64140199191E+02 -0.83585245554E+02  0.11440071358E+02  0.10597798667E+03  0.00000000000E+00 0.  1.
         12    1    4    4    0    0 -0.24991488894E+02 -0.39608987301E+02  0.29192133697E+01  0.46925133978E+02  0.00000000000E+00 0. -1.
        -13    1    3    3    0    0  0.20226464202E+02  0.67814856098E+02 -0.41951074686E+02  0.82266987480E+02  0.00000000000E+00 0. -1.
         13    1    3    3    0    0 -0.23023804751E+02 -0.14782811977E+02  0.74651860535E+01  0.28361172718E+02  0.00000000000E+00 0.  1.
          1    1    1    2  501    0 -0.36351369749E+02  0.70162188733E+02 -0.32244375044E+02  0.85345500950E+02  0.00000000000E+00 0. -1.
<scales pt_clust_5="13000.00000" pt_clust_6="13000.00000" pt_clust_7="13000.00000" pt_clust_8="13000.00000" pt_clust_9="79.02000"></scales>
<clustering>
<clus scale="   79.020">  1  9  2 -1</clus>
<clus scale="   80.397">  5  6 -1 -1</clus>
<clus scale="   90.714">  7  8 -1 -1</clus>
<clus scale="  110.845">  1  5  2 -1</clus>
<clus scale="   79.020">  1  5  2 -1</clus>
</clustering>
</event>
<event>
 9    2  0.3745229E-005  0.1003252E+03  0.7546771E-02  0.1284775E+00
         21   -1    0    0  501  502  0.00000000000E+00  0.00000000000E+00  0.25491054880E+03  0.25491054880E+03  0.00000000000E+00 0.  1.
         -3   -1    0    0    0  501 -0.00000000000E+00 -0.00000000000E+00 -0.78354616747E+02  0.78354616747E+02  0.00000000000E+00 0.  1.
         24    2    1    2    0    0 -0.31411607273E+02 -0.14383718979E+02 -0.95966188390E+01  0.88891068353E+02  0.81338468738E+02 0.  0.
         23    2    1    2    0    0  0.65690191464E+02  0.24438250072E+02  0.16926201940E+03  0.20485947985E+03  0.91680673817E+02 0.  0.
        -13    1    3    3    0    0 -0.19819625419E+02  0.25264553387E+02  0.20219322630E+02  0.37946491501E+02  0.00000000000E+00 0.  1.
         14    1    3    3    0    0 -0.11591981854E+02 -0.39648272367E+02 -0.29815941469E+02  0.50944576852E+02  0.00000000000E+00 0. -1.
        -13    1    4    4    0    0  0.35441475789E+02  0.29646146042E+02  0.16529917998E+02  0.49073723828E+02  0.00000000000E+00 0.  1.
         13    1    4    4    0    0  0.30248715674E+02 -0.52078959696E+01  0.15273210141E+03  0.15578575603E+03  0.00000000000E+00 0. -1.
         -4    1    1    2    0  502 -0.34278584191E+02 -0.10054531093E+02  0.16890531487E+02  0.39514617340E+02  0.00000000000E+00 0.  1.
<scales pt_clust_5="13000.00000" pt_clust_6="13000.00000" pt_clust_7="13000.00000" pt_clust_8="13000.00000" pt_clust_9="35.72277"></scales>
<clustering>
<clus scale="   35.723">  1  9  2 -1</clus>
<clus scale="   81.338">  5  6 -1 -1</clus>
<clus scale="   90.971">  2  5  1 -1</clus>
<clus scale="   91.681">  7  8 -1 -1</clus>
<clus scale="   35.723">  1  5  2 -1</clus>
</clustering>
</event>
<event>
 9    2  0.3745229E-005  0.1385719E+03  0.7546771E-02  0.1231562E+00
         21   -1    0    0  501  502  0.00000000000E+00  0.00000000000E+00  0.39767688528E+03  0.39767688528E+03  0.00000000000E+00 0. -1.
          2   -1    0    0  502    0 -0.00000000000E+00 -0.00000000000E+00 -0.19334881411E+03  0.19334881411E+03  0.00000000000E+00 0. -1.
         24    2    1    2    0    0  0.50791212005E+02  0.30892920083E+02 -0.74900007418E+02  0.12382515038E+03  0.78667255108E+02 0.  0.
         23    2    1    2    0    0 -0.42296955144E+02  0.94653288650E+02  0.30876037967E+03  0.33794823865E+03  0.90154104078E+02 0.  0.
        -13    1    3    3    0    0 -0.12237789969E+02  0.33352244122E+02 -0.27024351186E+02  0.44636882153E+02  0.00000000000E+00 0.  1.
         14    1    3    3    0    0  0.63029001974E+02 -0.24593240395E+01 -0.47875656232E+02  0.79188268223E+02  0.00000000000E+00 0. -1.
        -11    1    4    4    0    0 -0.40730807784E+02  0.18553439066E+02  0.20158581935E+03  0.20649472479E+03  0.00000000000E+00 0.  1.
         11    1    4    4    0    0 -0.15661473605E+01  0.76099849584E+02  0.10717456032E+03  0.13145351385E+03  0.00000000000E+00 0. -1.
          1    1    1    2  501    0 -0.84942568613E+01 -0.12554620873E+03 -0.29532301088E+02  0.12925231036E+03  0.00000000000E+00 0. -1.
<scales pt_clust_5="13000.00000" pt_clust_6="13000.00000" pt_clust_7="13000.00000" pt_clust_8="13000.00000" pt_clust_9="105.23511"></scales>
<clustering>
<clus scale="   78.667">  5  6 -1 -1</clus>
<clus scale="   90.154">  7  8 -1 -1</clus>
<clus scale="   98.604">  2  5  1 -1</clus>
<clus scale="  105.235">  1  9  2 -1</clus>
<clus scale="  105.235">  1  5  2 -1</clus>
</clustering>
</event>
<event>
 9    2  0.3745229E-005  0.1033539E+03  0.7546771E-02  0.1281861E+00
         21   -1    0    0  501  502  0.00000000000E+00  0.00000000000E+00  0.65336292864E+02  0.65336292864E+02  0.00000000000E+00 0.  1.
          2   -1    0    0  502    0 -0.00000000000E+00 -0.00000000000E+00 -0.40985263254E+03  0.40985263254E+03  0.00000000000E+00 0. -1.
         24    2    1    2    0    0  0.17986958971E+02 -0.35358324655E+02 -0.15937575358E+03  0.18299157630E+03  0.80694140763E+02 0.  0.
         23    2    1    2    0    0  0.45094816680E+01  0.17359013927E+02  0.58082192714E+01  0.99087247605E+02  0.97277317178E+02 0.  0.
        -11    1    3    3    0    0  0.47728813319E+02 -0.35208715379E+02 -0.11760171708E+03  0.13171126421E+03  0.00000000000E+00 0.  1.
         12    1    3    3    0    0 -0.29741854348E+02 -0.14960927579E+00 -0.41774036499E+02  0.51280312093E+02  0.00000000000E+00 0. -1.
        -11    1    4    4    0    0 -0.35601522134E+02  0.20976388886E+02 -0.25075705039E+02  0.48334958903E+02  0.00000000000E+00 0. -1.
         11    1    4    4    0    0  0.40111003802E+02 -0.36173749596E+01  0.30883924311E+02  0.50752288701E+02  0.00000000000E+00 0.  1.
          1    1    1    2  501    0 -0.22496440639E+02  0.17999310728E+02 -0.19094880537E+03  0.19311010150E+03  0.00000000000E+00 0. -1.
<scales pt_clust_5="13000.00000" pt_clust_6="13000.00000" pt_clust_7="13000.00000" pt_clust_8="13000.00000" pt_clust_9="28.81086"></scales>
<clustering>
<clus scale="   28.811">  1  9  2 -1</clus>
<clus scale="   80.694">  5  6 -1 -1</clus>
<clus scale="   87.924">  2  5  1 -1</clus>
<clus scale="   97.277">  7  8 -1 -1</clus>
<clus scale="   28.811">  1  5  2 -1</clus>
</clustering>
</event>
<event>
 9    2  0.3745229E-005  0.9276227E+02  0.7546771E-02  0.1300857E+00
         21   -1    0    0  501  502  0.00000000000E+00  0.00000000000E+00  0.38476846147E+02  0.38476846147E+02  0.00000000000E+00 0.  1.
         -1   -1    0    0    0  501 -0.00000000000E+00 -0.00000000000E+00 -0.72633030504E+03  0.72633030504E+03  0.00000000000E+00 0.  1.
         24    2    1    2    0    0  0.24387808590E+02 -0.12102426983E+02 -0.52064150247E+03  0.52779982521E+03  0.82242613384E+02 0.  0.
         23    2    1    2    0    0  0.58492565474E+01 -0.28873949216E+02 -0.45466700751E+02  0.10504047107E+03  0.89990893649E+02 0.  0.
        -11    1    3    3    0    0  0.18788246536E+02  0.29612978017E+02 -0.12194374308E+03  0.12688657593E+03  0.00000000000E+00 0.  1.
         12    1    3    3    0    0  0.55995620546E+01 -0.41715405001E+02 -0.39869775939E+03  0.40091324928E+03  0.00000000000E+00 0. -1.
        -11    1    4    4    0    0  0.36533083602E+02 -0.15940931413E+02  0.93143732639E+01  0.40933324334E+02  0.00000000000E+00 0.  1.
         11    1    4    4    0    0 -0.30683827054E+02 -0.12933017803E+02 -0.54781074015E+02  0.64107146734E+02  0.00000000000E+00 0. -1.
         -2    1    1    2    0  502 -0.30237065138E+02  0.40976376199E+02 -0.12174525568E+03  0.13196685491E+03  0.00000000000E+00 0.  1.
<scales pt_clust_5="13000.00000" pt_clust_6="13000.00000" pt_clust_7="13000.00000" pt_clust_8="13000.00000" pt_clust_9="50.92491"></scales>
<clustering>
<clus scale="   50.925">  1  9  2 -1</clus>
<clus scale="   82.243">  5  6 -1 -1</clus>
<clus scale="   85.266">  2  5  1 -1</clus>
<clus scale="   89.991">  7  8 -1 -1</clus>
<clus scale="   50.925">  1  5  2 -1</clus>
</clustering>
</event>
<event>
 9    2  0.3745229E-005  0.1376946E+03  0.7546771E-02  0.1218973E+00
          2   -1    0    0  502    0 -0.00000000000E+00  0.00000000000E+00  0.41431169595E+03  0.41431169595E+03  0.00000000000E+00 0. -1.
         21   -1    0    0  501  502  0.00000000000E+00 -0.00000000000E+00 -0.10031030557E+03  0.10031030557E+03  0.00000000000E+00 0. -1.
         23    2    1    2    0    0  0.68331070509E+02 -0.63850468320E+02  0.17173792898E+03  0.21619414631E+03  0.92195309793E+02 0.  0.
         24    2    1    2    0    0 -0.63270178864E+02  0.92704252516E+02  0.19434459517E+03  0.23867337435E+03  0.81227852266E+02 0.  0.
        -11    1    4    4    0    0 -0.25295265883E+02  0.65549640840E+02  0.48074550093E+02  0.85133825574E+02  0.00000000000E+00 0.  1.
         12    1    4    4    0    0 -0.37974912982E+02  0.27154611676E+02  0.14627004508E+03  0.15353954878E+03  0.00000000000E+00 0. -1.
        -13    1    3    3    0    0  0.34593512847E+02 -0.68435680320E+02  0.54406363908E+02  0.94022369177E+02  0.00000000000E+00 0.  1.
         13    1    3    3    0    0  0.33737557662E+02  0.45852120005E+01  0.11733156507E+03  0.12217177714E+03  0.00000000000E+00 0. -1.
          1    1    1    2  501    0 -0.50608916444E+01 -0.28853784196E+02 -0.52081133778E+02  0.59754480855E+02  0.00000000000E+00 0. -1.
<scales pt_clust_5="13000.00000" pt_clust_6="13000.00000" pt_clust_7="13000.00000" pt_clust_8="13000.00000" pt_clust_9="29.29426"></scales>
<clustering>
<clus scale="   29.294">  2  9  1 -1</clus>
<clus scale="   81.228">  5  6 -1 -1</clus>
<clus scale="   92.195">  7  8 -1 -1</clus>
<clus scale="  130.605">  2  5  1 -1</clus>
<clus scale="   29.294">  2  5  1 -1</clus>
</clustering>
</event>
<event>
 9    2  0.3745229E-005  0.2948002E+03  0.7546771E-02  0.1122646E+00
         21   -1    0    0  501  502  0.00000000000E+00  0.00000000000E+00  0.29631938145E+03  0.29631938145E+03  0.00000000000E+00 0. -1.
          2   -1    0    0  502    0 -0.00000000000E+00 -0.00000000000E+00 -0.70620307977E+03  0.70620307977E+03  0.00000000000E+00 0. -1.
         23    2    1    2    0    0  0.69840065342E+02 -0.42189854768E+02 -0.36841218149E+03  0.38764895336E+03  0.88806289203E+02 0.  0.
         24    2    1    2    0    0  0.23438291893E+03  0.13081974948E+03  0.51537855140E+02  0.28463476744E+03  0.79445835533E+02 0.  0.
        -11    1    4    4    0    0  0.36155648830E+02  0.41278944890E+02  0.37910006783E+02  0.66695958257E+02  0.00000000000E+00 0.  1.
         12    1    4    4    0    0  0.19822727010E+03  0.89540804594E+02  0.13627848357E+02  0.21793880918E+03  0.00000000000E+00 0. -1.
        -11    1    3    3    0    0  0.27778024150E+02  0.23874033495E+02 -0.68478238651E+02  0.77658594307E+02  0.00000000000E+00 0.  1.
         11    1    3    3    0    0  0.42062041192E+02 -0.66063888263E+02 -0.29993394284E+03  0.30999035906E+03  0.00000000000E+00 0. -1.
          1    1    1    2  501    0 -0.30422298427E+03 -0.88629894716E+02 -0.93009371975E+02  0.33023874041E+03  0.00000000000E+00 0. -1.
<scales pt_clust_5="13000.00000" pt_clust_6="13000.00000" pt_clust_7="13000.00000" pt_clust_8="13000.00000" pt_clust_9="283.89365"></scales>
<clustering>
<clus scale="   79.446">  5  6 -1 -1</clus>
<clus scale="   88.806">  7  8 -1 -1</clus>
<clus scale="  120.599">  2  7  1 -1</clus>
<clus scale="  283.894">  1  9  2 -1</clus>
<clus scale="  283.894">  1  5  2 -1</clus>
</clustering>
</event>
<event>
 9    2  0.3745229E-005  0.9249568E+02  0.7546771E-02  0.1301490E+00
          2   -1    0    0  502    0 -0.00000000000E+00  0.00000000000E+00  0.45607595811E+03  0.45607595811E+03  0.00000000000E+00 0. -1.
         21   -1    0    0  501  502  0.00000000000E+00 -0.00000000000E+00 -0.48675152457E+02  0.48675152457E+02  0.00000000000E+00 0.  1.
         24    2    1    2    0    0  0.93173847706E+01 -0.21116134027E+02  0.35200812204E+03  0.36237145815E+03  0.82889389731E+02 0.  0.
         23    2    1    2    0    0 -0.16634285390E+02 -0.11837779664E+02  0.56387982932E+02  0.10860853927E+03  0.90550415273E+02 0.  0.
        -11    1    3    3    0    0 -0.23918404887E+01 -0.24420823777E+02  0.24628362277E+02  0.34765698084E+02  0.00000000000E+00 0.  1.
         12    1    3    3    0    0  0.11709225259E+02  0.33046897496E+01  0.32737975976E+03  0.32760576007E+03  0.00000000000E+00 0. -1.
        -11    1    4    4    0    0 -0.52010072070E+02 -0.50396970108E+01  0.49411359682E+02  0.71916122033E+02  0.00000000000E+00 0.  1.
         11    1    4    4    0    0  0.35375786679E+02 -0.67980826528E+01  0.69766232503E+01  0.36692417240E+02  0.00000000000E+00 0. -1.
          1    1    1    2  501    0  0.73169006197E+01  0.32953913691E+02 -0.99529931080E+00  0.33771113144E+02  0.00000000000E+00 0. -1.
<scales pt_clust_5="13000.00000" pt_clust_6="13000.00000" pt_clust_7="13000.00000" pt_clust_8="13000.00000" pt_clust_9="33.75644"></scales>
<clustering>
<clus scale="   33.756">  2  9  1 -1</clus>
<clus scale="   82.889">  5  6 -1 -1</clus>
<clus scale="   85.010">  1  5  2 -1</clus>
<clus scale="   90.550">  7  8 -1 -1</clus>
<clus scale="   33.756">  2  5  1 -1</clus>
</clustering>
</event>
<event>
 9    2  0.3745229E-005  0.1599015E+03  0.7546771E-02  0.1190398E+00
         21   -1    0    0  501  502  0.00000000000E+00  0.00000000000E+00  0.15344657437E+04  0.15344657437E+04  0.00000000000E+00 0. -1.
         -1   -1    0    0    0  501 -0.00000000000E+00 -0.00000000000E+00 -0.37988368834E+02  0.37988368834E+02  0.00000000000E+00 0.  1.
         23    2    1    2    0    0  0.35485158446E+02 -0.12747509818E+03  0.18601024530E+03  0.24544536931E+03  0.90191578508E+02 0.  0.
         24    2    1    2    0    0 -0.10112174989E+02  0.13212706748E+03  0.12673284228E+04  0.12767456640E+04  0.79989632877E+02 0.  0.
        -13    1    4    4    0    0  0.19778098891E+02  0.79787379139E+02  0.46934276439E+03  0.47648696682E+03  0.00000000000E+00 0.  1.
         14    1    4    4    0    0 -0.29890273880E+02  0.52339688345E+02  0.79798565837E+03  0.80025869718E+03  0.00000000000E+00 0. -1.
        -13    1    3    3    0    0  0.59838699694E+02 -0.58202540108E+02  0.74240220615E+02  0.11171309687E+03  0.00000000000E+00 0.  1.
         13    1    3    3    0    0 -0.24353541249E+02 -0.69272558069E+02  0.11177002469E+03  0.13373227244E+03  0.00000000000E+00 0. -1.
         -2    1    1    2    0  502 -0.25372983457E+02 -0.46519693070E+01  0.43138706792E+02  0.50263079210E+02  0.00000000000E+00 0.  1.
<scales pt_clust_5="13000.00000" pt_clust_6="13000.00000" pt_clust_7="13000.00000" pt_clust_8="13000.00000" pt_clust_9="25.79593"></scales>
<clustering>
<clus scale="   25.796">  1  9  2 -1</clus>
<clus scale="   79.990">  5  6 -1 -1</clus>
<clus scale="   90.192">  7  8 -1 -1</clus>
<clus scale="  154.377">  1  5  2 -1</clus>
<clus scale="   25.796">  1  5  2 -1</clus>
</clustering>
</event>
<event>
 9    2  0.3745229E-005  0.9381799E+02  0.7546771E-02  0.1294873E+00
         21   -1    0    0  501  502  0.00000000000E+00  0.00000000000E+00  0.15565124846E+03  0.15565124846E+03  0.00000000000E+00 0.  1.
         -1   -1    0    0    0  501 -0.00000000000E+00 -0.00000000000E+00 -0.34702755346E+03  0.34702755346E+03  0.00000000000E+00 0.  1.
         23    2    1    2    0    0 -0.21317127199E+02  0.33551961832E+02 -0.26723099931E+03  0.28268391613E+03  0.83172323473E+02 0.  0.
         24    2    1    2    0    0  0.38087162408E+02 -0.47436601288E+02 -0.34769757650E+02  0.10724832636E+03  0.81193622765E+02 0.  0.
        -13    1    4    4    0    0  0.30438202531E+02 -0.46352814265E+02 -0.59502918592E+02  0.81336737607E+02  0.00000000000E+00 0.  1.
         14    1    4    4    0    0  0.76489598766E+01 -0.10837870224E+01  0.24733160941E+02  0.25911588752E+02  0.00000000000E+00 0. -1.
        -13    1    3    3    0    0  0.98254720246E+01  0.53694141071E+02 -0.14427253402E+03  0.15425357292E+03  0.00000000000E+00 0.  1.
         13    1    3    3    0    0 -0.31142599223E+02 -0.20142179239E+02 -0.12295846529E+03  0.12843034321E+03  0.00000000000E+00 0. -1.
         -2    1    1    2    0  502 -0.16770035209E+02  0.13884639456E+02  0.11062445196E+03  0.11274655944E+03  0.00000000000E+00 0.  1.
<scales pt_clust_5="13000.00000" pt_clust_6="13000.00000" pt_clust_7="13000.00000" pt_clust_8="13000.00000" pt_clust_9="21.77194"></scales>
<clustering>
<clus scale="   21.772">  1  9  2 -1</clus>
<clus scale="   81.194">  5  6 -1 -1</clus>
<clus scale="   83.172">  7  8 -1 -1</clus>
<clus scale="   92.068">  1  5  2 -1</clus>
<clus scale="   21.772">  1  5  2 -1</clus>
</clustering>
</event>
<event>
 9    2  0.3745229E-005  0.1004921E+03  0.7546771E-02  0.1284636E+00
         21   -1    0    0  501  502  0.00000000000E+00  0.00000000000E+00  0.67387015282E+02  0.67387015282E+02  0.00000000000E+00 0. -1.
         -1   -1    0    0    0  501 -0.00000000000E+00 -0.00000000000E+00 -0.26963137801E+03  0.26963137801E+03  0.00000000000E+00 0.  1.
         23    2    1    2    0    0  0.41270855919E+02 -0.77899070022E+01 -0.67810338833E+02  0.12066352121E+03  0.90539919921E+02 0.  0.
         24    2    1    2    0    0 -0.46710082097E+02 -0.20313344057E+02 -0.17672757406E+02  0.96136024749E+02  0.79594881644E+02 0.  0.
        -11    1    4    4    0    0 -0.92990383880E+01 -0.29584574287E+02 -0.40753456867E+02  0.51210969501E+02  0.00000000000E+00 0.  1.
         12    1    4    4    0    0 -0.37411043709E+02  0.92712302301E+01  0.23080699461E+02  0.44925055247E+02  0.00000000000E+00 0. -1.
        -13    1    3    3    0    0  0.26385677810E+01  0.38907143672E+02 -0.30349588759E+02  0.49414829823E+02  0.00000000000E+00 0. -1.
         13    1    3    3    0    0  0.38632288138E+02 -0.46697050674E+02 -0.37460750075E+02  0.71248691389E+02  0.00000000000E+00 0.  1.
         -2    1    1    2    0  502  0.54392261780E+01  0.28103251059E+02 -0.11676126649E+03  0.12021884733E+03  0.00000000000E+00 0.  1.
<scales pt_clust_5="13000.00000" pt_clust_6="13000.00000" pt_clust_7="13000.00000" pt_clust_8="13000.00000" pt_clust_9="28.62479"></scales>
<clustering>
<clus scale="   28.625">  1  9  2 -1</clus>
<clus scale="   79.595">  5  6 -1 -1</clus>
<clus scale="   90.540">  7  8 -1 -1</clus>
<clus scale="   90.755">  1  5  2 -1</clus>
<clus scale="   28.625">  1  5  2 -1</clus>
</clustering>
</event>
<event>
 9    2  0.3745229E-005  0.1644911E+03  0.7546771E-02  0.1209705E+00
         -3   -1    0    0    0  501 -0.00000000000E+00  0.00000000000E+00  0.43284939387E+03  0.43284939387E+03  0.00000000000E+00 0.  1.
         21   -1    0    0  501  502  0.00000000000E+00 -0.00000000000E+00 -0.10787233558E+03  0.10787233558E+03  0.00000000000E+00 0.  1.
         23    2    1    2    0    0 -0.23748772570E+02  0.13293009510E+02  0.39380701364E+02  0.10121555205E+03  0.89179818549E+02 0.  0.
         24    2    1    2    0    0  0.49752323839E+02 -0.14886508838E+03  0.23150085817E+03  0.29124189905E+03  0.81197833492E+02 0.  0.
        -13    1    4    4    0    0  0.71229226858E+02 -0.12045069612E+03  0.19709921409E+03  0.24172313326E+03  0.00000000000E+00 0.  1.
         14    1    4    4    0    0 -0.21476903019E+02 -0.28414392263E+02  0.34401644078E+02  0.49518765798E+02  0.00000000000E+00 0. -1.
        -13    1    3    3    0    0 -0.42931501925E+02 -0.11736479425E+02  0.50925931950E+02  0.67633640681E+02  0.00000000000E+00 0. -1.
         13    1    3    3    0    0  0.19182729356E+02  0.25029488935E+02 -0.11545230586E+02  0.33581911369E+02  0.00000000000E+00 0.  1.
         -4    1    1    2    0  502 -0.26003551270E+02  0.13557207887E+03  0.54095498754E+02  0.14826427835E+03  0.00000000000E+00 0.  1.
<scales pt_clust_5="13000.00000" pt_clust_6="13000.00000" pt_clust_7="13000.00000" pt_clust_8="13000.00000" pt_clust_9="143.05327"></scales>
<clustering>
<clus scale="   81.198">  5  6 -1 -1</clus>
<clus scale="   89.180">  7  8 -1 -1</clus>
<clus scale="   93.240">  1  7  2 -1</clus>
<clus scale="  143.053">  2  9  1 -1</clus>
<clus scale="  143.053">  2  5  1 -1</clus>
</clustering>
</event>
<event>
 9    2  0.3745229E-005  0.2288594E+03  0.7546771E-02  0.1128180E+00
         -1   -1    0    0    0  501 -0.00000000000E+00  0.00000000000E+00  0.41330562925E+03  0.41330562925E+03  0.00000000000E+00 0.  1.
         21   -1    0    0  501  502  0.00000000000E+00 -0.00000000000E+00 -0.25284380448E+03  0.25284380448E+03  0.00000000000E+00 0.  1.
         24    2    1    2    0    0 -0.17743781691E+03 -0.88637207803E+02  0.20931921486E+03  0.29931268222E+03  0.80204828737E+02 0.  0.
         23    2    1    2    0    0  0.25056633109E+03  0.70588376492E+02 -0.77135837269E+02  0.28638048716E+03  0.91091387411E+02 0.  0.
        -11    1    3    3    0    0 -0.77754780565E+02 -0.83384118323E+02  0.11647744932E+03  0.16298991776E+03  0.00000000000E+00 0.  1.
         12    1    3    3    0    0 -0.99683036341E+02 -0.52530894804E+01  0.92841765540E+02  0.13632276447E+03  0.00000000000E+00 0. -1.
        -11    1    4    4    0    0  0.24429337199E+03  0.44730513954E+02 -0.76100439799E+02  0.25975247336E+03  0.00000000000E+00 0.  1.
         11    1    4    4    0    0  0.62729590976E+01  0.25857862538E+02 -0.10353974699E+01  0.26628013797E+02  0.00000000000E+00 0. -1.
         -2    1    1    2    0  502 -0.73128514184E+02  0.18048831311E+02  0.28278447173E+02  0.80456264349E+02  0.00000000000E+00 0.  1.
<scales pt_clust_5="13000.00000" pt_clust_6="13000.00000" pt_clust_7="13000.00000" pt_clust_8="13000.00000" pt_clust_9="75.32294"></scales>
<clustering>
<clus scale="   75.323">  2  9  1 -1</clus>
<clus scale="   80.205">  5  6 -1 -1</clus>
<clus scale="   91.091">  7  8 -1 -1</clus>
<clus scale="  224.748">  1  5  2 -1</clus>
<clus scale="   75.323">  2  5  1 -1</clus>
</clustering>
</event>
<event>
 9    2  0.3745229E-005  0.1090700E+03  0.7546771E-02  0.1270233E+00
          2   -1    0    0  502    0 -0.00000000000E+00  0.00000000000E+00  0.22994867853E+03  0.22994867853E+03  0.00000000000E+00 0. -1.
         21   -1    0    0  501  502  0.00000000000E+00 -0.00000000000E+00 -0.13465225082E+03  0.13465225082E+03  0.00000000000E+00 0.  1.
         24    2    1    2    0    0  0.49124567761E+02 -0.13781205441E+02  0.17880538497E+03  0.20130202486E+03  0.77123243826E+02 0.  0.
         23    2    1    2    0    0 -0.69355484359E+02  0.13544133554E+02 -0.78839266907E+02  0.14253469978E+03  0.95429994603E+02 0.  0.
        -11    1    3    3    0    0  0.27828887248E+01 -0.33008437131E+02  0.31596774009E+02  0.45778352081E+02  0.00000000000E+00 0.  1.
         12    1    3    3    0    0  0.46341679036E+02  0.19227231690E+02  0.14720861096E+03  0.15552367278E+03  0.00000000000E+00 0. -1.
        -13    1    4    4    0    0 -0.26868278810E+02 -0.30945567623E+02  0.19038989278E+01  0.41026301233E+02  0.00000000000E+00 0. -1.
         13    1    4    4    0    0 -0.42487205549E+02  0.44489701177E+02 -0.80743165834E+02  0.10150839855E+03  0.00000000000E+00 0.  1.
          1    1    1    2  501    0  0.20230916598E+02  0.23707188669E+00 -0.46696903444E+01  0.20764204714E+02  0.00000000000E+00 0. -1.
<scales pt_clust_5="13000.00000" pt_clust_6="13000.00000" pt_clust_7="13000.00000" pt_clust_8="13000.00000" pt_clust_9="20.23231"></scales>
<clustering>
<clus scale="   20.232">  2  9  1 -1</clus>
<clus scale="   77.123">  5  6 -1 -1</clus>
<clus scale="   93.474">  1  5  2 -1</clus>
<clus scale="   95.430">  7  8 -1 -1</clus>
<clus scale="   20.232">  2  5  1 -1</clus>
</clustering>
</event>
<event>
 9    2  0.3745229E-005  0.1771152E+03  0.7546771E-02  0.1187379E+00
         -3   -1    0    0    0  501 -0.00000000000E+00  0.00000000000E+00  0.54622793993E+03  0.54622793993E+03  0.00000000000E+00 0.  1.
         21   -1    0    0  501  502  0.00000000000E+00 -0.00000000000E+00 -0.13488116841E+03  0.13488116841E+03  0.00000000000E+00 0. -1.
         23    2    1    2    0    0  0.74774610016E+02  0.10106577914E+02  0.30219320741E+03  0.32568574202E+03  0.95168706664E+02 0.  0.
         24    2    1    2    0    0 -0.18238709758E+03  0.52046255865E+02  0.41904348025E+02  0.21412269650E+03  0.90103766066E+02 0.  0.
        -13    1    4    4    0    0 -0.91108184591E+02  0.50322682736E+02  0.61296804307E+02  0.12079061187E+03  0.00000000000E+00 0.  1.
         14    1    4    4    0    0 -0.91278912993E+02  0.17235731296E+01 -0.19392456282E+02  0.93332084634E+02  0.00000000000E+00 0. -1.
        -13    1    3    3    0    0 -0.11898136077E+02  0.19884205995E+02  0.20988164360E+02  0.31264202107E+02  0.00000000000E+00 0.  1.
         13    1    3    3    0    0  0.86672746093E+02 -0.97776280817E+01  0.28120504305E+03  0.29442153991E+03  0.00000000000E+00 0. -1.
         -4    1    1    2    0  502  0.10761248757E+03 -0.62152833779E+02  0.67249216087E+02  0.14130066982E+03  0.00000000000E+00 0.  1.
<scales pt_clust_5="13000.00000" pt_clust_6="13000.00000" pt_clust_7="13000.00000" pt_clust_8="13000.00000" pt_clust_9="152.48316"></scales>
<clustering>
<clus scale="   90.104">  5  6 -1 -1</clus>
<clus scale="   95.169">  7  8 -1 -1</clus>
<clus scale="  121.452">  1  7  2 -1</clus>
<clus scale="  152.483">  2  9  1 -1</clus>
<clus scale="  152.483">  2  5  1 -1</clus>
</clustering>
</event>
<event>
 9    2  0.3745229E-005  0.9269875E+02  0.7546771E-02  0.1303727E+00
          2   -1    0    0  502    0 -0.00000000000E+00  0.00000000000E+00  0.52554591483E+03  0.52554591483E+03  0.00000000000E+00 0. -1.
         21   -1    0    0  501  502  0.00000000000E+00 -0.00000000000E+00 -0.33374813075E+02  0.33374813075E+02  0.00000000000E+00 0. -1.
         24    2    1    2    0    0 -0.13576546667E+02  0.25572167029E+02  0.27516751438E+03  0.28709351375E+03  0.76598082998E+02 0.  0.
         23    2    1    2    0    0  0.45115109645E+02  0.16712328797E+02  0.18310496816E+03  0.20912333926E+03  0.88828298470E+02 0.  0.
        -11    1    3    3    0    0 -0.50750827233E+01  0.48324120054E+02  0.11141456058E+03  0.12154909030E+03  0.00000000000E+00 0.  1.
         12    1    3    3    0    0 -0.85014639437E+01 -0.22751953025E+02  0.16375295380E+03  0.16554442345E+03  0.00000000000E+00 0. -1.
        -13    1    4    4    0    0  0.43450659617E+02 -0.69129074814E+01  0.17992594290E+03  0.18522713905E+03  0.00000000000E+00 0.  1.
         13    1    4    4    0    0  0.16644500285E+01  0.23625236278E+02  0.31790252531E+01  0.23896200214E+02  0.00000000000E+00 0. -1.
          1    1    1    2  501    0 -0.31538562978E+02 -0.42284495826E+02  0.33898619218E+02  0.62703874896E+02  0.00000000000E+00 0. -1.
<scales pt_clust_5="13000.00000" pt_clust_6="13000.00000" pt_clust_7="13000.00000" pt_clust_8="13000.00000" pt_clust_9="52.75092"></scales>
<clustering>
<clus scale="   52.751">  2  9  1 -1</clus>
<clus scale="   76.598">  5  6 -1 -1</clus>
<clus scale="   81.055">  1  5  2 -1</clus>
<clus scale="   88.828">  7  8 -1 -1</clus>
<clus scale="   52.751">  2  5  1 -1</clus>
</clustering>
</event>
<event>
 9    2  0.3745229E-005  0.1244184E+03  0.7546771E-02  0.1237823E+00
         21   -1    0    0  501  502  0.00000000000E+00  0.00000000000E+00  0.14929516325E+03  0.14929516325E+03  0.00000000000E+00 0. -1.
         -1   -1    0    0    0  501 -0.00000000000E+00 -0.00000000000E+00 -0.22321634193E+03  0.22321634193E+03  0.00000000000E+00 0.  1.
         24    2    1    2    0    0 -0.28811381527E+02 -0.10880814934E+03 -0.86637319610E+02  0.16526838101E+03  0.84488481728E+02 0.  0.
         23    2    1    2    0    0 -0.40702058209E+02  0.43768296281E+02  0.23965350918E+02  0.11138465812E+03  0.90883896908E+02 0.  0.
        -13    1    3    3    0    0 -0.49665119839E+02 -0.31977175929E+02 -0.51022960123E+02  0.78054508959E+02  0.00000000000E+00 0.  1.
         14    1    3    3    0    0  0.20853738312E+02 -0.76830973410E+02 -0.35614359488E+02  0.87213872052E+02  0.00000000000E+00 0. -1.
        -13    1    4    4    0    0  0.22931632025E+02  0.28195914338E+02  0.27806066462E+02  0.45760754635E+02  0.00000000000E+00 0.  1.
         13    1    4    4    0    0 -0.63633690234E+02  0.15572381943E+02 -0.38407155441E+01  0.65623903481E+02  0.00000000000E+00 0. -1.
         -2    1    1    2    0  502  0.69513439736E+02  0.65039853058E+02 -0.11249209991E+02  0.95858466059E+02  0.00000000000E+00 0.  1.
<scales pt_clust_5="13000.00000" pt_clust_6="13000.00000" pt_clust_7="13000.00000" pt_clust_8="13000.00000" pt_clust_9="95.19612"></scales>
<clustering>
<clus scale="   84.488">  5  6 -1 -1</clus>
<clus scale="   90.884">  7  8 -1 -1</clus>
<clus scale="   95.196">  1  9  2 -1</clus>
<clus scale="  119.826">  2  5  1 -1</clus>
<clus scale="   95.196">  1  5  2 -1</clus>
</clustering>
</event>
<event>
 9    2  0.3745229E-005  0.9292206E+02  0.7546771E-02  0.1300509E+00
         21   -1    0    0  501  502  0.00000000000E+00  0.00000000000E+00  0.13314128433E+03  0.13314128433E+03  0.00000000000E+00 0.  1.
         -1   -1    0    0    0  501 -0.00000000000E+00 -0.00000000000E+00 -0.15879933381E+03  0.15879933381E+03  0.00000000000E+00 0.  1.
         24    2    1    2    0    0  0.23046015685E+02 -0.18277724049E+02 -0.10907275831E+03  0.13865031763E+03  0.80385632655E+02 0.  0.
         23    2    1    2    0    0 -0.31803327715E+02 -0.76727951126E+00  0.34460031304E+02  0.10003653889E+03  0.88361614884E+02 0.  0.
        -11    1    3    3    0    0 -0.15935575574E+02  0.19206807317E+02 -0.62433930906E+02  0.67237190189E+02  0.00000000000E+00 0.  1.
         12    1    3    3    0    0  0.38981591259E+02 -0.37484531367E+02 -0.46638827409E+02  0.71413127441E+02  0.00000000000E+00 0. -1.
        -11    1    4    4    0    0 -0.23388789947E+02 -0.26461262043E+02  0.55495968856E+02  0.65780213160E+02  0.00000000000E+00 0. -1.
         11    1    4    4    0    0 -0.84145377681E+01  0.25693982532E+02 -0.21035937551E+02  0.34256325735E+02  0.00000000000E+00 0.  1.
         -2    1    1    2    0  502  0.87573120297E+01  0.19045003561E+02  0.48954677530E+02  0.53253761620E+02  0.00000000000E+00 0.  1.
<scales pt_clust_5="13000.00000" pt_clust_6="13000.00000" pt_clust_7="13000.00000" pt_clust_8="13000.00000" pt_clust_9="20.96193"></scales>
<clustering>
<clus scale="   20.962">  1  9  2 -1</clus>
<clus scale="   80.386">  5  6 -1 -1</clus>
<clus scale="   85.373">  2  5  1 -1</clus>
<clus scale="   88.362">  7  8 -1 -1</clus>
<clus scale="   20.962">  1  5  2 -1</clus>
</clustering>
</event>
<event>
 9    2  0.3745229E-005  0.1984596E+03  0.7546771E-02  0.1151045E+00
          2   -1    0    0  502    0 -0.00000000000E+00  0.00000000000E+00  0.74780897818E+03  0.74780897818E+03  0.00000000000E+00 0. -1.
         21   -1    0    0  501  502  0.00000000000E+00 -0.00000000000E+00 -0.30627431022E+02  0.30627431022E+02  0.00000000000E+00 0. -1.
         24    2    1    2    0    0  0.35296353469E+02 -0.31907750393E+02  0.22671558414E+03  0.24501409946E+03  0.79799847970E+02 0.  0.
         23    2    1    2    0    0  0.50239469642E+02 -0.22059776728E+02  0.19355506486E+03  0.21975855273E+03  0.88428617019E+02 0.  0.
        -11    1    3    3    0    0 -0.16986170374E+02 -0.26188549119E+02  0.38372057470E+02  0.49464986439E+02  0.00000000000E+00 0.  1.
         12    1    3    3    0    0  0.52282523843E+02 -0.57192012740E+01  0.18834352667E+03  0.19554911302E+03  0.00000000000E+00 0. -1.
        -11    1    4    4    0    0  0.49321613717E+02  0.25423095343E-01  0.19128119834E+03  0.19753763962E+03  0.00000000000E+00 0.  1.
         11    1    4    4    0    0  0.91785592484E+00 -0.22085199823E+02  0.22738665138E+01  0.22220913115E+02  0.00000000000E+00 0. -1.
          1    1    1    2  501    0 -0.85535823111E+02  0.53967527121E+02  0.29691089816E+03  0.31366375701E+03  0.00000000000E+00 0. -1.
<scales pt_clust_5="13000.00000" pt_clust_6="13000.00000" pt_clust_7="13000.00000" pt_clust_8="13000.00000" pt_clust_9="101.13793"></scales>
<clustering>
<clus scale="   79.800">  5  6 -1 -1</clus>
<clus scale="   88.429">  7  8 -1 -1</clus>
<clus scale="   92.399">  5  7 -1 -1</clus>
<clus scale="  101.138">  2  9  1 -1</clus>
<clus scale="  101.138">  2  5  1 -1</clus>
</clustering>
</event>
<event>
 9    2  0.3745229E-005  0.6862920E+03  0.7546771E-02  0.9740966E-01
         21   -1    0    0  501  502  0.00000000000E+00  0.00000000000E+00  0.62330770447E+03  0.62330770447E+03  0.00000000000E+00 0. -1.
          2   -1    0    0  502    0 -0.00000000000E+00 -0.00000000000E+00 -0.82704002043E+03  0.82704002043E+03  0.00000000000E+00 0. -1.
         24    2    1    2    0    0  0.46838325773E+03  0.24930277988E+03 -0.28356715886E+03  0.60707307483E+03  0.81195027105E+02 0.  0.
         23    2    1    2    0    0  0.11534807593E+03  0.19213916122E+02 -0.95907537170E+02  0.17714488036E+03  0.92237192922E+02 0.  0.
        -13    1    3    3    0    0  0.10208508056E+03  0.81194863247E+02 -0.99198548775E+02  0.16387288235E+03  0.00000000000E+00 0.  1.
         14    1    3    3    0    0  0.36629817717E+03  0.16810791663E+03 -0.18436861009E+03  0.44320019248E+03  0.00000000000E+00 0. -1.
        -13    1    4    4    0    0  0.33595586538E+02 -0.35997324953E+01 -0.85126658043E+02  0.91586950044E+02  0.00000000000E+00 0. -1.
         13    1    4    4    0    0  0.81752489394E+02  0.22813648618E+02 -0.10780879128E+02  0.85557930317E+02  0.00000000000E+00 0.  1.
          1    1    1    2  501    0 -0.58373133366E+03 -0.26851669600E+03  0.17574238007E+03  0.66612976970E+03  0.00000000000E+00 0. -1.
<scales pt_clust_5="13000.00000" pt_clust_6="13000.00000" pt_clust_7="13000.00000" pt_clust_8="13000.00000" pt_clust_9="642.52898"></scales>
<clustering>
<clus scale="   81.195">  5  6 -1 -1</clus>
<clus scale="   92.237">  7  8 -1 -1</clus>
<clus scale="  102.684">  5  7 -1 -1</clus>
<clus scale="  642.529">  1  9  2 -1</clus>
<clus scale="  642.529">  1  5  2 -1</clus>
</clustering>
</event>
<event>
 9    2  0.3745229E-005  0.1000463E+03  0.7546771E-02  0.1287122E+00
         -1   -1    0    0    0  501 -0.00000000000E+00  0.00000000000E+00  0.19364726857E+03  0.19364726857E+03  0.00000000000E+00 0.  1.
         21   -1    0    0  501  502  0.00000000000E+00 -0.00000000000E+00 -0.10863119104E+03  0.10863119104E+03  0.00000000000E+00 0.  1.
         24    2    1    2    0    0 -0.15924750783E+01 -0.22645305040E+02  0.36737581130E+02  0.88283762254E+02  0.77000175281E+02 0.  0.
         23    2    1    2    0    0  0.77873239976E+02  0.41403988850E+02  0.48268833241E+02  0.13544125437E+03  0.90751976983E+02 0.  0.
        -13    1    3    3    0    0 -0.82867807565E+01 -0.37571715171E+02 -0.91667387211E+01  0.39551657550E+02  0.00000000000E+00 0.  1.
         14    1    3    3    0    0  0.66943056782E+01  0.14926410131E+02  0.45904319851E+02  0.48732104704E+02  0.00000000000E+00 0. -1.
        -13    1    4    4    0    0 -0.66225922641E+01 -0.20409438635E+02  0.42626288824E+01  0.21876332387E+02  0.00000000000E+00 0. -1.
         13    1    4    4    0    0  0.84495832240E+02  0.61813427485E+02  0.44006204359E+02  0.11356492198E+03  0.00000000000E+00 0.  1.
         -2    1    1    2    0  502 -0.76280764897E+02 -0.18758683810E+02  0.96631556283E-02  0.78553442986E+02  0.00000000000E+00 0.  1.
<scales pt_clust_5="13000.00000" pt_clust_6="13000.00000" pt_clust_7="13000.00000" pt_clust_8="13000.00000" pt_clust_9="78.55344"></scales>
<clustering>
<clus scale="   77.000">  5  6 -1 -1</clus>
<clus scale="   78.553">  2  9  1 -1</clus>
<clus scale="   87.763">  1  5  2 -1</clus>
<clus scale="   90.752">  7  8 -1 -1</clus>
<clus scale="   78.553">  2  5  1 -1</clus>
</clustering>
</event>
<event>
 9    2  0.3745229E-005  0.9293729E+02  0.7546771E-02  0.1302209E+00
         21   -1    0    0  501  502  0.00000000000E+00  0.00000000000E+00  0.16507834938E+03  0.16507834938E+03  0.00000000000E+00 0. -1.
          2   -1    0    0  502    0 -0.00000000000E+00 -0.00000000000E+00 -0.26098179585E+03  0.26098179585E+03  0.00000000000E+00 0. -1.
         24    2    1    2    0    0  0.26374647614E+02  0.22648550115E+02 -0.17304877782E+03  0.19381688021E+03  0.80065752280E+02 0.  0.
         23    2    1    2    0    0  0.30642322329E+02  0.36042294591E+01 -0.36486891852E+02  0.10242637303E+03  0.90597606080E+02 0.  0.
        -11    1    3    3    0    0  0.13340357761E+01  0.31039776724E+02 -0.16737013597E+02  0.35289871276E+02  0.00000000000E+00 0.  1.
         12    1    3    3    0    0  0.25040611838E+02 -0.83912266089E+01 -0.15631176423E+03  0.15852700893E+03  0.00000000000E+00 0. -1.
        -11    1    4    4    0    0  0.51806648527E+02  0.64153736189E+01 -0.53781557247E+02  0.74950261842E+02  0.00000000000E+00 0. -1.
         11    1    4    4    0    0 -0.21164326198E+02 -0.28111441598E+01  0.17294665395E+02  0.27476111188E+02  0.00000000000E+00 0.  1.
          1    1    1    2  501    0 -0.57016969942E+02 -0.26252779574E+02  0.11363222320E+03  0.12981689199E+03  0.00000000000E+00 0. -1.
<scales pt_clust_5="13000.00000" pt_clust_6="13000.00000" pt_clust_7="13000.00000" pt_clust_8="13000.00000" pt_clust_9="62.77056"></scales>
<clustering>
<clus scale="   62.771">  1  9  2 -1</clus>
<clus scale="   80.066">  5  6 -1 -1</clus>
<clus scale="   82.704">  2  5  1 -1</clus>
<clus scale="   90.598">  7  8 -1 -1</clus>
<clus scale="   62.771">  1  5  2 -1</clus>
</clustering>
</event>
<event>
 9    2  0.3745229E-005  0.1589282E+03  0.7546771E-02  0.1217073E+00
         21   -1    0    0  501  502  0.00000000000E+00  0.00000000000E+00  0.38608175977E+02  0.38608175977E+02  0.00000000000E+00 0.  1.
          2   -1    0    0  502    0 -0.00000000000E+00 -0.00000000000E+00 -0.11622574467E+04  0.11622574467E+04  0.00000000000E+00 0. -1.
         24    2    1    2    0    0 -0.20742808646E+02 -0.45885064756E+02 -0.11120534361E+03  0.14206593650E+03  0.72666351156E+02 0.  0.
         23    2    1    2    0    0 -0.80023513108E+02  0.12485915303E+03 -0.70552041732E+03  0.72624472968E+03  0.87628633404E+02 0.  0.
        -13    1    3    3    0    0 -0.23552599500E+02 -0.19237568957E+02 -0.29610921272E+01  0.30554493437E+02  0.00000000000E+00 0.  1.
         14    1    3    3    0    0  0.28097908545E+01 -0.26647495799E+02 -0.10824425148E+03  0.11151144307E+03  0.00000000000E+00 0. -1.
        -11    1    4    4    0    0  0.25139082619E+01  0.75234069053E+02 -0.27802286770E+03  0.28803333113E+03  0.00000000000E+00 0. -1.
         11    1    4    4    0    0 -0.82537421370E+02  0.49625083976E+02 -0.42749754962E+03  0.43821139855E+03  0.00000000000E+00 0.  1.
          1    1    1    2  501    0  0.10076632175E+03 -0.78974088273E+02 -0.30692350979E+03  0.33255495648E+03  0.00000000000E+00 0. -1.
<scales pt_clust_5="13000.00000" pt_clust_6="13000.00000" pt_clust_7="13000.00000" pt_clust_8="13000.00000" pt_clust_9="132.58736"></scales>
<clustering>
<clus scale="   72.666">  5  6 -1 -1</clus>
<clus scale="   87.629">  7  8 -1 -1</clus>
<clus scale="   88.409">  2  5  1 -1</clus>
<clus scale="  132.587">  1  9  2 -1</clus>
<clus scale="  132.587">  1  5  2 -1</clus>
</clustering>
</event>
<event>
 9    2  0.3745229E-005  0.1255600E+03  0.7546771E-02  0.1236851E+00
         21   -1    0    0  501  502  0.00000000000E+00  0.00000000000E+00  0.22824108938E+03  0.22824108938E+03  0.00000000000E+00 0. -1.
         -3   -1    0    0    0  501 -0.00000000000E+00 -0.00000000000E+00 -0.43672097830E+03  0.43672097830E+03  0.00000000000E+00 0.  1.
         23    2    1    2    0    0  0.77481818438E+02 -0.81389404427E+01 -0.29920708596E+03  0.32225595848E+03  0.90853442116E+02 0.  0.
         24    2    1    2    0    0 -0.19566721933E+03  0.21360998880E+02  0.68252935935E+02  0.22167840896E+03  0.75768731954E+02 0.  0.
        -11    1    4    4    0    0 -0.95127540295E+02  0.44245590298E+02  0.52681949233E+02  0.11739807902E+03  0.00000000000E+00 0.  1.
         12    1    4    4    0    0 -0.10053967904E+03 -0.22884591418E+02  0.15570986702E+02  0.10428032994E+03  0.00000000000E+00 0. -1.
        -11    1    3    3    0    0  0.76692096214E+02  0.20758040190E+02 -0.14479305066E+03  0.16515932118E+03  0.00000000000E+00 0.  1.
         11    1    3    3    0    0  0.78972222402E+00 -0.28896980633E+02 -0.15441403530E+03  0.15709663730E+03  0.00000000000E+00 0. -1.
         -4    1    1    2    0  502  0.11818540089E+03 -0.13222058438E+02  0.22474261111E+02  0.12102770024E+03  0.00000000000E+00 0.  1.
<scales pt_clust_5="13000.00000" pt_clust_6="13000.00000" pt_clust_7="13000.00000" pt_clust_8="13000.00000" pt_clust_9="118.92271"></scales>
<clustering>
<clus scale="   75.769">  5  6 -1 -1</clus>
<clus scale="   90.853">  7  8 -1 -1</clus>
<clus scale="  118.923">  1  9  2 -1</clus>
<clus scale="  118.923">  1  5  2 -1</clus>
<clus scale="  118.923">  1  5  2 -1</clus>
</clustering>
</event>
<event>
 9    2  0.3745229E-005  0.1120559E+03  0.7546771E-02  0.1259630E+00
         21   -1    0    0  501  502  0.00000000000E+00  0.00000000000E+00  0.36700599330E+03  0.36700599330E+03  0.00000000000E+00 0.  1.
          2   -1    0    0  502    0 -0.00000000000E+00 -0.00000000000E+00 -0.47134368835E+02  0.47134368835E+02  0.00000000000E+00 0. -1.
         23    2    1    2    0    0 -0.61148009954E+02  0.39524629150E+02  0.68030045589E+02  0.13329871188E+03  0.88539166780E+02 0.  0.
         24    2    1    2    0    0  0.58574700596E+02 -0.17415870936E+02  0.21757129081E+03  0.23997758592E+03  0.80732069499E+02 0.  0.
        -13    1    4    4    0    0  0.49736792675E+02  0.26364764644E+02  0.13034649404E+03  0.14198259706E+03  0.00000000000E+00 0.  1.
         14    1    4    4    0    0  0.88379079215E+01 -0.43780635579E+02  0.87224796773E+02  0.97994988853E+02  0.00000000000E+00 0. -1.
        -11    1    3    3    0    0 -0.35778351571E+02  0.22846696636E+02 -0.14896961438E+02  0.44988681337E+02  0.00000000000E+00 0. -1.
         11    1    3    3    0    0 -0.25369658383E+02  0.16677932514E+02  0.82927007027E+02  0.88310030539E+02  0.00000000000E+00 0.  1.
          1    1    1    2  501    0  0.25733093575E+01 -0.22108758214E+02  0.34270288063E+02  0.40864064344E+02  0.00000000000E+00 0. -1.
<scales pt_clust_5="13000.00000" pt_clust_6="13000.00000" pt_clust_7="13000.00000" pt_clust_8="13000.00000" pt_clust_9="22.25801"></scales>
<clustering>
<clus scale="   22.258">  1  9  2 -1</clus>
<clus scale="   80.732">  5  6 -1 -1</clus>
<clus scale="   88.539">  7  8 -1 -1</clus>
<clus scale="  105.995">  1  5  2 -1</clus>
<clus scale="   22.258">  1  5  2 -1</clus>
</clustering>
</event>
<event>
 9    2  0.3745229E-005  0.1035986E+03  0.7546771E-02  0.1278154E+00
         21   -1    0    0  501  502  0.00000000000E+00  0.00000000000E+00  0.70213103170E+02  0.70213103170E+02  0.00000000000E+00 0. -1.
          2   -1    0    0  502    0 -0.00000000000E+00 -0.00000000000E+00 -0.91930194477E+03  0.91930194477E+03  0.00000000000E+00 0. -1.
         23    2    1    2    0    0 -0.40016952214E+02  0.30857613209E+02 -0.46284504890E+03  0.47462624117E+03  0.92146517891E+02 0.  0.
         24    2    1    2    0    0  0.55694548579E+02  0.54115790819E+02 -0.41018484720E+03  0.42522587960E+03  0.80839583440E+02 0.  0.
        -11    1    4    4    0    0  0.62349774977E+02  0.63239158641E+02 -0.26260999003E+03  0.27721957451E+03  0.00000000000E+00 0.  1.
         12    1    4    4    0    0 -0.66552263973E+01 -0.91233678224E+01 -0.14757485716E+03  0.14800630509E+03  0.00000000000E+00 0. -1.
        -11    1    3    3    0    0 -0.48717595108E+02  0.58214315104E+02 -0.31473652165E+03  0.32376131427E+03  0.00000000000E+00 0. -1.
         11    1    3    3    0    0  0.87006428944E+01 -0.27356701895E+02 -0.14810852724E+03  0.15086492690E+03  0.00000000000E+00 0.  1.
          1    1    1    2  501    0 -0.15677596365E+02 -0.84973404028E+02  0.23941054493E+02  0.89662927178E+02  0.00000000000E+00 0. -1.
<scales pt_clust_5="13000.00000" pt_clust_6="13000.00000" pt_clust_7="13000.00000" pt_clust_8="13000.00000" pt_clust_9="86.40756"></scales>
<clustering>
<clus scale="   80.840">  5  6 -1 -1</clus>
<clus scale="   86.408">  1  9  2 -1</clus>
<clus scale="   92.147">  7  8 -1 -1</clus>
<clus scale="   93.684">  1  5  2 -1</clus>
<clus scale="   86.408">  1  5  2 -1</clus>
</clustering>
</event>
<event>
 9    2  0.3745229E-005  0.9697963E+02  0.7546771E-02  0.1292435E+00
          2   -1    0    0  502    0 -0.00000000000E+00  0.00000000000E+00  0.28315549793E+03  0.28315549793E+03  0.00000000000E+00 0. -1.
         21   -1    0    0  501  502  0.00000000000E+00 -0.00000000000E+00 -0.52266518898E+02  0.52266518898E+02  0.00000000000E+00 0. -1.
         24    2    1    2    0    0 -0.16929782648E+02 -0.24943621253E+02  0.16176574833E+03  0.18379608961E+03  0.81878223230E+02 0.  0.
         23    2    1    2    0    0  0.35191962328E+02  0.84549176871E+01  0.77359641096E+02  0.12567938586E+03  0.92199968084E+02 0.  0.
        -11    1    3    3    0    0 -0.42142475160E+02 -0.38775413281E+02  0.92425445155E+02  0.10872894647E+03  0.00000000000E+00 0.  1.
         12    1    3    3    0    0  0.25212692512E+02  0.13831792028E+02  0.69340303178E+02  0.75067143140E+02  0.00000000000E+00 0. -1.
        -11    1    4    4    0    0  0.60613598583E+02  0.16150181912E+02  0.76734591133E+02  0.99111221289E+02  0.00000000000E+00 0.  1.
         11    1    4    4    0    0 -0.25421636255E+02 -0.76952642247E+01  0.62504996328E+00  0.26568164574E+02  0.00000000000E+00 0. -1.
          1    1    1    2  501    0 -0.18262179681E+02  0.16488703566E+02 -0.82364104006E+01  0.25946541355E+02  0.00000000000E+00 0. -1.
<scales pt_clust_5="13000.00000" pt_clust_6="13000.00000" pt_clust_7="13000.00000" pt_clust_8="13000.00000" pt_clust_9="24.60456"></scales>
<clustering>
<clus scale="   24.605">  2  9  1 -1</clus>
<clus scale="   81.878">  5  6 -1 -1</clus>
<clus scale="   87.225">  1  5  2 -1</clus>
<clus scale="   92.200">  7  8 -1 -1</clus>
<clus scale="   24.605">  2  5  1 -1</clus>
</clustering>
</event>
<event>
 9    2  0.3745229E-005  0.9698465E+02  0.7546771E-02  0.1294386E+00
          2   -1    0    0  502    0 -0.00000000000E+00  0.00000000000E+00  0.32384608337E+03  0.32384608337E+03  0.00000000000E+00 0. -1.
         21   -1    0    0  501  502  0.00000000000E+00 -0.00000000000E+00 -0.74025045467E+02  0.74025045467E+02  0.00000000000E+00 0. -1.
         23    2    1    2    0    0  0.15302970443E+02 -0.27396924726E+02  0.23682779638E+03  0.25677201837E+03  0.94125936350E+02 0.  0.
         24    2    1    2    0    0  0.31159474385E+02  0.13659122926E+01  0.14740121294E+01  0.86609982802E+02  0.80785752759E+02 0.  0.
        -11    1    4    4    0    0  0.18093408078E+02 -0.36036970370E+02  0.17388833244E+02  0.43913621701E+02  0.00000000000E+00 0.  1.
         12    1    4    4    0    0  0.13066066307E+02  0.37402882662E+02 -0.15914821114E+02  0.42696361101E+02  0.00000000000E+00 0. -1.
        -11    1    3    3    0    0  0.26050069652E+02  0.13020907813E+02  0.18561855395E+02  0.34535382506E+02  0.00000000000E+00 0.  1.
         11    1    3    3    0    0 -0.10747099210E+02 -0.40417832539E+02  0.21826594098E+03  0.22223663587E+03  0.00000000000E+00 0. -1.
          1    1    1    2  501    0 -0.46462444828E+02  0.26031012433E+02  0.11519229399E+02  0.54489127664E+02  0.00000000000E+00 0. -1.
<scales pt_clust_5="13000.00000" pt_clust_6="13000.00000" pt_clust_7="13000.00000" pt_clust_8="13000.00000" pt_clust_9="53.25760"></scales>
<clustering>
<clus scale="   53.258">  2  9  1 -1</clus>
<clus scale="   80.786">  5  6 -1 -1</clus>
<clus scale="   84.099">  2  5  1 -1</clus>
<clus scale="   94.126">  7  8 -1 -1</clus>
<clus scale="   53.258">  2  5  1 -1</clus>
</clustering>
</event>
<event>
 9    2  0.3745229E-005  0.9348683E+02  0.7546771E-02  0.1295748E+00
         21   -1    0    0  501  502  0.00000000000E+00  0.00000000000E+00  0.10047314991E+03  0.10047314991E+03  0.00000000000E+00 0. -1.
          2   -1    0    0  502    0 -0.00000000000E+00 -0.00000000000E+00 -0.31768280270E+03  0.31768280270E+03  0.00000000000E+00 0. -1.
         24    2    1    2    0    0 -0.56595151827E+02  0.33885741851E+02 -0.23304815422E+03  0.25519672479E+03  0.80390742270E+02 0.  0.
         23    2    1    2    0    0  0.70801973401E+01  0.11155258747E+02 -0.26740022397E+02  0.83628570790E+02  0.78128996298E+02 0.  0.
        -13    1    3    3    0    0  0.68826373579E+01 -0.19612530843E+02 -0.53095528672E+02  0.57018919913E+02  0.00000000000E+00 0.  1.
         14    1    3    3    0    0 -0.63477789185E+02  0.53498272694E+02 -0.17995262555E+03  0.19817780487E+03  0.00000000000E+00 0. -1.
        -13    1    4    4    0    0 -0.10589507049E+01 -0.31682650461E+02 -0.24324605199E+02  0.39957454060E+02  0.00000000000E+00 0.  1.
         13    1    4    4    0    0  0.81391480450E+01  0.42837909208E+02 -0.24154171975E+01  0.43671116730E+02  0.00000000000E+00 0. -1.
          1    1    1    2  501    0  0.49514954487E+02 -0.45041000598E+02  0.42578523834E+02  0.79330657028E+02  0.00000000000E+00 0. -1.
<scales pt_clust_5="13000.00000" pt_clust_6="13000.00000" pt_clust_7="13000.00000" pt_clust_8="13000.00000" pt_clust_9="66.93596"></scales>
<clustering>
<clus scale="   66.936">  1  9  2 -1</clus>
<clus scale="   78.129">  7  8 -1 -1</clus>
<clus scale="   80.391">  5  6 -1 -1</clus>
<clus scale="   91.549">  1  7  2 -1</clus>
<clus scale="   66.936">  1  5  2 -1</clus>
</clustering>
</event>
<event>
 9    2  0.3745229E-005  0.1009570E+03  0.7546771E-02  0.1282873E+00
         21   -1    0    0  501  502  0.00000000000E+00  0.00000000000E+00  0.47837196550E+02  0.47837196550E+02  0.00000000000E+00 0. -1.
          2   -1    0    0  502    0 -0.00000000000E+00 -0.00000000000E+00 -0.75569796060E+03  0.75569796060E+03  0.00000000000E+00 0. -1.
         24    2    1    2    0    0  0.50247775849E+02  0.11664823192E+02 -0.60029284076E+03  0.60778998050E+03  0.79976613099E+02 0.  0.
         23    2    1    2    0    0 -0.24452355159E+02 -0.11454361094E+02 -0.13094347891E+03  0.16093333063E+03  0.89578022846E+02 0.  0.
        -11    1    3    3    0    0  0.59799344468E+02 -0.11402816947E+02 -0.28080567203E+03  0.28732875122E+03  0.00000000000E+00 0.  1.
         12    1    3    3    0    0 -0.95515686193E+01  0.23067640139E+02 -0.31948716874E+03  0.32046122928E+03  0.00000000000E+00 0. -1.
        -11    1    4    4    0    0 -0.53840238806E+02  0.69844004320E+01 -0.10281749010E+03  0.11627118918E+03  0.00000000000E+00 0.  1.
         11    1    4    4    0    0  0.29387883647E+02 -0.18438761525E+02 -0.28125988816E+02  0.44662141448E+02  0.00000000000E+00 0. -1.
          1    1    1    2  501    0 -0.25795420690E+02 -0.21046209878E+00  0.23375555625E+02  0.34811846025E+02  0.00000000000E+00 0. -1.
<scales pt_clust_5="13000.00000" pt_clust_6="13000.00000" pt_clust_7="13000.00000" pt_clust_8="13000.00000" pt_clust_9="25.79628"></scales>
<clustering>
<clus scale="   25.796">  1  9  2 -1</clus>
<clus scale="   79.977">  5  6 -1 -1</clus>
<clus scale="   89.578">  7  8 -1 -1</clus>
<clus scale="   92.544">  2  5  1 -1</clus>
<clus scale="   25.796">  1  5  2 -1</clus>
</clustering>
</event>
<event>
 9    2  0.3745229E-005  0.2333873E+03  0.7546771E-02  0.1153028E+00
         21   -1    0    0  501  502  0.00000000000E+00  0.00000000000E+00  0.27343827848E+03  0.27343827848E+03  0.00000000000E+00 0. -1.
          2   -1    0    0  502    0 -0.00000000000E+00 -0.00000000000E+00 -0.10978481433E+04  0.10978481433E+04  0.00000000000E+00 0. -1.
         24    2    1    2    0    0  0.55703669363E+02  0.63062123845E+02 -0.87705308756E+03  0.88474970774E+03  0.80499668991E+02 0.  0.
         23    2    1    2    0    0  0.14657800722E+03  0.52557364997E+02 -0.96546026040E+02  0.20987234189E+03  0.10236149633E+03 0.  0.
        -13    1    3    3    0    0  0.57959000649E+02  0.62719024626E+02 -0.47032333676E+03  0.47801355933E+03  0.00000000000E+00 0.  1.
         14    1    3    3    0    0 -0.22553312855E+01  0.34309921901E+00 -0.40672975080E+03  0.40673614841E+03  0.00000000000E+00 0. -1.
        -13    1    4    4    0    0  0.15024879232E+03  0.28339056443E+02 -0.10322776510E+03  0.18448244687E+03  0.00000000000E+00 0. -1.
         13    1    4    4    0    0 -0.36707851018E+01  0.24218308554E+02  0.66817390626E+01  0.25389895025E+02  0.00000000000E+00 0.  1.
          1    1    1    2  501    0 -0.20228167658E+03 -0.11561948884E+03  0.14918924876E+03  0.27666437217E+03  0.00000000000E+00 0. -1.
<scales pt_clust_5="13000.00000" pt_clust_6="13000.00000" pt_clust_7="13000.00000" pt_clust_8="13000.00000" pt_clust_9="209.74216"></scales>
<clustering>
<clus scale="   80.500">  5  6 -1 -1</clus>
<clus scale="  102.361">  7  8 -1 -1</clus>
<clus scale="  116.447">  2  5  1 -1</clus>
<clus scale="  209.742">  1  9  2 -1</clus>
<clus scale="  209.742">  1  5  2 -1</clus>
</clustering>
</event>
<event>
 9    2  0.3745229E-005  0.2180911E+03  0.7546771E-02  0.1162630E+00
         21   -1    0    0  501  502  0.00000000000E+00  0.00000000000E+00  0.81023492423E+02  0.81023492423E+02  0.00000000000E+00 0.  1.
         -1   -1    0    0    0  501 -0.00000000000E+00 -0.00000000000E+00 -0.10370133072E+04  0.10370133072E+04  0.00000000000E+00 0.  1.
         24    2    1    2    0    0 -0.74456361029E+02 -0.50222926681E+02 -0.39576904314E+03  0.41186755612E+03  0.70254225547E+02 0.  0.
         23    2    1    2    0    0 -0.69469317634E+02 -0.13220080745E+03 -0.35639561474E+03  0.39707748636E+03  0.91376454232E+02 0.  0.
        -13    1    3    3    0    0 -0.80227305781E+02 -0.19243260969E+02 -0.28877597917E+03  0.30033030122E+03  0.00000000000E+00 0.  1.
         14    1    3    3    0    0  0.57709447518E+01 -0.30979665712E+02 -0.10699306397E+03  0.11153725490E+03  0.00000000000E+00 0. -1.
        -13    1    4    4    0    0 -0.64960715879E+02 -0.28279050053E+02 -0.13492128901E+03  0.15239210448E+03  0.00000000000E+00 0. -1.
         13    1    4    4    0    0 -0.45086017542E+01 -0.10392175740E+03 -0.22147432572E+03  0.24468538188E+03  0.00000000000E+00 0.  1.
         -2    1    1    2    0  502  0.14392567866E+03  0.18242373413E+03 -0.20382515691E+03  0.30909175716E+03  0.00000000000E+00 0.  1.
<scales pt_clust_5="13000.00000" pt_clust_6="13000.00000" pt_clust_7="13000.00000" pt_clust_8="13000.00000" pt_clust_9="198.02548"></scales>
<clustering>
<clus scale="   70.254">  5  6 -1 -1</clus>
<clus scale="   91.376">  7  8 -1 -1</clus>
<clus scale="  114.025">  2  5  1 -1</clus>
<clus scale="  198.025">  1  9  2 -1</clus>
<clus scale="  198.025">  1  5  2 -1</clus>
</clustering>
</event>
<event>
 9    2  0.3745229E-005  0.1433076E+03  0.7546771E-02  0.1213672E+00
          2   -1    0    0  502    0 -0.00000000000E+00  0.00000000000E+00  0.13215613479E+04  0.13215613479E+04  0.00000000000E+00 0. -1.
         21   -1    0    0  501  502  0.00000000000E+00 -0.00000000000E+00 -0.63080752629E+02  0.63080752629E+02  0.00000000000E+00 0. -1.
         24    2    1    2    0    0 -0.29658848748E+02  0.10952700081E+03  0.96112506545E+03  0.97105067526E+03  0.79386467743E+02 0.  0.
         23    2    1    2    0    0 -0.25486639484E+02 -0.80413576944E+02  0.32115206462E+03  0.34684645249E+03  0.10023921811E+03 0.  0.
        -13    1    3    3    0    0 -0.10420183698E+02  0.36938857138E+02  0.10781526568E+03  0.11444295919E+03  0.00000000000E+00 0.  1.
         14    1    3    3    0    0 -0.19238665050E+02  0.72588143672E+02  0.85330979977E+03  0.85660771606E+03  0.00000000000E+00 0. -1.
        -11    1    4    4    0    0 -0.63253324425E+02 -0.56518941947E+02  0.23406934923E+03  0.24896552793E+03  0.00000000000E+00 0. -1.
         11    1    4    4    0    0  0.37766684941E+02 -0.23894634997E+02  0.87082715392E+02  0.97880924562E+02  0.00000000000E+00 0.  1.
          1    1    1    2  501    0  0.55145488232E+02 -0.29113423866E+02 -0.23796534809E+02  0.66744972773E+02  0.00000000000E+00 0. -1.
<scales pt_clust_5="13000.00000" pt_clust_6="13000.00000" pt_clust_7="13000.00000" pt_clust_8="13000.00000" pt_clust_9="62.35877"></scales>
<clustering>
<clus scale="   62.359">  2  9  1 -1</clus>
<clus scale="   79.386">  5  6 -1 -1</clus>
<clus scale="  100.239">  7  8 -1 -1</clus>
<clus scale="  129.582">  1  5  2 -1</clus>
<clus scale="   62.359">  2  5  1 -1</clus>
</clustering>
</event>
<event>
 9    2  0.3745229E-005  0.1401053E+03  0.7546771E-02  0.1236058E+00
          2   -1    0    0  502    0 -0.00000000000E+00  0.00000000000E+00  0.17328481929E+03  0.17328481929E+03  0.00000000000E+00 0. -1.
         21   -1    0    0  501  502  0.00000000000E+00 -0.00000000000E+00 -0.26447623756E+03  0.26447623756E+03  0.00000000000E+00 0. -1.
         24    2    1    2    0    0  0.59722961805E+01  0.34829950896E+02 -0.70512344941E+02  0.11198168049E+03  0.79492843549E+02 0.  0.
         23    2    1    2    0    0  0.10019879102E+03 -0.12738737810E+02  0.96144515810E+02  0.16638027840E+03  0.90755473428E+02 0.  0.
        -11    1    3    3    0    0 -0.29991180530E+02  0.37573327261E+02 -0.25883408456E+02  0.54600152603E+02  0.00000000000E+00 0.  1.
         12    1    3    3    0    0  0.35963476710E+02 -0.27433763648E+01 -0.44628936485E+02  0.57381527888E+02  0.00000000000E+00 0. -1.
        -13    1    4    4    0    0  0.77910304340E+02  0.32472399873E+02  0.69660385811E+02  0.10943967118E+03  0.00000000000E+00 0. -1.
         13    1    4    4    0    0  0.22288486678E+02 -0.45211137683E+02  0.26484129999E+02  0.56940607222E+02  0.00000000000E+00 0.  1.
          1    1    1    2  501    0 -0.10617108720E+03 -0.22091213086E+02 -0.11682358913E+03  0.15939909796E+03  0.00000000000E+00 0. -1.
<scales pt_clust_5="13000.00000" pt_clust_6="13000.00000" pt_clust_7="13000.00000" pt_clust_8="13000.00000" pt_clust_9="106.73766"></scales>
<clustering>
<clus scale="   79.493">  5  6 -1 -1</clus>
<clus scale="   86.994">  1  5  2 -1</clus>
<clus scale="   90.755">  7  8 -1 -1</clus>
<clus scale="  106.738">  2  9  1 -1</clus>
<clus scale="  106.738">  2  5  1 -1</clus>
</clustering>
</event>
<event>
 9    2  0.3745229E-005  0.1749892E+03  0.7546771E-02  0.1174282E+00
          2   -1    0    0  502    0 -0.00000000000E+00  0.00000000000E+00  0.67996442942E+03  0.67996442942E+03  0.00000000000E+00 0. -1.
         21   -1    0    0  501  502  0.00000000000E+00 -0.00000000000E+00 -0.51366466647E+02  0.51366466647E+02  0.00000000000E+00 0. -1.
         24    2    1    2    0    0  0.14060750155E+03 -0.73006086306E+02  0.33517393345E+03  0.37899263175E+03  0.78698736512E+02 0.  0.
         23    2    1    2    0    0 -0.13227036263E+03  0.46301888358E+02  0.25353188544E+03  0.30361449991E+03  0.90906732039E+02 0.  0.
        -13    1    3    3    0    0  0.26042395037E+02  0.44469327765E+01  0.15359167264E+02  0.30559541381E+02  0.00000000000E+00 0.  1.
         14    1    3    3    0    0  0.11456510651E+03 -0.77453019083E+02  0.31981476618E+03  0.34843309037E+03  0.00000000000E+00 0. -1.
        -13    1    4    4    0    0 -0.12356439406E+02 -0.21139586300E+02  0.70574884000E+02  0.74701927387E+02  0.00000000000E+00 0.  1.
         13    1    4    4    0    0 -0.11991392322E+03  0.67441474657E+02  0.18295700144E+03  0.22891257253E+03  0.00000000000E+00 0. -1.
          1    1    1    2  501    0 -0.83371389243E+01  0.26704197948E+02  0.39892143886E+02  0.48723764401E+02  0.00000000000E+00 0. -1.
<scales pt_clust_5="13000.00000" pt_clust_6="13000.00000" pt_clust_7="13000.00000" pt_clust_8="13000.00000" pt_clust_9="27.97538"></scales>
<clustering>
<clus scale="   27.975">  2  9  1 -1</clus>
<clus scale="   78.699">  5  6 -1 -1</clus>
<clus scale="   90.907">  7  8 -1 -1</clus>
<clus scale="  168.969">  1  5  2 -1</clus>
<clus scale="   27.975">  2  5  1 -1</clus>
</clustering>
</event>
<event>
 9    2  0.3745229E-005  0.2688962E+03  0.7546771E-02  0.1119830E+00
         21   -1    0    0  501  502  0.00000000000E+00  0.00000000000E+00  0.80279986429E+03  0.80279986429E+03  0.00000000000E+00 0.  1.
         -1   -1    0    0    0  501 -0.00000000000E+00 -0.00000000000E+00 -0.17654874195E+03  0.17654874195E+03  0.00000000000E+00 0.  1.
         23    2    1    2    0    0 -0.12661527898E+03 -0.68189498224E+02  0.41855099343E+02  0.17554633511E+03  0.91561071920E+02 0.  0.
         24    2    1    2    0    0  0.16674777777E+03  0.28091731798E+03  0.38988052256E+03  0.51276958797E+03  0.64857285946E+02 0.  0.
        -11    1    4    4    0    0  0.11793462835E+03  0.22881665122E+03  0.33626093301E+03  0.42348205571E+03  0.00000000000E+00 0.  1.
         12    1    4    4    0    0  0.48813149420E+02  0.52100666760E+02  0.53619589550E+02  0.89287532258E+02  0.00000000000E+00 0. -1.
        -11    1    3    3    0    0 -0.13813526457E+03 -0.46225528767E+02  0.34878625036E+02  0.14978207273E+03  0.00000000000E+00 0.  1.
         11    1    3    3    0    0  0.11519985589E+02 -0.21963969457E+02  0.69764743068E+01  0.25764262381E+02  0.00000000000E+00 0. -1.
         -2    1    1    2    0  502 -0.40132498795E+02 -0.21272781975E+03  0.19451550044E+03  0.29103268316E+03  0.00000000000E+00 0.  1.
<scales pt_clust_5="13000.00000" pt_clust_6="13000.00000" pt_clust_7="13000.00000" pt_clust_8="13000.00000" pt_clust_9="260.95731"></scales>
<clustering>
<clus scale="   64.857">  5  6 -1 -1</clus>
<clus scale="   91.561">  7  8 -1 -1</clus>
<clus scale="  170.484">  2  7  1 -1</clus>
<clus scale="  260.957">  1  9  2 -1</clus>
<clus scale="  260.957">  1  5  2 -1</clus>
</clustering>
</event>
<event>
 9    2  0.3745229E-005  0.1302131E+03  0.7546771E-02  0.1229420E+00
         21   -1    0    0  501  502  0.00000000000E+00  0.00000000000E+00  0.31141667258E+02  0.31141667258E+02  0.00000000000E+00 0.  1.
         -1   -1    0    0    0  501 -0.00000000000E+00 -0.00000000000E+00 -0.82016924849E+03  0.82016924849E+03  0.00000000000E+00 0.  1.
         24    2    1    2    0    0 -0.71382301418E+02 -0.82599183447E+02 -0.33904122560E+03  0.36517527199E+03  0.80535511121E+02 0.  0.
         23    2    1    2    0    0  0.79728780100E+02  0.28921306779E+02 -0.24793778819E+03  0.27691183595E+03  0.89520375976E+02 0.  0.
        -13    1    3    3    0    0 -0.99259714093E+01 -0.47132068267E+02 -0.23064151096E+03  0.23561719662E+03  0.00000000000E+00 0.  1.
         14    1    3    3    0    0 -0.61456330009E+02 -0.35467115179E+02 -0.10839971465E+03  0.12955807537E+03  0.00000000000E+00 0. -1.
        -13    1    4    4    0    0  0.11121316951E+02 -0.27748095516E+02 -0.34395552330E+02  0.45570763825E+02  0.00000000000E+00 0.  1.
         13    1    4    4    0    0  0.68607463149E+02  0.56669402295E+02 -0.21354223586E+03  0.23134107213E+03  0.00000000000E+00 0. -1.
         -2    1    1    2    0  502 -0.83464786821E+01  0.53677876668E+02 -0.20204856744E+03  0.20922380781E+03  0.00000000000E+00 0.  1.
<scales pt_clust_5="13000.00000" pt_clust_6="13000.00000" pt_clust_7="13000.00000" pt_clust_8="13000.00000" pt_clust_9="54.32293"></scales>
<clustering>
<clus scale="   54.323">  1  9  2 -1</clus>
<clus scale="   80.536">  5  6 -1 -1</clus>
<clus scale="   89.520">  7  8 -1 -1</clus>
<clus scale="  124.208">  2  5  1 -1</clus>
<clus scale="   54.323">  1  5  2 -1</clus>
</clustering>
</event>
<event>
 9    2  0.3745229E-005  0.1764459E+03  0.7546771E-02  0.1173493E+00
         21   -1    0    0  501  502  0.00000000000E+00  0.00000000000E+00  0.18362701989E+03  0.18362701989E+03  0.00000000000E+00 0. -1.
          2   -1    0    0  502    0 -0.00000000000E+00 -0.00000000000E+00 -0.95199388767E+03  0.95199388767E+03  0.00000000000E+00 0. -1.
         24    2    1    2    0    0  0.30368423022E+02 -0.14756343197E+03 -0.56164959886E+03  0.58710662417E+03  0.80911733814E+02 0.  0.
         23    2    1    2    0    0 -0.50528679798E+02  0.13319750971E+03 -0.35680847368E+03  0.39639529895E+03  0.97581873658E+02 0.  0.
        -13    1    3    3    0    0  0.54123410917E+02 -0.11941600975E+03 -0.47904964161E+03  0.49666697708E+03  0.00000000000E+00 0.  1.
         14    1    3    3    0    0 -0.23754987895E+02 -0.28147422226E+02 -0.82599957249E+02  0.90439647088E+02  0.00000000000E+00 0. -1.
        -13    1    4    4    0    0  0.12083769568E+02  0.62510947215E+02 -0.70875692807E+02  0.95273290274E+02  0.00000000000E+00 0.  1.
         13    1    4    4    0    0 -0.62612449365E+02  0.70686562495E+02 -0.28593278088E+03  0.30112200868E+03  0.00000000000E+00 0. -1.
          1    1    1    2  501    0  0.20160256776E+02  0.14365922263E+02  0.15009120477E+03  0.15211898444E+03  0.00000000000E+00 0. -1.
<scales pt_clust_5="13000.00000" pt_clust_6="13000.00000" pt_clust_7="13000.00000" pt_clust_8="13000.00000" pt_clust_9="24.75511"></scales>
<clustering>
<clus scale="   24.755">  1  9  2 -1</clus>
<clus scale="   80.912">  5  6 -1 -1</clus>
<clus scale="   97.582">  7  8 -1 -1</clus>
<clus scale="  167.802">  2  5  1 -1</clus>
<clus scale="   24.755">  1  5  2 -1</clus>
</clustering>
</event>
<event>
 9    2  0.3745229E-005  0.1035271E+03  0.7546771E-02  0.1278301E+00
         21   -1    0    0  501  502  0.00000000000E+00  0.00000000000E+00  0.92511874639E+02  0.92511874639E+02  0.00000000000E+00 0. -1.
          2   -1    0    0  502    0 -0.00000000000E+00 -0.00000000000E+00 -0.22848067201E+03  0.22848067201E+03  0.00000000000E+00 0. -1.
         24    2    1    2    0    0 -0.37809988293E+02  0.24777473343E+02 -0.14627406869E+03  0.17256401324E+03  0.79616060530E+02 0.  0.
         23    2    1    2    0    0  0.42850359152E+02 -0.56829995221E+02  0.65513134478E+01  0.11576568452E+03  0.91065758489E+02 0.  0.
        -11    1    3    3    0    0 -0.59146759047E+02  0.32310190721E+02 -0.12200701641E+03  0.13938435917E+03  0.00000000000E+00 0.  1.
         12    1    3    3    0    0  0.21336770754E+02 -0.75327173789E+01 -0.24267052288E+02  0.33179654068E+02  0.00000000000E+00 0. -1.
        -11    1    4    4    0    0  0.58623283332E+02 -0.16320134330E+02 -0.20911595045E+02  0.64345403414E+02  0.00000000000E+00 0.  1.
         11    1    4    4    0    0 -0.15772924180E+02 -0.40509860891E+02  0.27462908493E+02  0.51420281111E+02  0.00000000000E+00 0. -1.
          1    1    1    2  501    0 -0.50403708595E+01  0.32052521879E+02  0.37539578766E+01  0.32662848880E+02  0.00000000000E+00 0. -1.
<scales pt_clust_5="13000.00000" pt_clust_6="13000.00000" pt_clust_7="13000.00000" pt_clust_8="13000.00000" pt_clust_9="32.44641"></scales>
<clustering>
<clus scale="   32.446">  1  9  2 -1</clus>
<clus scale="   79.616">  5  6 -1 -1</clus>
<clus scale="   91.066">  7  8 -1 -1</clus>
<clus scale="   93.614">  2  5  1 -1</clus>
<clus scale="   32.446">  1  5  2 -1</clus>
</clustering>
</event>
<event>
 9    2  0.3745229E-005  0.9662354E+02  0.7546771E-02  0.1291227E+00
         21   -1    0    0  501  502  0.00000000000E+00  0.00000000000E+00  0.76577458536E+02  0.76577458536E+02  0.00000000000E+00 0. -1.
         -1   -1    0    0    0  501 -0.00000000000E+00 -0.00000000000E+00 -0.30404754736E+03  0.30404754736E+03  0.00000000000E+00 0.  1.
         23    2    1    2    0    0 -0.41487840435E+02  0.30925573809E+02 -0.12997667751E+03  0.16669095499E+03  0.90632807291E+02 0.  0.
         24    2    1    2    0    0 -0.48630838676E+02 -0.34896540701E+02 -0.46466134496E+02  0.11029560301E+03  0.80145438835E+02 0.  0.
        -13    1    4    4    0    0 -0.45193802990E+02 -0.15651187091E+02 -0.66755442565E+02  0.82120208220E+02  0.00000000000E+00 0.  1.
         14    1    4    4    0    0 -0.34370356858E+01 -0.19245353610E+02  0.20289308069E+02  0.28175394794E+02  0.00000000000E+00 0. -1.
        -13    1    3    3    0    0 -0.57376161495E+02 -0.72410099909E+01 -0.49112041842E+02  0.75871264570E+02  0.00000000000E+00 0.  1.
         13    1    3    3    0    0  0.15888321060E+02  0.38166583799E+02 -0.80864635671E+02  0.90819690416E+02  0.00000000000E+00 0. -1.
         -2    1    1    2    0  502  0.90118679111E+02  0.39709668922E+01 -0.51027276810E+02  0.10363844789E+03  0.00000000000E+00 0.  1.
<scales pt_clust_5="13000.00000" pt_clust_6="13000.00000" pt_clust_7="13000.00000" pt_clust_8="13000.00000" pt_clust_9="90.20612"></scales>
<clustering>
<clus scale="   80.145">  5  6 -1 -1</clus>
<clus scale="   90.206">  1  9  2 -1</clus>
<clus scale="   90.206">  1  5  2 -1</clus>
<clus scale="   90.633">  7  8 -1 -1</clus>
<clus scale="   90.206">  1  5  2 -1</clus>
</clustering>
</event>
<event>
 9    2  0.3745229E-005  0.9324315E+02  0.7546771E-02  0.1302423E+00
         -3   -1    0    0    0  501 -0.00000000000E+00  0.00000000000E+00  0.38451360366E+03  0.38451360366E+03  0.00000000000E+00 0.  1.
         21   -1    0    0  501  502  0.00000000000E+00 -0.00000000000E+00 -0.35960775206E+02  0.35960775206E+02  0.00000000000E+00 0. -1.
         23    2    1    2    0    0  0.24997275035E+01 -0.18240243664E+02  0.23972090392E+03  0.25772115070E+03  0.92817695590E+02 0.  0.
         24    2    1    2    0    0  0.72233306190E+01 -0.14068568285E+02  0.55082762852E+02  0.99291668382E+02  0.81084052241E+02 0.  0.
        -11    1    4    4    0    0  0.11675607214E+02  0.33129582479E+02  0.21325553737E+02  0.41093409219E+02  0.00000000000E+00 0.  1.
         12    1    4    4    0    0 -0.44522765954E+01 -0.47198150764E+02  0.33757209115E+02  0.58198259163E+02  0.00000000000E+00 0. -1.
        -11    1    3    3    0    0  0.33982883526E+02  0.21872700981E+02  0.14003685420E+03  0.14575174769E+03  0.00000000000E+00 0.  1.
         11    1    3    3    0    0 -0.31483156023E+02 -0.40112944644E+02  0.99684049727E+02  0.11196940301E+03  0.00000000000E+00 0. -1.
         -4    1    1    2    0  502 -0.97230581224E+01  0.32308811949E+02  0.53749161672E+02  0.63461559776E+02  0.00000000000E+00 0.  1.
<scales pt_clust_5="13000.00000" pt_clust_6="13000.00000" pt_clust_7="13000.00000" pt_clust_8="13000.00000" pt_clust_9="33.74016"></scales>
<clustering>
<clus scale="   33.740">  2  9  1 -1</clus>
<clus scale="   81.084">  5  6 -1 -1</clus>
<clus scale="   81.571">  2  5  1 -1</clus>
<clus scale="   92.818">  7  8 -1 -1</clus>
<clus scale="   33.740">  2  5  1 -1</clus>
</clustering>
</event>
<event>
 9    2  0.3745229E-005  0.2654594E+03  0.7546771E-02  0.1140902E+00
          2   -1    0    0  502    0 -0.00000000000E+00  0.00000000000E+00  0.15286874128E+04  0.15286874128E+04  0.00000000000E+00 0. -1.
         21   -1    0    0  501  502  0.00000000000E+00 -0.00000000000E+00 -0.14970163610E+03  0.14970163610E+03  0.00000000000E+00 0.  1.
         23    2    1    2    0    0 -0.25895278659E+02  0.36992067993E+02 -0.18709061892E+02  0.10728210672E+03  0.95501009805E+02 0.  0.
         24    2    1    2    0    0  0.11112593070E+03 -0.23721178112E+03  0.16308207145E+03  0.31746389795E+03  0.74626824250E+02 0.  0.
        -11    1    4    4    0    0  0.20223649830E+02 -0.50405730626E+02  0.15979664900E+01  0.54334953661E+02  0.00000000000E+00 0.  1.
         12    1    4    4    0    0  0.90902280874E+02 -0.18680605049E+03  0.16148410496E+03  0.26312894429E+03  0.00000000000E+00 0. -1.
        -11    1    3    3    0    0  0.31112679121E+02  0.37352858472E+02 -0.95402989816E+01  0.49540409191E+02  0.00000000000E+00 0.  1.
         11    1    3    3    0    0 -0.57007957780E+02 -0.36079047866E+00 -0.91687629109E+01  0.57741697527E+02  0.00000000000E+00 0. -1.
          1    1    1    2  501    0 -0.85230652045E+02  0.20021971313E+03  0.12346127671E+04  0.12536430442E+04  0.00000000000E+00 0. -1.
<scales pt_clust_5="13000.00000" pt_clust_6="13000.00000" pt_clust_7="13000.00000" pt_clust_8="13000.00000" pt_clust_9="254.75398"></scales>
<clustering>
<clus scale="   74.627">  5  6 -1 -1</clus>
<clus scale="   95.501">  7  8 -1 -1</clus>
<clus scale="  105.638">  1  7  2 -1</clus>
<clus scale="  254.754">  2  9  1 -1</clus>
<clus scale="  254.754">  2  5  1 -1</clus>
</clustering>
</event>
<event>
 9    2  0.3745229E-005  0.1044584E+03  0.7546771E-02  0.1277748E+00
         -1   -1    0    0    0  501 -0.00000000000E+00  0.00000000000E+00  0.11172277862E+03  0.11172277862E+03  0.00000000000E+00 0.  1.
         21   -1    0    0  501  502  0.00000000000E+00 -0.00000000000E+00 -0.25975161683E+03  0.25975161683E+03  0.00000000000E+00 0.  1.
         23    2    1    2    0    0 -0.62376054453E+02 -0.29872163034E+02  0.38444760010E+02  0.12318870766E+03  0.94415781676E+02 0.  0.
         24    2    1    2    0    0  0.47060430811E+01 -0.15513044690E+02 -0.58796372112E+02  0.10102020860E+03  0.80531160274E+02 0.  0.
        -11    1    4    4    0    0 -0.33510531632E+02 -0.82368470392E+01 -0.50626343896E+02  0.61268491705E+02  0.00000000000E+00 0.  1.
         12    1    4    4    0    0  0.38216574713E+02 -0.72761976503E+01 -0.81700282156E+01  0.39751716895E+02  0.00000000000E+00 0. -1.
        -13    1    3    3    0    0 -0.84194529740E+02 -0.14003758370E+02  0.13437226887E+02  0.86402448767E+02  0.00000000000E+00 0.  1.
         13    1    3    3    0    0  0.21818475287E+02 -0.15868404664E+02  0.25007533124E+02  0.36786258893E+02  0.00000000000E+00 0. -1.
         -2    1    1    2    0  502  0.57670011372E+02  0.45385207723E+02 -0.12767722611E+03  0.14726547918E+03  0.00000000000E+00 0.  1.
<scales pt_clust_5="13000.00000" pt_clust_6="13000.00000" pt_clust_7="13000.00000" pt_clust_8="13000.00000" pt_clust_9="73.38697"></scales>
<clustering>
<clus scale="   73.387">  2  9  1 -1</clus>
<clus scale="   80.531">  5  6 -1 -1</clus>
<clus scale="   92.100">  2  5  1 -1</clus>
<clus scale="   94.416">  7  8 -1 -1</clus>
<clus scale="   73.387">  2  5  1 -1</clus>
</clustering>
</event>
<event>
 9    2  0.3745229E-005  0.9935947E+02  0.7546771E-02  0.1286138E+00
          2   -1    0    0  502    0 -0.00000000000E+00  0.00000000000E+00  0.11513203573E+04  0.11513203573E+04  0.00000000000E+00 0. -1.
         21   -1    0    0  501  502  0.00000000000E+00 -0.00000000000E+00 -0.20752713925E+02  0.20752713925E+02  0.00000000000E+00 0.  1.
         24    2    1    2    0    0  0.14865159672E+02 -0.39422040759E+01  0.46706707574E+03  0.47495303109E+03  0.84806925178E+02 0.  0.
         23    2    1    2    0    0 -0.11563201609E+02  0.76855634383E+02  0.54131783231E+03  0.55479684435E+03  0.93456122074E+02 0.  0.
        -13    1    3    3    0    0  0.36613229539E+02 -0.29610261625E+02  0.18550162632E+03  0.19138482056E+03  0.00000000000E+00 0.  1.
         14    1    3    3    0    0 -0.21748069867E+02  0.25668057549E+02  0.28156544941E+03  0.28356821053E+03  0.00000000000E+00 0. -1.
        -13    1    4    4    0    0 -0.39285051768E+02  0.13321687550E+00  0.20465427636E+03  0.20839075285E+03  0.00000000000E+00 0. -1.
         13    1    4    4    0    0  0.27721850160E+02  0.76722417508E+02  0.33666355595E+03  0.34640609150E+03  0.00000000000E+00 0.  1.
          1    1    1    2  501    0 -0.33019580632E+01 -0.72913430308E+02  0.12218273531E+03  0.14232319577E+03  0.00000000000E+00 0. -1.
<scales pt_clust_5="13000.00000" pt_clust_6="13000.00000" pt_clust_7="13000.00000" pt_clust_8="13000.00000" pt_clust_9="72.98816"></scales>
<clustering>
<clus scale="   72.988">  2  9  1 -1</clus>
<clus scale="   84.807">  5  6 -1 -1</clus>
<clus scale="   91.271">  1  5  2 -1</clus>
<clus scale="   93.456">  7  8 -1 -1</clus>
<clus scale="   72.988">  2  5  1 -1</clus>
</clustering>
</event>
<event>
 9    2  0.3745229E-005  0.1381078E+03  0.7546771E-02  0.1231870E+00
         -3   -1    0    0    0  501 -0.00000000000E+00  0.00000000000E+00  0.40942887921E+02  0.40942887921E+02  0.00000000000E+00 0.  1.
         21   -1    0    0  501  502  0.00000000000E+00 -0.00000000000E+00 -0.79511055035E+03  0.79511055035E+03  0.00000000000E+00 0.  1.
         23    2    1    2    0    0 -0.84377341156E+01  0.41167018349E+02 -0.19254930742E+03  0.21649599934E+03  0.89606713955E+02 0.  0.
         24    2    1    2    0    0  0.10530093962E+03 -0.81255653999E+02 -0.29404323336E+03  0.33217959530E+03  0.78683487798E+02 0.  0.
        -11    1    4    4    0    0  0.55409234148E+02 -0.35185597312E+02 -0.22872246823E+03  0.23795414886E+03  0.00000000000E+00 0.  1.
         12    1    4    4    0    0  0.49891705472E+02 -0.46070056688E+02 -0.65320765134E+02  0.94225446435E+02  0.00000000000E+00 0. -1.
        -13    1    3    3    0    0 -0.28315642740E+02 -0.88234642409E+01 -0.13290485956E+03  0.13617389926E+03  0.00000000000E+00 0. -1.
         13    1    3    3    0    0  0.19877908624E+02  0.49990482590E+02 -0.59644447862E+02  0.80322100082E+02  0.00000000000E+00 0.  1.
         -4    1    1    2    0  502 -0.96863205504E+02  0.40088635650E+02 -0.26757512164E+03  0.28737784363E+03  0.00000000000E+00 0.  1.
<scales pt_clust_5="13000.00000" pt_clust_6="13000.00000" pt_clust_7="13000.00000" pt_clust_8="13000.00000" pt_clust_9="113.50186"></scales>
<clustering>
<clus scale="   78.683">  5  6 -1 -1</clus>
<clus scale="   89.607">  7  8 -1 -1</clus>
<clus scale="   98.971">  1  7  2 -1</clus>
<clus scale="  113.502">  2  9  1 -1</clus>
<clus scale="  113.502">  2  5  1 -1</clus>
</clustering>
</event>
<event>
 9    2  0.3745229E-005  0.9526965E+02  0.7546771E-02  0.1296291E+00
         21   -1    0    0  501  502  0.00000000000E+00  0.00000000000E+00  0.68721186746E+02  0.68721186746E+02  0.00000000000E+00 0.  1.
          2   -1    0    0  502    0 -0.00000000000E+00 -0.00000000000E+00 -0.34760171328E+03  0.34760171328E+03  0.00000000000E+00 0. -1.
         23    2    1    2    0    0  0.25238031945E+02  0.60991088706E+01 -0.83015159212E+02  0.12552784049E+03  0.90507263207E+02 0.  0.
         24    2    1    2    0    0 -0.24638312288E+02 -0.37648633908E+02  0.35445116301E+00  0.92054149405E+02  0.80307999100E+02 0.  0.
        -13    1    4    4    0    0 -0.43377178822E+02 -0.13397944759E+02  0.25802193186E+02  0.52219131930E+02  0.00000000000E+00 0.  1.
         14    1    4    4    0    0  0.18738866534E+02 -0.24250689149E+02 -0.25447742023E+02  0.39835017475E+02  0.00000000000E+00 0. -1.
        -13    1    3    3    0    0  0.65291395892E+01 -0.42005848677E+02 -0.35848974298E+02  0.55608182358E+02  0.00000000000E+00 0. -1.
         13    1    3    3    0    0  0.18708892356E+02  0.48104957548E+02 -0.47166184913E+02  0.69919658131E+02  0.00000000000E+00 0.  1.
          1    1    1    2  501    0 -0.59971965662E+00  0.31549525037E+02 -0.19621981848E+03  0.19874091013E+03  0.00000000000E+00 0. -1.
<scales pt_clust_5="13000.00000" pt_clust_6="13000.00000" pt_clust_7="13000.00000" pt_clust_8="13000.00000" pt_clust_9="31.55524"></scales>
<clustering>
<clus scale="   31.555">  1  9  2 -1</clus>
<clus scale="   80.308">  5  6 -1 -1</clus>
<clus scale="   85.639">  1  5  2 -1</clus>
<clus scale="   90.507">  7  8 -1 -1</clus>
<clus scale="   31.555">  1  5  2 -1</clus>
</clustering>
</event>
<event>
 9    2  0.3745229E-005  0.2365324E+03  0.7546771E-02  0.1122894E+00
          2   -1    0    0  502    0 -0.00000000000E+00  0.00000000000E+00  0.11239327218E+04  0.11239327218E+04  0.00000000000E+00 0. -1.
         21   -1    0    0  501  502  0.00000000000E+00 -0.00000000000E+00 -0.89248536372E+02  0.89248536372E+02  0.00000000000E+00 0.  1.
         23    2    1    2    0    0  0.12523357871E+03  0.14514313056E+03  0.34666170676E+03  0.40686271211E+03  0.92805980319E+02 0.  0.
         24    2    1    2    0    0 -0.47857221616E+02 -0.25810558252E+03  0.53225801977E+03  0.59892958096E+03  0.80679848462E+02 0.  0.
        -11    1    4    4    0    0 -0.17326255468E+02 -0.21628149670E+03  0.47197667301E+03  0.51946112926E+03  0.00000000000E+00 0.  1.
         12    1    4    4    0    0 -0.30530966148E+02 -0.41824085819E+02  0.60281346764E+02  0.79468451704E+02  0.00000000000E+00 0. -1.
        -11    1    3    3    0    0 -0.14215582824E+02  0.22002391495E+02  0.32409083028E+02  0.41671773291E+02  0.00000000000E+00 0.  1.
         11    1    3    3    0    0  0.13944916154E+03  0.12314073907E+03  0.31425262373E+03  0.36519093881E+03  0.00000000000E+00 0. -1.
          1    1    1    2  501    0 -0.77376357097E+02  0.11296245196E+03  0.15576445887E+03  0.20738896508E+03  0.00000000000E+00 0. -1.
<scales pt_clust_5="13000.00000" pt_clust_6="13000.00000" pt_clust_7="13000.00000" pt_clust_8="13000.00000" pt_clust_9="136.92193"></scales>
<clustering>
<clus scale="   80.680">  5  6 -1 -1</clus>
<clus scale="   92.806">  7  8 -1 -1</clus>
<clus scale="  136.922">  2  9  1 -1</clus>
<clus scale="  232.043">  2  5  1 -1</clus>
<clus scale="  136.922">  2  5  1 -1</clus>
</clustering>
</event>
<event>
 9    2  0.3745229E-005  0.1202751E+03  0.7546771E-02  0.1264006E+00
         21   -1    0    0  501  502  0.00000000000E+00  0.00000000000E+00  0.23909731633E+03  0.23909731633E+03  0.00000000000E+00 0. -1.
         -1   -1    0    0    0  501 -0.00000000000E+00 -0.00000000000E+00 -0.17675498352E+03  0.17675498352E+03  0.00000000000E+00 0.  1.
         24    2    1    2    0    0 -0.24002294145E+01  0.63470561396E+01  0.10454521321E+03  0.13083937321E+03  0.78378528650E+02 0.  0.
         23    2    1    2    0    0 -0.74804302808E+02 -0.21499564275E+02 -0.12337691945E+03  0.17196708234E+03  0.91065351114E+02 0.  0.
        -11    1    3    3    0    0 -0.30746340626E+02  0.89567201159E+00  0.10560417558E+02  0.32521717502E+02  0.00000000000E+00 0.  1.
         12    1    3    3    0    0  0.28346111212E+02  0.54513841280E+01  0.93984795653E+02  0.98317655707E+02  0.00000000000E+00 0. -1.
        -13    1    4    4    0    0 -0.37459126414E+02  0.13286238896E+02 -0.14301574901E+01  0.39771291733E+02  0.00000000000E+00 0.  1.
         13    1    4    4    0    0 -0.37345176394E+02 -0.34785803170E+02 -0.12194676196E+03  0.13219579061E+03  0.00000000000E+00 0. -1.
         -2    1    1    2    0  502  0.77204532222E+02  0.15152508135E+02  0.81174039050E+02  0.11304584430E+03  0.00000000000E+00 0.  1.
<scales pt_clust_5="13000.00000" pt_clust_6="13000.00000" pt_clust_7="13000.00000" pt_clust_8="13000.00000" pt_clust_9="78.56979"></scales>
<clustering>
<clus scale="   78.379">  5  6 -1 -1</clus>
<clus scale="   78.672">  2  5  1 -1</clus>
<clus scale="   78.570">  1  9  2 -1</clus>
<clus scale="   91.065">  7  8 -1 -1</clus>
<clus scale="   78.570">  1  5  2 -1</clus>
</clustering>
</event>
<event>
 9    2  0.3745229E-005  0.8627244E+02  0.7546771E-02  0.1315330E+00
         21   -1    0    0  501  502  0.00000000000E+00  0.00000000000E+00  0.22205760105E+03  0.22205760105E+03  0.00000000000E+00 0.  1.
          4   -1    0    0  502    0 -0.00000000000E+00 -0.00000000000E+00 -0.90720602989E+02  0.90720602989E+02  0.00000000000E+00 0. -1.
         24    2    1    2    0    0 -0.40355264716E+02  0.24001410369E+01 -0.53287298387E+02  0.10269090096E+03  0.77920324068E+02 0.  0.
         23    2    1    2    0    0  0.19467555583E+02 -0.37302956225E+01  0.11514912557E+03  0.13752791311E+03  0.72537610516E+02 0.  0.
        -11    1    3    3    0    0 -0.29681960511E+01 -0.34416466228E+02 -0.27881952221E+02  0.44392641227E+02  0.00000000000E+00 0.  1.
         12    1    3    3    0    0 -0.37387068665E+02  0.36816607265E+02 -0.25405346166E+02  0.58298259732E+02  0.00000000000E+00 0. -1.
        -11    1    4    4    0    0 -0.25144462407E+02  0.45024583336E+01  0.65341801604E+02  0.70157445490E+02  0.00000000000E+00 0.  1.
         11    1    4    4    0    0  0.44612017990E+02 -0.82327539561E+01  0.49807323963E+02  0.67370467619E+02  0.00000000000E+00 0. -1.
          3    1    1    2  501    0  0.20887709134E+02  0.13301545857E+01  0.69475170883E+02  0.72559389973E+02  0.00000000000E+00 0. -1.
<scales pt_clust_5="13000.00000" pt_clust_6="13000.00000" pt_clust_7="13000.00000" pt_clust_8="13000.00000" pt_clust_9="20.93002"></scales>
<clustering>
<clus scale="   20.930">  1  9  2 -1</clus>
<clus scale="   72.538">  7  8 -1 -1</clus>
<clus scale="   77.920">  5  6 -1 -1</clus>
<clus scale="   81.444">  1  7  2 -1</clus>
<clus scale="   20.930">  1  5  2 -1</clus>
</clustering>
</event>
<event>
 9    2  0.3745229E-005  0.1400603E+03  0.7546771E-02  0.1216578E+00
         21   -1    0    0  501  502  0.00000000000E+00  0.00000000000E+00  0.12825344837E+03  0.12825344837E+03  0.00000000000E+00 0. -1.
          2   -1    0    0  502    0 -0.00000000000E+00 -0.00000000000E+00 -0.70163452788E+03  0.70163452788E+03  0.00000000000E+00 0. -1.
         24    2    1    2    0    0 -0.77086947318E+02  0.79310662521E+02 -0.48090596971E+03  0.49928771845E+03  0.76059814998E+02 0.  0.
         23    2    1    2    0    0  0.91789161620E+02 -0.40692057923E+02 -0.18486207708E+03  0.22939302758E+03  0.91466276795E+02 0.  0.
        -13    1    3    3    0    0 -0.22460239551E+02 -0.80181410134E+01 -0.40536185374E+02  0.47031215917E+02  0.00000000000E+00 0.  1.
         14    1    3    3    0    0 -0.54626707767E+02  0.87328803534E+02 -0.44036978434E+03  0.45225650254E+03  0.00000000000E+00 0. -1.
        -11    1    4    4    0    0  0.39786910500E+02 -0.59680369665E+02 -0.14302185053E+03  0.15999998281E+03  0.00000000000E+00 0.  1.
         11    1    4    4    0    0  0.52002251120E+02  0.18988311742E+02 -0.41840226548E+02  0.69393044766E+02  0.00000000000E+00 0. -1.
          1    1    1    2  501    0 -0.14702214302E+02 -0.38618604598E+02  0.92386967275E+02  0.10120723022E+03  0.00000000000E+00 0. -1.
<scales pt_clust_5="13000.00000" pt_clust_6="13000.00000" pt_clust_7="13000.00000" pt_clust_8="13000.00000" pt_clust_9="41.32253"></scales>
<clustering>
<clus scale="   41.323">  1  9  2 -1</clus>
<clus scale="   76.060">  5  6 -1 -1</clus>
<clus scale="   91.466">  7  8 -1 -1</clus>
<clus scale="  130.522">  2  5  1 -1</clus>
<clus scale="   41.323">  1  5  2 -1</clus>
</clustering>
</event>
<event>
 9    2  0.3745229E-005  0.2032830E+03  0.7546771E-02  0.1147229E+00
         21   -1    0    0  501  502  0.00000000000E+00  0.00000000000E+00  0.56264735927E+02  0.56264735927E+02  0.00000000000E+00 0.  1.
          2   -1    0    0  502    0 -0.00000000000E+00 -0.00000000000E+00 -0.22971486316E+04  0.22971486316E+04  0.00000000000E+00 0. -1.
         24    2    1    2    0    0  0.17979435729E+03  0.36899259838E+02 -0.19392060801E+04  0.19496169356E+04  0.82452459558E+02 0.  0.
         23    2    1    2    0    0 -0.19545870890E+03  0.21925091854E+01 -0.29027794938E+03  0.36016736751E+03  0.85148873973E+02 0.  0.
        -11    1    3    3    0    0  0.38160674862E+02  0.31513467968E+02 -0.27763312750E+03  0.28200973255E+03  0.00000000000E+00 0.  1.
         12    1    3    3    0    0  0.14163368243E+03  0.53857918697E+01 -0.16615729526E+04  0.16676072030E+04  0.00000000000E+00 0. -1.
        -11    1    4    4    0    0 -0.15147463132E+03 -0.19267491149E+02 -0.26306741518E+03  0.30417144027E+03  0.00000000000E+00 0. -1.
         11    1    4    4    0    0 -0.43984077587E+02  0.21460000334E+02 -0.27210534199E+02  0.55995927236E+02  0.00000000000E+00 0.  1.
          1    1    1    2  501    0  0.15664351613E+02 -0.39091769024E+02 -0.11399866218E+02  0.43629064471E+02  0.00000000000E+00 0. -1.
<scales pt_clust_5="13000.00000" pt_clust_6="13000.00000" pt_clust_7="13000.00000" pt_clust_8="13000.00000" pt_clust_9="42.11340"></scales>
<clustering>
<clus scale="   42.113">  1  9  2 -1</clus>
<clus scale="   82.452">  5  6 -1 -1</clus>
<clus scale="   85.149">  7  8 -1 -1</clus>
<clus scale="  202.168">  2  5  1 -1</clus>
<clus scale="   42.113">  1  5  2 -1</clus>
</clustering>
</event>
<event>
 9    2  0.3745229E-005  0.1770499E+03  0.7546771E-02  0.1173606E+00
         21   -1    0    0  501  502  0.00000000000E+00  0.00000000000E+00  0.58521371204E+02  0.58521371204E+02  0.00000000000E+00 0. -1.
          2   -1    0    0  502    0 -0.00000000000E+00 -0.00000000000E+00 -0.10396288036E+04  0.10396288036E+04  0.00000000000E+00 0. -1.
         23    2    1    2    0    0 -0.55763286886E+02  0.17341765109E+03 -0.72485146892E+03  0.75298850337E+03  0.91645012566E+02 0.  0.
         24    2    1    2    0    0 -0.16685142312E+02 -0.96217064405E+02 -0.93102190201E+02  0.15066781753E+03  0.67057109697E+02 0.  0.
        -13    1    4    4    0    0  0.25950659669E+02 -0.33712504829E+02 -0.28821844330E+02  0.51387434550E+02  0.00000000000E+00 0.  1.
         14    1    4    4    0    0 -0.42635801981E+02 -0.62504559576E+02 -0.64280345872E+02  0.99280382975E+02  0.00000000000E+00 0. -1.
        -11    1    3    3    0    0  0.15312959569E+02  0.58958810017E+02 -0.13761488979E+03  0.15049413910E+03  0.00000000000E+00 0.  1.
         11    1    3    3    0    0 -0.71076246455E+02  0.11445884108E+03 -0.58723657913E+03  0.60249436427E+03  0.00000000000E+00 0. -1.
          1    1    1    2  501    0  0.72448429198E+02 -0.77200586687E+02 -0.16315377329E+03  0.19449385393E+03  0.00000000000E+00 0. -1.
<scales pt_clust_5="13000.00000" pt_clust_6="13000.00000" pt_clust_7="13000.00000" pt_clust_8="13000.00000" pt_clust_9="105.87117"></scales>
<clustering>
<clus scale="   67.057">  5  6 -1 -1</clus>
<clus scale="   91.645">  7  8 -1 -1</clus>
<clus scale="  105.871">  1  9  2 -1</clus>
<clus scale="  165.664">  1  5  2 -1</clus>
<clus scale="  105.871">  1  5  2 -1</clus>
</clustering>
</event>
<event>
 9    2  0.3745229E-005  0.1326613E+03  0.7546771E-02  0.1238565E+00
         21   -1    0    0  501  502  0.00000000000E+00  0.00000000000E+00  0.30093239418E+03  0.30093239418E+03  0.00000000000E+00 0. -1.
          2   -1    0    0  502    0 -0.00000000000E+00 -0.00000000000E+00 -0.14397158453E+03  0.14397158453E+03  0.00000000000E+00 0. -1.
         23    2    1    2    0    0  0.31458826138E+02  0.12605914716E+02  0.14057756018E+03  0.17100397342E+03  0.91278374605E+02 0.  0.
         24    2    1    2    0    0  0.24685478476E+02  0.83996931552E+02 -0.65498043449E+02  0.13537622042E+03  0.79823993895E+02 0.  0.
        -13    1    4    4    0    0  0.51662866189E+01  0.50585694223E+02  0.88009150937E+01  0.51604835858E+02  0.00000000000E+00 0.  1.
         14    1    4    4    0    0  0.19519191857E+02  0.33411237329E+02 -0.74298958543E+02  0.83771384561E+02  0.00000000000E+00 0. -1.
        -11    1    3    3    0    0 -0.20112477523E+02  0.24192892105E+01 -0.69368509298E+00  0.20269334262E+02  0.00000000000E+00 0.  1.
         11    1    3    3    0    0  0.51571303661E+02  0.10186625505E+02  0.14127124527E+03  0.15073463916E+03  0.00000000000E+00 0. -1.
          1    1    1    2  501    0 -0.56144304614E+02 -0.96602846267E+02  0.81881292920E+02  0.13852378488E+03  0.00000000000E+00 0. -1.
<scales pt_clust_5="13000.00000" pt_clust_6="13000.00000" pt_clust_7="13000.00000" pt_clust_8="13000.00000" pt_clust_9="105.95830"></scales>
<clustering>
<clus scale="   79.824">  5  6 -1 -1</clus>
<clus scale="   91.278">  7  8 -1 -1</clus>
<clus scale="   97.367">  2  7  1 -1</clus>
<clus scale="  105.958">  1  9  2 -1</clus>
<clus scale="  105.958">  1  5  2 -1</clus>
</clustering>
</event>
<event>
 9    2  0.3745229E-005  0.9156924E+02  0.7546771E-02  0.1305772E+00
          2   -1    0    0  502    0 -0.00000000000E+00  0.00000000000E+00  0.65022226072E+02  0.65022226072E+02  0.00000000000E+00 0. -1.
         21   -1    0    0  501  502  0.00000000000E+00 -0.00000000000E+00 -0.30638212433E+03  0.30638212433E+03  0.00000000000E+00 0. -1.
         23    2    1    2    0    0 -0.15856829341E+02 -0.16487905651E+02 -0.43769955029E+01  0.93625003195E+02  0.90681823229E+02 0.  0.
         24    2    1    2    0    0 -0.41939012243E+01 -0.22717330500E+01 -0.63804567398E+02  0.10243770447E+03  0.79998193092E+02 0.  0.
        -13    1    4    4    0    0 -0.21231179754E+02  0.14615033532E+02  0.77937477015E+01  0.26927768235E+02  0.00000000000E+00 0.  1.
         14    1    4    4    0    0  0.17037278530E+02 -0.16886766582E+02 -0.71598315100E+02  0.75509936236E+02  0.00000000000E+00 0. -1.
        -11    1    3    3    0    0 -0.28239906898E+02  0.78211059113E+00  0.37330760056E+02  0.46815485525E+02  0.00000000000E+00 0. -1.
         11    1    3    3    0    0  0.12383077557E+02 -0.17270016242E+02 -0.41707755559E+02  0.46809517670E+02  0.00000000000E+00 0.  1.
          1    1    1    2  501    0  0.20050730565E+02  0.18759638701E+02 -0.17317833536E+03  0.17534164273E+03  0.00000000000E+00 0. -1.
<scales pt_clust_5="13000.00000" pt_clust_6="13000.00000" pt_clust_7="13000.00000" pt_clust_8="13000.00000" pt_clust_9="27.45826"></scales>
<clustering>
<clus scale="   27.458">  2  9  1 -1</clus>
<clus scale="   79.998">  5  6 -1 -1</clus>
<clus scale="   81.003">  2  5  1 -1</clus>
<clus scale="   90.682">  7  8 -1 -1</clus>
<clus scale="   27.458">  2  5  1 -1</clus>
</clustering>
</event>
<event>
 9    2  0.3745229E-005  0.1292650E+03  0.7546771E-02  0.1229959E+00
         21   -1    0    0  501  502  0.00000000000E+00  0.00000000000E+00  0.18669397515E+02  0.18669397515E+02  0.00000000000E+00 0. -1.
          2   -1    0    0  502    0 -0.00000000000E+00 -0.00000000000E+00 -0.23083714403E+04  0.23083714403E+04  0.00000000000E+00 0. -1.
         24    2    1    2    0    0  0.11345346329E+03  0.16734463138E+02 -0.17874760463E+04  0.17932925401E+04  0.87611572994E+02 0.  0.
         23    2    1    2    0    0 -0.37724551868E+02 -0.40299610338E+02 -0.32206208270E+03  0.33690008203E+03  0.82039501152E+02 0.  0.
        -11    1    3    3    0    0  0.25200138261E+02  0.25939451031E+02 -0.19362344899E+03  0.19697193224E+03  0.00000000000E+00 0.  1.
         12    1    3    3    0    0  0.88253325028E+02 -0.92049878926E+01 -0.15938525973E+04  0.15963206079E+04  0.00000000000E+00 0. -1.
        -11    1    4    4    0    0  0.20374933228E+02 -0.33429008493E+02 -0.10393926183E+03  0.11106757701E+03  0.00000000000E+00 0. -1.
         11    1    4    4    0    0 -0.58099485097E+02 -0.68706018459E+01 -0.21812282087E+03  0.22583250502E+03  0.00000000000E+00 0.  1.
          1    1    1    2  501    0 -0.75728911421E+02  0.23565147200E+02 -0.18016391383E+03  0.19684821573E+03  0.00000000000E+00 0. -1.
<scales pt_clust_5="13000.00000" pt_clust_6="13000.00000" pt_clust_7="13000.00000" pt_clust_8="13000.00000" pt_clust_9="79.31068"></scales>
<clustering>
<clus scale="   79.311">  1  9  2 -1</clus>
<clus scale="   82.040">  7  8 -1 -1</clus>
<clus scale="   87.612">  5  6 -1 -1</clus>
<clus scale="  125.555">  1  7  2 -1</clus>
<clus scale="   79.311">  1  5  2 -1</clus>
</clustering>
</event>
<event>
 9    2  0.3745229E-005  0.9615752E+02  0.7546771E-02  0.1293969E+00
          4   -1    0    0  502    0 -0.00000000000E+00  0.00000000000E+00  0.42126467955E+03  0.42126467955E+03  0.00000000000E+00 0. -1.
         21   -1    0    0  501  502  0.00000000000E+00 -0.00000000000E+00 -0.44964194159E+02  0.44964194159E+02  0.00000000000E+00 0.  1.
         24    2    1    2    0    0 -0.15072212303E+02 -0.50012870791E+02  0.28753981512E+03  0.30196692817E+03  0.76002773657E+02 0.  0.
         23    2    1    2    0    0 -0.49852274022E+00  0.18846241909E+02  0.93986184766E+02  0.12903251824E+03  0.86374524471E+02 0.  0.
        -11    1    3    3    0    0 -0.29123299345E+02 -0.38207338999E+02  0.77880669471E+02  0.91506098132E+02  0.00000000000E+00 0.  1.
         12    1    3    3    0    0  0.14051087042E+02 -0.11805531792E+02  0.20965914565E+03  0.21046083004E+03  0.00000000000E+00 0. -1.
        -13    1    4    4    0    0 -0.42128806443E+02  0.20089269232E+02  0.52497517993E+02  0.70245316328E+02  0.00000000000E+00 0.  1.
         13    1    4    4    0    0  0.41630283703E+02 -0.12430273230E+01  0.41488666774E+02  0.58787201913E+02  0.00000000000E+00 0. -1.
          3    1    1    2  501    0  0.15570735043E+02  0.31166628882E+02 -0.52255144959E+01  0.35229427293E+02  0.00000000000E+00 0. -1.
<scales pt_clust_5="13000.00000" pt_clust_6="13000.00000" pt_clust_7="13000.00000" pt_clust_8="13000.00000" pt_clust_9="34.83973"></scales>
<clustering>
<clus scale="   34.840">  2  9  1 -1</clus>
<clus scale="   76.003">  5  6 -1 -1</clus>
<clus scale="   86.375">  7  8 -1 -1</clus>
<clus scale="   86.961">  1  5  2 -1</clus>
<clus scale="   34.840">  2  5  1 -1</clus>
</clustering>
</event>
<event>
 9    2  0.3745229E-005  0.1102227E+03  0.7546771E-02  0.1264059E+00
         21   -1    0    0  501  502  0.00000000000E+00  0.00000000000E+00  0.19341747169E+03  0.19341747169E+03  0.00000000000E+00 0. -1.
          2   -1    0    0  502    0 -0.00000000000E+00 -0.00000000000E+00 -0.26527090734E+03  0.26527090734E+03  0.00000000000E+00 0. -1.
         24    2    1    2    0    0 -0.62730396272E+01 -0.94663099378E+02 -0.13678011475E+03  0.18489965556E+03  0.80489933686E+02 0.  0.
         23    2    1    2    0    0 -0.39365965935E+02  0.21982459488E+02 -0.63417651525E+02  0.11939422408E+03  0.90555366593E+02 0.  0.
        -13    1    3    3    0    0 -0.35206159234E+02 -0.34559663962E+02 -0.26462977961E+02  0.55983329873E+02  0.00000000000E+00 0.  1.
         14    1    3    3    0    0  0.28933119607E+02 -0.60103435416E+02 -0.11031713678E+03  0.12891632568E+03  0.00000000000E+00 0. -1.
        -11    1    4    4    0    0 -0.53715732084E+02 -0.19566488278E+02 -0.37374649248E+02  0.68301476875E+02  0.00000000000E+00 0. -1.
         11    1    4    4    0    0  0.14349766149E+02  0.41548947767E+02 -0.26043002277E+02  0.51092747202E+02  0.00000000000E+00 0.  1.
          1    1    1    2  501    0  0.45639005563E+02  0.72680639889E+02  0.12834433062E+03  0.15439449940E+03  0.00000000000E+00 0. -1.
<scales pt_clust_5="13000.00000" pt_clust_6="13000.00000" pt_clust_7="13000.00000" pt_clust_8="13000.00000" pt_clust_9="85.82188"></scales>
<clustering>
<clus scale="   80.490">  5  6 -1 -1</clus>
<clus scale="   85.822">  1  9  2 -1</clus>
<clus scale="   90.555">  7  8 -1 -1</clus>
<clus scale="  102.115">  2  5  1 -1</clus>
<clus scale="   85.822">  1  5  2 -1</clus>
</clustering>
</event>
<event>
 9    2  0.3745229E-005  0.9396872E+02  0.7546771E-02  0.1298330E+00
         21   -1    0    0  501  502  0.00000000000E+00  0.00000000000E+00  0.15578391142E+02  0.15578391142E+02  0.00000000000E+00 0. -1.
          2   -1    0    0  502    0 -0.00000000000E+00 -0.00000000000E+00 -0.74595165905E+03  0.74595165905E+03  0.00000000000E+00 0. -1.
         24    2    1    2    0    0 -0.14740991694E+02 -0.27831814725E+02 -0.40793415938E+03  0.41708301972E+03  0.80969501697E+02 0.  0.
         23    2    1    2    0    0  0.29663062372E+02  0.78889615751E+01 -0.27597992987E+03  0.29173231842E+03  0.89446581458E+02 0.  0.
        -11    1    3    3    0    0 -0.41719934367E+02  0.62820594352E+01 -0.23543169002E+03  0.23918214369E+03  0.00000000000E+00 0.  1.
         12    1    3    3    0    0  0.26978942673E+02 -0.34113874160E+02 -0.17250246935E+03  0.17790087603E+03  0.00000000000E+00 0. -1.
        -13    1    4    4    0    0  0.35400805393E+02  0.31500594214E+02 -0.25578372714E+03  0.26013615575E+03  0.00000000000E+00 0.  1.
         13    1    4    4    0    0 -0.57377430207E+01 -0.23611632639E+02 -0.20196202737E+02  0.31596162676E+02  0.00000000000E+00 0. -1.
          1    1    1    2  501    0 -0.14922070678E+02  0.19942853150E+02 -0.46459178659E+02  0.52714712052E+02  0.00000000000E+00 0. -1.
<scales pt_clust_5="13000.00000" pt_clust_6="13000.00000" pt_clust_7="13000.00000" pt_clust_8="13000.00000" pt_clust_9="24.90754"></scales>
<clustering>
<clus scale="   24.908">  1  9  2 -1</clus>
<clus scale="   80.970">  5  6 -1 -1</clus>
<clus scale="   85.939">  2  5  1 -1</clus>
<clus scale="   89.447">  7  8 -1 -1</clus>
<clus scale="   24.908">  1  5  2 -1</clus>
</clustering>
</event>
<event>
 9    2  0.3745229E-005  0.1389918E+03  0.7546771E-02  0.1224274E+00
         21   -1    0    0  501  502  0.00000000000E+00  0.00000000000E+00  0.87153814051E+02  0.87153814051E+02  0.00000000000E+00 0.  1.
          2   -1    0    0  502    0 -0.00000000000E+00 -0.00000000000E+00 -0.79682395006E+03  0.79682395006E+03  0.00000000000E+00 0. -1.
         24    2    1    2    0    0 -0.66559269457E+02 -0.50531980778E+02  0.13195185713E+02  0.11440498534E+03  0.77011494672E+02 0.  0.
         23    2    1    2    0    0 -0.24264648580E+02 -0.65740367381E+02 -0.32062767782E+03  0.34112982434E+03  0.93042356992E+02 0.  0.
        -11    1    3    3    0    0 -0.60874481714E+02 -0.67135957809E+02  0.24058992802E+02  0.93764462828E+02  0.00000000000E+00 0.  1.
         12    1    3    3    0    0 -0.56847877436E+01  0.16603977031E+02 -0.10863807089E+02  0.20640522508E+02  0.00000000000E+00 0. -1.
        -11    1    4    4    0    0  0.16826403131E+02 -0.57082731668E+02 -0.98612147037E+02  0.11517778275E+03  0.00000000000E+00 0. -1.
         11    1    4    4    0    0 -0.41091051711E+02 -0.86576357125E+01 -0.22201553078E+03  0.22595204158E+03  0.00000000000E+00 0.  1.
          1    1    1    2  501    0  0.90823918037E+02  0.11627234816E+03 -0.40223764390E+03  0.42844295443E+03  0.00000000000E+00 0. -1.
<scales pt_clust_5="13000.00000" pt_clust_6="13000.00000" pt_clust_7="13000.00000" pt_clust_8="13000.00000" pt_clust_9="103.25625"></scales>
<clustering>
<clus scale="   77.011">  5  6 -1 -1</clus>
<clus scale="   93.042">  7  8 -1 -1</clus>
<clus scale="  113.642">  2  5  1 -1</clus>
<clus scale="  103.256">  1  9  2 -1</clus>
<clus scale="  103.256">  1  5  2 -1</clus>
</clustering>
</event>
<event>
 9    2  0.3745229E-005  0.1328240E+03  0.7546771E-02  0.1227292E+00
         -1   -1    0    0    0  501 -0.00000000000E+00  0.00000000000E+00  0.39014107116E+03  0.39014107116E+03  0.00000000000E+00 0.  1.
         21   -1    0    0  501  502  0.00000000000E+00 -0.00000000000E+00 -0.64339920510E+02  0.64339920510E+02  0.00000000000E+00 0. -1.
         23    2    1    2    0    0 -0.85414462831E+02 -0.38713721993E+02  0.24866027991E+03  0.28190810195E+03  0.94052434371E+02 0.  0.
         24    2    1    2    0    0  0.72155261286E+02  0.64650855087E+02  0.68105810795E+02  0.14207414209E+03  0.78489143139E+02 0.  0.
        -11    1    4    4    0    0  0.69950466624E+02  0.11198053413E+02  0.44019855951E+02  0.83403908177E+02  0.00000000000E+00 0.  1.
         12    1    4    4    0    0  0.22047946621E+01  0.53452801674E+02  0.24085954844E+02  0.58670233910E+02  0.00000000000E+00 0. -1.
        -13    1    3    3    0    0 -0.15666264552E+02 -0.55504764245E+02  0.79977022320E+02  0.98602914755E+02  0.00000000000E+00 0.  1.
         13    1    3    3    0    0 -0.69748198279E+02  0.16791042252E+02  0.16868325759E+03  0.18330518720E+03  0.00000000000E+00 0. -1.
         -2    1    1    2    0  502  0.13259201545E+02 -0.25937133093E+02  0.90350599435E+01  0.30498747628E+02  0.00000000000E+00 0.  1.
<scales pt_clust_5="13000.00000" pt_clust_6="13000.00000" pt_clust_7="13000.00000" pt_clust_8="13000.00000" pt_clust_9="29.12973"></scales>
<clustering>
<clus scale="   29.130">  2  9  1 -1</clus>
<clus scale="   78.489">  5  6 -1 -1</clus>
<clus scale="   94.052">  7  8 -1 -1</clus>
<clus scale="  122.298">  2  5  1 -1</clus>
<clus scale="   29.130">  2  5  1 -1</clus>
</clustering>
</event>
<event>
 9    2  0.3745229E-005  0.7800068E+03  0.7546771E-02  0.9849839E-01
          2   -1    0    0  502    0 -0.00000000000E+00  0.00000000000E+00  0.22470432055E+04  0.22470432055E+04  0.00000000000E+00 0. -1.
         21   -1    0    0  501  502  0.00000000000E+00 -0.00000000000E+00 -0.63873608496E+03  0.63873608496E+03  0.00000000000E+00 0. -1.
         23    2    1    2    0    0  0.38740020152E+02 -0.31518733489E+03  0.72837564002E+03  0.79833516929E+03  0.77227743088E+02 0.  0.
         24    2    1    2    0    0  0.59231177014E+03 -0.21831204735E+03  0.10649956190E+04  0.12406285047E+04  0.80312111382E+02 0.  0.
        -13    1    4    4    0    0  0.98850914671E+02 -0.16005974756E+02  0.12838485668E+03  0.16282004171E+03  0.00000000000E+00 0.  1.
         14    1    4    4    0    0  0.49346085547E+03 -0.20230607260E+03  0.93661076231E+03  0.10778084630E+04  0.00000000000E+00 0. -1.
        -11    1    3    3    0    0  0.18572828405E+02 -0.27835286097E+03  0.67531133677E+03  0.73066453776E+03  0.00000000000E+00 0. -1.
         11    1    3    3    0    0  0.20167191748E+02 -0.36834473914E+02  0.53064303256E+02  0.67670631529E+02  0.00000000000E+00 0.  1.
          1    1    1    2  501    0 -0.63105179029E+03  0.53349938224E+03 -0.18506413848E+03  0.84681561643E+03  0.00000000000E+00 0. -1.
<scales pt_clust_5="13000.00000" pt_clust_6="13000.00000" pt_clust_7="13000.00000" pt_clust_8="13000.00000" pt_clust_9="775.86114"></scales>
<clustering>
<clus scale="   77.228">  7  8 -1 -1</clus>
<clus scale="   80.312">  5  6 -1 -1</clus>
<clus scale="  326.815">  1  7  2 -1</clus>
<clus scale="  775.861">  2  9  1 -1</clus>
<clus scale="  775.861">  2  5  1 -1</clus>
</clustering>
</event>
<event>
 9    2  0.3745229E-005  0.1538395E+03  0.7546771E-02  0.1196239E+00
          2   -1    0    0  502    0 -0.00000000000E+00  0.00000000000E+00  0.24318908466E+03  0.24318908466E+03  0.00000000000E+00 0. -1.
         21   -1    0    0  501  502  0.00000000000E+00 -0.00000000000E+00 -0.11934552047E+03  0.11934552047E+03  0.00000000000E+00 0. -1.
         23    2    1    2    0    0  0.77851695281E+02  0.87786219723E+02  0.64923555398E+02  0.16164203428E+03  0.90253932712E+02 0.  0.
         24    2    1    2    0    0 -0.10781568653E+03 -0.81407640593E+02  0.45807596167E+02  0.16756896947E+03  0.87918129269E+02 0.  0.
        -13    1    4    4    0    0  0.96116818964E+01 -0.29266800598E+02  0.19387279741E+02  0.36397756275E+02  0.00000000000E+00 0.  1.
         14    1    4    4    0    0 -0.11742736843E+03 -0.52140839996E+02  0.26420316426E+02  0.13117121320E+03  0.00000000000E+00 0. -1.
        -13    1    3    3    0    0  0.15045430061E+02  0.14054110252E+02  0.61358586099E+02  0.64720623211E+02  0.00000000000E+00 0.  1.
         13    1    3    3    0    0  0.62806265220E+02  0.73732109471E+02  0.35649692985E+01  0.96921411071E+02  0.00000000000E+00 0. -1.
          1    1    1    2  501    0  0.29963991254E+02 -0.63785791299E+01  0.13112412624E+02  0.33323601372E+02  0.00000000000E+00 0. -1.
<scales pt_clust_5="13000.00000" pt_clust_6="13000.00000" pt_clust_7="13000.00000" pt_clust_8="13000.00000" pt_clust_9="30.63540"></scales>
<clustering>
<clus scale="   30.635">  2  9  1 -1</clus>
<clus scale="   87.918">  5  6 -1 -1</clus>
<clus scale="   90.254">  7  8 -1 -1</clus>
<clus scale="  152.481">  2  5  1 -1</clus>
<clus scale="   30.635">  2  5  1 -1</clus>
</clustering>
</event>
<event>
 9    2  0.3745229E-005  0.1409812E+03  0.7546771E-02  0.1214252E+00
         21   -1    0    0  501  502  0.00000000000E+00  0.00000000000E+00  0.10892626222E+03  0.10892626222E+03  0.00000000000E+00 0. -1.
          2   -1    0    0  502    0 -0.00000000000E+00 -0.00000000000E+00 -0.65237275870E+03  0.65237275870E+03  0.00000000000E+00 0. -1.
         23    2    1    2    0    0  0.24839371006E+02  0.98660264709E+02 -0.45997246705E+03  0.47964132574E+03  0.90168113674E+02 0.  0.
         24    2    1    2    0    0  0.33814225636E+02 -0.16059014674E+03 -0.69779875279E+02  0.19526854919E+03  0.79548590326E+02 0.  0.
        -11    1    4    4    0    0 -0.20020064842E+02 -0.44013844990E+02  0.15548531948E+01  0.48378085075E+02  0.00000000000E+00 0.  1.
         12    1    4    4    0    0  0.53834290478E+02 -0.11657630175E+03 -0.71334728474E+02  0.14689046412E+03  0.00000000000E+00 0. -1.
        -11    1    3    3    0    0 -0.34002408248E+01  0.23698220797E+02 -0.16702386183E+02  0.29191385900E+02  0.00000000000E+00 0.  1.
         11    1    3    3    0    0  0.28239611831E+02  0.74962043912E+02 -0.44327008087E+03  0.45044993984E+03  0.00000000000E+00 0. -1.
          1    1    1    2  501    0 -0.58653596642E+02  0.61929882034E+02 -0.13694154152E+02  0.86389145995E+02  0.00000000000E+00 0. -1.
<scales pt_clust_5="13000.00000" pt_clust_6="13000.00000" pt_clust_7="13000.00000" pt_clust_8="13000.00000" pt_clust_9="85.29686"></scales>
<clustering>
<clus scale="   79.549">  5  6 -1 -1</clus>
<clus scale="   85.297">  1  9  2 -1</clus>
<clus scale="   90.168">  7  8 -1 -1</clus>
<clus scale="  134.437">  1  5  2 -1</clus>
<clus scale="   85.297">  1  5  2 -1</clus>
</clustering>
</event>
<event>
 9    2  0.3745229E-005  0.1356315E+03  0.7546771E-02  0.1233915E+00
         21   -1    0    0  501  502  0.00000000000E+00  0.00000000000E+00  0.49258608616E+03  0.49258608616E+03  0.00000000000E+00 0. -1.
          2   -1    0    0  502    0 -0.00000000000E+00 -0.00000000000E+00 -0.72390262739E+02  0.72390262739E+02  0.00000000000E+00 0. -1.
         24    2    1    2    0    0  0.32463579587E+02 -0.56634124801E+02  0.46817718270E+02  0.11502616097E+03  0.82327461221E+02 0.  0.
         23    2    1    2    0    0  0.57961214809E+02  0.57428901039E+02  0.15734603385E+03  0.21575554465E+03  0.12302479255E+03 0.  0.
        -11    1    3    3    0    0 -0.20652148026E+02 -0.75885193213E+01 -0.89168185015E+01  0.23740397970E+02  0.00000000000E+00 0.  1.
         12    1    3    3    0    0  0.53115727613E+02 -0.49045605480E+02  0.55734536772E+02  0.91285762997E+02  0.00000000000E+00 0. -1.
        -13    1    4    4    0    0 -0.11792998780E+02  0.45369203861E+02  0.42295957477E+01  0.47067281198E+02  0.00000000000E+00 0.  1.
         13    1    4    4    0    0  0.69754213589E+02  0.12059697178E+02  0.15311643810E+03  0.16868826345E+03  0.00000000000E+00 0. -1.
          1    1    1    2  501    0 -0.90424794396E+02 -0.79477623822E+00  0.21603207130E+03  0.23419464328E+03  0.00000000000E+00 0. -1.
<scales pt_clust_5="13000.00000" pt_clust_6="13000.00000" pt_clust_7="13000.00000" pt_clust_8="13000.00000" pt_clust_9="90.42829"></scales>
<clustering>
<clus scale="   82.327">  5  6 -1 -1</clus>
<clus scale="   90.428">  1  9  2 -1</clus>
<clus scale="  100.193">  2  5  1 -1</clus>
<clus scale="  123.025">  7  8 -1 -1</clus>
<clus scale="   90.428">  1  5  2 -1</clus>
</clustering>
</event>
<event>
 9    2  0.3745229E-005  0.1477376E+03  0.7546771E-02  0.1222856E+00
         21   -1    0    0  501  502  0.00000000000E+00  0.00000000000E+00  0.97338048813E+02  0.97338048813E+02  0.00000000000E+00 0.  1.
          4   -1    0    0  502    0 -0.00000000000E+00 -0.00000000000E+00 -0.61899631508E+03  0.61899631508E+03  0.00000000000E+00 0. -1.
         23    2    1    2    0    0 -0.32945791373E+02 -0.11821161941E+02 -0.25831529320E+03  0.27609405248E+03  0.90972358838E+02 0.  0.
         24    2    1    2    0    0 -0.11635332110E+03 -0.12408461666E+02 -0.61837723109E+01  0.14189796749E+03  0.80029550087E+02 0.  0.
        -13    1    4    4    0    0 -0.11598982612E+03 -0.14991512806E+02  0.17337310996E+02  0.11823268402E+03  0.00000000000E+00 0.  1.
         14    1    4    4    0    0 -0.36349498277E+00  0.25830511400E+01 -0.23521083307E+02  0.23665283471E+02  0.00000000000E+00 0. -1.
        -13    1    3    3    0    0 -0.12510074256E+02  0.38661977512E+02 -0.81297078073E+02  0.90887102310E+02  0.00000000000E+00 0. -1.
         13    1    3    3    0    0 -0.20435717117E+02 -0.50483139453E+02 -0.17701821513E+03  0.18520695017E+03  0.00000000000E+00 0.  1.
          3    1    1    2  501    0  0.14929911247E+03  0.24229623608E+02 -0.25715920076E+03  0.29834234392E+03  0.00000000000E+00 0. -1.
<scales pt_clust_5="13000.00000" pt_clust_6="13000.00000" pt_clust_7="13000.00000" pt_clust_8="13000.00000" pt_clust_9="124.18410"></scales>
<clustering>
<clus scale="   80.030">  5  6 -1 -1</clus>
<clus scale="   90.972">  7  8 -1 -1</clus>
<clus scale="   97.474">  2  7  1 -1</clus>
<clus scale="  124.184">  1  9  2 -1</clus>
<clus scale="  124.184">  1  5  2 -1</clus>
</clustering>
</event>
<event>
 9    2  0.3745229E-005  0.9529834E+02  0.7546771E-02  0.1298850E+00
         21   -1    0    0  501  502  0.00000000000E+00  0.00000000000E+00  0.38698972980E+03  0.38698972980E+03  0.00000000000E+00 0.  1.
         -3   -1    0    0    0  501 -0.00000000000E+00 -0.00000000000E+00 -0.47979061516E+02  0.47979061516E+02  0.00000000000E+00 0.  1.
         23    2    1    2    0    0 -0.13601641289E+02  0.18221907076E+02  0.28587674603E+02  0.99552558989E+02  0.92608932176E+02 0.  0.
         24    2    1    2    0    0 -0.11924450489E+02 -0.29946788438E+02  0.14796355395E+03  0.17054621152E+03  0.78446123602E+02 0.  0.
        -13    1    4    4    0    0 -0.40988953280E+02 -0.36572684329E+02  0.99115823574E+02  0.11332079250E+03  0.00000000000E+00 0.  1.
         14    1    4    4    0    0  0.29064502791E+02  0.66258958912E+01  0.48847730380E+02  0.57225419021E+02  0.00000000000E+00 0. -1.
        -13    1    3    3    0    0 -0.30026940471E+01 -0.29791277201E+02 -0.15318532891E+02  0.33633224923E+02  0.00000000000E+00 0.  1.
         13    1    3    3    0    0 -0.10598947242E+02  0.48013184277E+02  0.43906207495E+02  0.65919334065E+02  0.00000000000E+00 0. -1.
         -4    1    1    2    0  502  0.25526091778E+02  0.11724881362E+02  0.16245943973E+03  0.16487002081E+03  0.00000000000E+00 0.  1.
<scales pt_clust_5="13000.00000" pt_clust_6="13000.00000" pt_clust_7="13000.00000" pt_clust_8="13000.00000" pt_clust_9="28.09011"></scales>
<clustering>
<clus scale="   28.090">  1  9  2 -1</clus>
<clus scale="   78.446">  5  6 -1 -1</clus>
<clus scale="   81.604">  1  5  2 -1</clus>
<clus scale="   92.609">  7  8 -1 -1</clus>
<clus scale="   28.090">  1  5  2 -1</clus>
</clustering>
</event>
<event>
 9    2  0.3745229E-005  0.1260508E+03  0.7546771E-02  0.1236348E+00
         21   -1    0    0  501  502  0.00000000000E+00  0.00000000000E+00  0.42095072905E+02  0.42095072905E+02  0.00000000000E+00 0.  1.
          4   -1    0    0  502    0 -0.00000000000E+00 -0.00000000000E+00 -0.10677723936E+04  0.10677723936E+04  0.00000000000E+00 0. -1.
         24    2    1    2    0    0 -0.20393656228E+02  0.95537192994E+02 -0.84539280798E+03  0.85489883825E+03  0.81361952958E+02 0.  0.
         23    2    1    2    0    0 -0.29528045218E+02 -0.47475229216E+02 -0.13362062612E+03  0.17142434691E+03  0.91684416045E+02 0.  0.
        -13    1    3    3    0    0 -0.49479360391E+02  0.75066639739E+02 -0.53876095264E+03  0.54621110534E+03  0.00000000000E+00 0.  1.
         14    1    3    3    0    0  0.29085704164E+02  0.20470553255E+02 -0.30663185535E+03  0.30868773291E+03  0.00000000000E+00 0. -1.
        -13    1    4    4    0    0 -0.74065203991E+01 -0.35699280735E+02 -0.14072891704E+03  0.14537511232E+03  0.00000000000E+00 0. -1.
         13    1    4    4    0    0 -0.22121524819E+02 -0.11775948480E+02  0.71082909238E+01  0.26049234591E+02  0.00000000000E+00 0.  1.
          3    1    1    2  501    0  0.49921701446E+02 -0.48061963778E+02 -0.46663886641E+02  0.83544281396E+02  0.00000000000E+00 0. -1.
<scales pt_clust_5="13000.00000" pt_clust_6="13000.00000" pt_clust_7="13000.00000" pt_clust_8="13000.00000" pt_clust_9="69.29739"></scales>
<clustering>
<clus scale="   69.297">  1  9  2 -1</clus>
<clus scale="   81.362">  5  6 -1 -1</clus>
<clus scale="   91.684">  7  8 -1 -1</clus>
<clus scale="  118.754">  2  5  1 -1</clus>
<clus scale="   69.297">  1  5  2 -1</clus>
</clustering>
</event>
<event>
 9    2  0.3745229E-005  0.9495275E+02  0.7546771E-02  0.1299016E+00
         21   -1    0    0  501  502  0.00000000000E+00  0.00000000000E+00  0.40948396323E+03  0.40948396323E+03  0.00000000000E+00 0. -1.
          2   -1    0    0  502    0 -0.00000000000E+00 -0.00000000000E+00 -0.34747122776E+02  0.34747122776E+02  0.00000000000E+00 0. -1.
         23    2    1    2    0    0  0.12704968970E+02  0.48553943019E+01  0.64178335196E+02  0.11362953320E+03  0.92778343471E+02 0.  0.
         24    2    1    2    0    0 -0.33242232747E+02 -0.17998681443E+02  0.22652418000E+03  0.24310130697E+03  0.79724793831E+02 0.  0.
        -11    1    4    4    0    0  0.18306133821E+02 -0.25863500100E+02  0.51431959666E+02  0.60409284452E+02  0.00000000000E+00 0.  1.
         12    1    4    4    0    0 -0.51548366567E+02  0.78648186563E+01  0.17509222034E+03  0.18269202251E+03  0.00000000000E+00 0. -1.
        -11    1    3    3    0    0 -0.25168981081E+01  0.46322941393E+02  0.47546631443E+02  0.66429149001E+02  0.00000000000E+00 0.  1.
         11    1    3    3    0    0  0.15221867078E+02 -0.41467547091E+02  0.16631703753E+02  0.47200384203E+02  0.00000000000E+00 0. -1.
          1    1    1    2  501    0  0.20537263777E+02  0.13143287141E+02  0.84034325255E+02  0.87500245836E+02  0.00000000000E+00 0. -1.
<scales pt_clust_5="13000.00000" pt_clust_6="13000.00000" pt_clust_7="13000.00000" pt_clust_8="13000.00000" pt_clust_9="24.38289"></scales>
<clustering>
<clus scale="   24.383">  1  9  2 -1</clus>
<clus scale="   79.725">  5  6 -1 -1</clus>
<clus scale="   82.245">  1  5  2 -1</clus>
<clus scale="   92.778">  7  8 -1 -1</clus>
<clus scale="   24.383">  1  5  2 -1</clus>
</clustering>
</event>
<event>
 9    2  0.3745229E-005  0.2508490E+03  0.7546771E-02  0.1152032E+00
         21   -1    0    0  501  502  0.00000000000E+00  0.00000000000E+00  0.62530446687E+02  0.62530446687E+02  0.00000000000E+00 0.  1.
          2   -1    0    0  502    0 -0.00000000000E+00 -0.00000000000E+00 -0.15062269765E+04  0.15062269765E+04  0.00000000000E+00 0. -1.
         23    2    1    2    0    0  0.39223500733E+01  0.27626335208E+02 -0.46002183055E+03  0.46993443603E+03  0.91867787342E+02 0.  0.
         24    2    1    2    0    0 -0.58633010168E+02  0.21696852797E+03 -0.51031726243E+03  0.56320449754E+03  0.79135489565E+02 0.  0.
        -11    1    4    4    0    0 -0.37458057283E+02  0.18990837785E+03 -0.47931697641E+03  0.51692655369E+03  0.00000000000E+00 0.  1.
         12    1    4    4    0    0 -0.21174952885E+02  0.27060150115E+02 -0.31000286016E+02  0.46277943850E+02  0.00000000000E+00 0. -1.
        -13    1    3    3    0    0  0.32836664363E+02  0.49692868065E+02 -0.29466805498E+03  0.30062749424E+03  0.00000000000E+00 0.  1.
         13    1    3    3    0    0 -0.28914314290E+02 -0.22066532858E+02 -0.16535377557E+03  0.16930694179E+03  0.00000000000E+00 0. -1.
          1    1    1    2  501    0  0.54710660095E+02 -0.24459486318E+03 -0.47335743685E+03  0.53561848964E+03  0.00000000000E+00 0. -1.
<scales pt_clust_5="13000.00000" pt_clust_6="13000.00000" pt_clust_7="13000.00000" pt_clust_8="13000.00000" pt_clust_9="238.03948"></scales>
<clustering>
<clus scale="   79.135">  5  6 -1 -1</clus>
<clus scale="   91.868">  7  8 -1 -1</clus>
<clus scale="   96.012">  2  7  1 -1</clus>
<clus scale="  238.039">  1  9  2 -1</clus>
<clus scale="  238.039">  1  5  2 -1</clus>
</clustering>
</event>
<event>
 9    2  0.3745229E-005  0.9602009E+02  0.7546771E-02  0.1296287E+00
          2   -1    0    0  502    0 -0.00000000000E+00  0.00000000000E+00  0.41911868072E+03  0.41911868072E+03  0.00000000000E+00 0. -1.
         21   -1    0    0  501  502  0.00000000000E+00 -0.00000000000E+00 -0.32552368999E+02  0.32552368999E+02  0.00000000000E+00 0.  1.
         23    2    1    2    0    0  0.34096419068E+02 -0.29662536949E+01  0.21316282847E+03  0.23507384257E+03  0.93005137298E+02 0.  0.
         24    2    1    2    0    0 -0.11056469106E+02 -0.20033136145E+02  0.16183250357E+03  0.18204726072E+03  0.80174022433E+02 0.  0.
        -11    1    4    4    0    0 -0.31076452779E+02 -0.42342320748E+02  0.89885731305E+02  0.10410601681E+03  0.00000000000E+00 0.  1.
         12    1    4    4    0    0  0.20019983673E+02  0.22309184603E+02  0.71946772263E+02  0.77941243915E+02  0.00000000000E+00 0. -1.
        -13    1    3    3    0    0  0.66318416254E+02 -0.40376678406E+01  0.15337159899E+03  0.16714449579E+03  0.00000000000E+00 0. -1.
         13    1    3    3    0    0 -0.32221997186E+02  0.10714141456E+01  0.59791229486E+02  0.67929346783E+02  0.00000000000E+00 0.  1.
          1    1    1    2  501    0 -0.23039949962E+02  0.22999389840E+02  0.11570979680E+02  0.34549946426E+02  0.00000000000E+00 0. -1.
<scales pt_clust_5="13000.00000" pt_clust_6="13000.00000" pt_clust_7="13000.00000" pt_clust_8="13000.00000" pt_clust_9="32.55474"></scales>
<clustering>
<clus scale="   32.555">  2  9  1 -1</clus>
<clus scale="   80.174">  5  6 -1 -1</clus>
<clus scale="   83.653">  2  5  1 -1</clus>
<clus scale="   93.005">  7  8 -1 -1</clus>
<clus scale="   32.555">  2  5  1 -1</clus>
</clustering>
</event>
<event>
 9    2  0.3745229E-005  0.9785188E+02  0.7546771E-02  0.1290364E+00
         -1   -1    0    0    0  501 -0.00000000000E+00  0.00000000000E+00  0.19808027538E+03  0.19808027538E+03  0.00000000000E+00 0.  1.
         21   -1    0    0  501  502  0.00000000000E+00 -0.00000000000E+00 -0.97464380019E+02  0.97464380019E+02  0.00000000000E+00 0.  1.
         23    2    1    2    0    0  0.29640292904E+02  0.12947811749E+01  0.11582634214E+03  0.15006080872E+03  0.90676796141E+02 0.  0.
         24    2    1    2    0    0 -0.50657787344E+02 -0.27348556054E+02  0.15614165638E+02  0.99979000913E+02  0.80236173376E+02 0.  0.
        -11    1    4    4    0    0 -0.65017852172E+02 -0.30278782329E+02  0.31526507999E+02  0.78345685695E+02  0.00000000000E+00 0.  1.
         12    1    4    4    0    0  0.14360064828E+02  0.29302262752E+01 -0.15912342361E+02  0.21633315217E+02  0.00000000000E+00 0. -1.
        -13    1    3    3    0    0 -0.80114189401E+01 -0.39258012866E+02  0.48061896713E+02  0.62572520513E+02  0.00000000000E+00 0.  1.
         13    1    3    3    0    0  0.37651711844E+02  0.40552794041E+02  0.67764445429E+02  0.87488288208E+02  0.00000000000E+00 0. -1.
         -2    1    1    2    0  502  0.21017494440E+02  0.26053774879E+02 -0.30824612415E+02  0.45504845770E+02  0.00000000000E+00 0.  1.
<scales pt_clust_5="13000.00000" pt_clust_6="13000.00000" pt_clust_7="13000.00000" pt_clust_8="13000.00000" pt_clust_9="33.47438"></scales>
<clustering>
<clus scale="   33.474">  2  9  1 -1</clus>
<clus scale="   80.236">  5  6 -1 -1</clus>
<clus scale="   88.264">  2  5  1 -1</clus>
<clus scale="   90.677">  7  8 -1 -1</clus>
<clus scale="   33.474">  2  5  1 -1</clus>
</clustering>
</event>
<event>
 9    2  0.3745229E-005  0.1473539E+03  0.7546771E-02  0.1205046E+00
          4   -1    0    0  502    0 -0.00000000000E+00  0.00000000000E+00  0.40773575551E+03  0.40773575551E+03  0.00000000000E+00 0. -1.
         21   -1    0    0  501  502  0.00000000000E+00 -0.00000000000E+00 -0.16181644004E+03  0.16181644004E+03  0.00000000000E+00 0.  1.
         23    2    1    2    0    0  0.98300213944E+02  0.22778987275E+02  0.18570658705E+03  0.23194394937E+03  0.95547081859E+02 0.  0.
         24    2    1    2    0    0 -0.12649220898E+03 -0.72922856330E+02 -0.73227341494E+02  0.19229668971E+03  0.10147783710E+03 0.  0.
        -13    1    4    4    0    0 -0.33426575302E+02 -0.89481522948E+01 -0.71405737586E+02  0.79348501726E+02  0.00000000000E+00 0.  1.
         14    1    4    4    0    0 -0.93065633675E+02 -0.63974704035E+02 -0.18216039081E+01  0.11294818798E+03  0.00000000000E+00 0. -1.
        -13    1    3    3    0    0  0.70032755279E+00 -0.28598699189E+02  0.35535136560E+02  0.45619315913E+02  0.00000000000E+00 0.  1.
         13    1    3    3    0    0  0.97599886391E+02  0.51377686464E+02  0.15017145049E+03  0.18632463346E+03  0.00000000000E+00 0. -1.
          3    1    1    2  501    0  0.28191995033E+02  0.50143869055E+02  0.13344006991E+03  0.14531155648E+03  0.00000000000E+00 0. -1.
<scales pt_clust_5="13000.00000" pt_clust_6="13000.00000" pt_clust_7="13000.00000" pt_clust_8="13000.00000" pt_clust_9="57.52564"></scales>
<clustering>
<clus scale="   57.526">  2  9  1 -1</clus>
<clus scale="   95.547">  7  8 -1 -1</clus>
<clus scale="  101.478">  5  6 -1 -1</clus>
<clus scale="  143.334">  1  7  2 -1</clus>
<clus scale="   57.526">  2  5  1 -1</clus>
</clustering>
</event>
<event>
 9    2  0.3745229E-005  0.1554061E+03  0.7546771E-02  0.1197751E+00
         21   -1    0    0  501  502  0.00000000000E+00  0.00000000000E+00  0.13512823471E+03  0.13512823471E+03  0.00000000000E+00 0.  1.
          2   -1    0    0  502    0 -0.00000000000E+00 -0.00000000000E+00 -0.63287533080E+03  0.63287533080E+03  0.00000000000E+00 0. -1.
         24    2    1    2    0    0  0.25504791167E+02  0.11584070913E+03 -0.67177388046E+02  0.15809315618E+03  0.80069221949E+02 0.  0.
         23    2    1    2    0    0  0.11830757573E+03 -0.46140019901E+02 -0.65500209157E+01  0.15677369924E+03  0.91703359203E+02 0.  0.
        -13    1    3    3    0    0  0.16694199755E+02  0.12595712913E+03 -0.50589874276E+02  0.13675975308E+03  0.00000000000E+00 0.  1.
         14    1    3    3    0    0  0.88105914115E+01 -0.10116420003E+02 -0.16587513770E+02  0.21333403099E+02  0.00000000000E+00 0. -1.
        -13    1    4    4    0    0  0.72426993042E+02 -0.51407447219E+01  0.36900986574E+02  0.81448016474E+02  0.00000000000E+00 0.  1.
         13    1    4    4    0    0  0.45880582687E+02 -0.40999275179E+02 -0.43451007489E+02  0.75325682770E+02  0.00000000000E+00 0. -1.
          1    1    1    2  501    0 -0.14381236690E+03 -0.69700689225E+02 -0.42401968713E+03  0.45313671008E+03  0.00000000000E+00 0. -1.
<scales pt_clust_5="13000.00000" pt_clust_6="13000.00000" pt_clust_7="13000.00000" pt_clust_8="13000.00000" pt_clust_9="125.46545"></scales>
<clustering>
<clus scale="   80.069">  5  6 -1 -1</clus>
<clus scale="   91.703">  7  8 -1 -1</clus>
<clus scale="  143.111">  2  5  1 -1</clus>
<clus scale="  125.465">  1  9  2 -1</clus>
<clus scale="  125.465">  1  5  2 -1</clus>
</clustering>
</event>
<event>
 9    2  0.3745229E-005  0.1010028E+03  0.7546771E-02  0.1283066E+00
         21   -1    0    0  501  502  0.00000000000E+00  0.00000000000E+00  0.27131377038E+03  0.27131377038E+03  0.00000000000E+00 0. -1.
         -1   -1    0    0    0  501 -0.00000000000E+00 -0.00000000000E+00 -0.72142129510E+02  0.72142129510E+02  0.00000000000E+00 0.  1.
         23    2    1    2    0    0 -0.26675338224E+02  0.44754985456E+02 -0.44201765822E+01  0.10439010769E+03  0.90350286280E+02 0.  0.
         24    2    1    2    0    0 -0.53245224450E+00 -0.32260493515E+02  0.10505601240E+03  0.13608190477E+03  0.80252701628E+02 0.  0.
        -11    1    4    4    0    0  0.20796996928E+02 -0.19259092198E+02  0.10731985260E+03  0.11099990305E+03  0.00000000000E+00 0.  1.
         12    1    4    4    0    0 -0.21329449172E+02 -0.13001401317E+02 -0.22638402047E+01  0.25082001728E+02  0.00000000000E+00 0. -1.
        -11    1    3    3    0    0 -0.59866101940E+02  0.35323675465E+02  0.65838873860E+00  0.69513636688E+02  0.00000000000E+00 0. -1.
         11    1    3    3    0    0  0.33190763715E+02  0.94313099909E+01 -0.50785653208E+01  0.34876471007E+02  0.00000000000E+00 0.  1.
         -2    1    1    2    0  502  0.27207790469E+02 -0.12494491941E+02  0.98535805058E+02  0.10298388743E+03  0.00000000000E+00 0.  1.
<scales pt_clust_5="13000.00000" pt_clust_6="13000.00000" pt_clust_7="13000.00000" pt_clust_8="13000.00000" pt_clust_9="29.93954"></scales>
<clustering>
<clus scale="   29.940">  1  9  2 -1</clus>
<clus scale="   80.253">  5  6 -1 -1</clus>
<clus scale="   90.350">  7  8 -1 -1</clus>
<clus scale="   92.081">  1  5  2 -1</clus>
<clus scale="   29.940">  1  5  2 -1</clus>
</clustering>
</event>
<event>
 9    2  0.3745229E-005  0.2494950E+03  0.7546771E-02  0.1157169E+00
         21   -1    0    0  501  502  0.00000000000E+00  0.00000000000E+00  0.10575421708E+03  0.10575421708E+03  0.00000000000E+00 0. -1.
          2   -1    0    0  502    0 -0.00000000000E+00 -0.00000000000E+00 -0.79050795369E+03  0.79050795369E+03  0.00000000000E+00 0. -1.
         24    2    1    2    0    0  0.27334903243E+02  0.11660283033E+02 -0.10842125329E+03  0.13869055865E+03  0.81220340795E+02 0.  0.
         23    2    1    2    0    0 -0.14073443602E+03  0.18835273953E+03 -0.22565248078E+03  0.33823746444E+03  0.90568230058E+02 0.  0.
        -13    1    3    3    0    0  0.46307141588E+02 -0.14909923837E+02 -0.86889230267E+02  0.99581100252E+02  0.00000000000E+00 0.  1.
         14    1    3    3    0    0 -0.18972238345E+02  0.26570206870E+02 -0.21532023019E+02  0.39109458399E+02  0.00000000000E+00 0. -1.
        -11    1    4    4    0    0 -0.23476835637E+02 -0.33246188304E+01 -0.70269534990E+01  0.24730405928E+02  0.00000000000E+00 0. -1.
         11    1    4    4    0    0 -0.11725760039E+03  0.19167735836E+03 -0.21862552728E+03  0.31350705851E+03  0.00000000000E+00 0.  1.
          1    1    1    2  501    0  0.11339953278E+03 -0.20001302256E+03 -0.35068000254E+03  0.41933414768E+03  0.00000000000E+00 0. -1.
<scales pt_clust_5="13000.00000" pt_clust_6="13000.00000" pt_clust_7="13000.00000" pt_clust_8="13000.00000" pt_clust_9="232.47619"></scales>
<clustering>
<clus scale="   81.220">  5  6 -1 -1</clus>
<clus scale="   86.486">  2  5  1 -1</clus>
<clus scale="   90.568">  7  8 -1 -1</clus>
<clus scale="  232.476">  1  9  2 -1</clus>
<clus scale="  232.476">  1  5  2 -1</clus>
</clustering>
</event>
<event>
 9    2  0.3745229E-005  0.1117379E+03  0.7546771E-02  0.1262324E+00
         21   -1    0    0  501  502  0.00000000000E+00  0.00000000000E+00  0.71164613474E+02  0.71164613474E+02  0.00000000000E+00 0. -1.
         -3   -1    0    0    0  501 -0.00000000000E+00 -0.00000000000E+00 -0.34009134195E+03  0.34009134195E+03  0.00000000000E+00 0.  1.
         24    2    1    2    0    0  0.61817045340E+02 -0.33512946485E+02 -0.10142542944E+03  0.14520008650E+03  0.76494984834E+02 0.  0.
         23    2    1    2    0    0 -0.60071364298E+02  0.94035857491E+01 -0.12435971513E+02  0.10911777770E+03  0.89749873482E+02 0.  0.
        -11    1    3    3    0    0  0.68369200209E+02 -0.18014947275E+02 -0.10631459147E+03  0.12767802560E+03  0.00000000000E+00 0.  1.
         12    1    3    3    0    0 -0.65521548682E+01 -0.15497999210E+02  0.48891620208E+01  0.17522060900E+02  0.00000000000E+00 0. -1.
        -11    1    4    4    0    0 -0.47202437621E+02 -0.37136811157E+02 -0.50901424940E+01  0.60275388102E+02  0.00000000000E+00 0.  1.
         11    1    4    4    0    0 -0.12868926678E+02  0.46540396907E+02 -0.73458290186E+01  0.48842389602E+02  0.00000000000E+00 0. -1.
         -4    1    1    2    0  502 -0.17456810422E+01  0.24109360736E+02 -0.15506532751E+03  0.15693809122E+03  0.00000000000E+00 0.  1.
<scales pt_clust_5="13000.00000" pt_clust_6="13000.00000" pt_clust_7="13000.00000" pt_clust_8="13000.00000" pt_clust_9="24.17249"></scales>
<clustering>
<clus scale="   24.172">  1  9  2 -1</clus>
<clus scale="   76.495">  5  6 -1 -1</clus>
<clus scale="   89.750">  7  8 -1 -1</clus>
<clus scale="  101.399">  2  5  1 -1</clus>
<clus scale="   24.172">  1  5  2 -1</clus>
</clustering>
</event>
<event>
 9    2  0.3745229E-005  0.9486415E+02  0.7546771E-02  0.1296100E+00
         21   -1    0    0  501  502  0.00000000000E+00  0.00000000000E+00  0.94970483399E+02  0.94970483399E+02  0.00000000000E+00 0.  1.
         -3   -1    0    0    0  501 -0.00000000000E+00 -0.00000000000E+00 -0.24426381442E+03  0.24426381442E+03  0.00000000000E+00 0.  1.
         24    2    1    2    0    0 -0.19596851083E+02 -0.51006456740E+01 -0.11317862000E+03  0.14118438498E+03  0.81936422784E+02 0.  0.
         23    2    1    2    0    0  0.22783142039E+02  0.78161068208E+02 -0.25536392509E+02  0.12415892142E+03  0.90194824025E+02 0.  0.
        -13    1    3    3    0    0  0.23505302484E+02  0.18540158821E+02 -0.68495175876E+02  0.74751761533E+02  0.00000000000E+00 0.  1.
         14    1    3    3    0    0 -0.43102153567E+02 -0.23640804495E+02 -0.44683444121E+02  0.66432623445E+02  0.00000000000E+00 0. -1.
        -11    1    4    4    0    0 -0.13097912658E+02  0.35381084557E+02  0.27861399775E+02  0.46900256480E+02  0.00000000000E+00 0.  1.
         11    1    4    4    0    0  0.35881054697E+02  0.42779983651E+02 -0.53397792284E+02  0.77258664939E+02  0.00000000000E+00 0. -1.
         -4    1    1    2    0  502 -0.31862909562E+01 -0.73060422535E+02 -0.10578318518E+02  0.73890991424E+02  0.00000000000E+00 0.  1.
<scales pt_clust_5="13000.00000" pt_clust_6="13000.00000" pt_clust_7="13000.00000" pt_clust_8="13000.00000" pt_clust_9="73.12987"></scales>
<clustering>
<clus scale="   73.130">  1  9  2 -1</clus>
<clus scale="   81.936">  5  6 -1 -1</clus>
<clus scale="   87.050">  2  5  1 -1</clus>
<clus scale="   90.195">  7  8 -1 -1</clus>
<clus scale="   73.130">  1  5  2 -1</clus>
</clustering>
</event>
<event>
 9    2  0.3745229E-005  0.9281026E+02  0.7546771E-02  0.1302851E+00
         21   -1    0    0  501  502  0.00000000000E+00  0.00000000000E+00  0.11619410895E+03  0.11619410895E+03  0.00000000000E+00 0. -1.
         -3   -1    0    0    0  501 -0.00000000000E+00 -0.00000000000E+00 -0.21468306683E+03  0.21468306683E+03  0.00000000000E+00 0.  1.
         23    2    1    2    0    0  0.12173459839E+02 -0.57642645510E+01 -0.16206512322E+03  0.18667491085E+03  0.91656959934E+02 0.  0.
         24    2    1    2    0    0 -0.29756958405E+02 -0.27625754420E+02  0.53895686447E+02  0.10524351162E+03  0.80763808969E+02 0.  0.
        -11    1    4    4    0    0 -0.14682088709E+02  0.23643804853E+02 -0.20110942074E+01  0.27904081004E+02  0.00000000000E+00 0.  1.
         12    1    4    4    0    0 -0.15074869696E+02 -0.51269559273E+02  0.55906780655E+02  0.77339430613E+02  0.00000000000E+00 0. -1.
        -13    1    3    3    0    0  0.21479057997E+02  0.24221837180E+02 -0.14932121279E+03  0.15279028739E+03  0.00000000000E+00 0.  1.
         13    1    3    3    0    0 -0.93055981571E+01 -0.29986101731E+02 -0.12743910426E+02  0.33884623460E+02  0.00000000000E+00 0. -1.
         -4    1    1    2    0  502  0.17583498565E+02  0.33390018971E+02  0.96804788935E+01  0.38958753320E+02  0.00000000000E+00 0.  1.
<scales pt_clust_5="13000.00000" pt_clust_6="13000.00000" pt_clust_7="13000.00000" pt_clust_8="13000.00000" pt_clust_9="37.73689"></scales>
<clustering>
<clus scale="   37.737">  1  9  2 -1</clus>
<clus scale="   80.764">  5  6 -1 -1</clus>
<clus scale="   82.070">  1  5  2 -1</clus>
<clus scale="   91.657">  7  8 -1 -1</clus>
<clus scale="   37.737">  1  5  2 -1</clus>
</clustering>
</event>
<event>
 9    2  0.3745229E-005  0.9765133E+02  0.7546771E-02  0.1290640E+00
          2   -1    0    0  502    0 -0.00000000000E+00  0.00000000000E+00  0.82100095009E+03  0.82100095009E+03  0.00000000000E+00 0. -1.
         21   -1    0    0  501  502  0.00000000000E+00 -0.00000000000E+00 -0.31364687151E+02  0.31364687151E+02  0.00000000000E+00 0.  1.
         24    2    1    2    0    0 -0.34226056504E+02  0.14802367774E+02  0.53626779628E+03  0.54330783472E+03  0.78801782374E+02 0.  0.
         23    2    1    2    0    0  0.24253622057E+02 -0.53599457764E+02  0.24620913916E+03  0.26836481036E+03  0.89104383613E+02 0.  0.
        -11    1    3    3    0    0  0.19982206033E+02 -0.14126651524E+02  0.11433262217E+03  0.11692219351E+03  0.00000000000E+00 0.  1.
         12    1    3    3    0    0 -0.54208262537E+02  0.28929019297E+02  0.42193517411E+03  0.42638564121E+03  0.00000000000E+00 0. -1.
        -11    1    4    4    0    0  0.13932413654E+02 -0.77076127100E+02  0.20881714318E+03  0.22302340865E+03  0.00000000000E+00 0.  1.
         11    1    4    4    0    0  0.10321208403E+02  0.23476669336E+02  0.37391995982E+02  0.45341401715E+02  0.00000000000E+00 0. -1.
          1    1    1    2  501    0  0.99724344464E+01  0.38797089990E+02  0.71593274957E+01  0.40692992157E+02  0.00000000000E+00 0. -1.
<scales pt_clust_5="13000.00000" pt_clust_6="13000.00000" pt_clust_7="13000.00000" pt_clust_8="13000.00000" pt_clust_9="40.05825"></scales>
<clustering>
<clus scale="   40.058">  2  9  1 -1</clus>
<clus scale="   78.802">  5  6 -1 -1</clus>
<clus scale="   88.351">  1  5  2 -1</clus>
<clus scale="   89.104">  7  8 -1 -1</clus>
<clus scale="   40.058">  2  5  1 -1</clus>
</clustering>
</event>
<event>
 9    2  0.3745229E-005  0.1108889E+03  0.7546771E-02  0.1262897E+00
          2   -1    0    0  502    0 -0.00000000000E+00  0.00000000000E+00  0.24549446260E+03  0.24549446260E+03  0.00000000000E+00 0. -1.
         21   -1    0    0  501  502  0.00000000000E+00 -0.00000000000E+00 -0.12909261360E+03  0.12909261360E+03  0.00000000000E+00 0. -1.
         24    2    1    2    0    0  0.17398563937E+01 -0.10043308132E+03  0.12018032670E+03  0.17639096786E+03  0.81121092768E+02 0.  0.
         23    2    1    2    0    0 -0.27896569932E+02  0.10828706021E+02  0.27038312811E+02  0.99896605232E+02  0.91393554965E+02 0.  0.
        -13    1    3    3    0    0  0.38378915610E+02 -0.68174881676E+02  0.88852317462E+02  0.11838703465E+03  0.00000000000E+00 0.  1.
         14    1    3    3    0    0 -0.36639059216E+02 -0.32258199645E+02  0.31328009237E+02  0.58003933206E+02  0.00000000000E+00 0. -1.
        -13    1    4    4    0    0 -0.21130824192E+02  0.49023477316E+02  0.29567250978E+02  0.61024875171E+02  0.00000000000E+00 0.  1.
         13    1    4    4    0    0 -0.67657457399E+01 -0.38194771295E+02 -0.25289381667E+01  0.38871730061E+02  0.00000000000E+00 0. -1.
          1    1    1    2  501    0  0.26156713538E+02  0.89604375300E+02 -0.30816790511E+02  0.98299503118E+02  0.00000000000E+00 0. -1.
<scales pt_clust_5="13000.00000" pt_clust_6="13000.00000" pt_clust_7="13000.00000" pt_clust_8="13000.00000" pt_clust_9="93.34408"></scales>
<clustering>
<clus scale="   81.121">  5  6 -1 -1</clus>
<clus scale="   91.394">  7  8 -1 -1</clus>
<clus scale="   93.344">  2  9  1 -1</clus>
<clus scale="  102.588">  1  5  2 -1</clus>
<clus scale="   93.344">  2  5  1 -1</clus>
</clustering>
</event>
<event>
 9    2  0.3745229E-005  0.1301606E+03  0.7546771E-02  0.1228770E+00
         -1   -1    0    0    0  501 -0.00000000000E+00  0.00000000000E+00  0.34653405306E+03  0.34653405306E+03  0.00000000000E+00 0.  1.
         21   -1    0    0  501  502  0.00000000000E+00 -0.00000000000E+00 -0.92185222385E+02  0.92185222385E+02  0.00000000000E+00 0. -1.
         24    2    1    2    0    0 -0.57990960743E+02 -0.68069708836E+02  0.19988630179E+03  0.23498682490E+03  0.85251612578E+02 0.  0.
         23    2    1    2    0    0  0.26169205168E+02  0.10812353954E+03  0.50287382709E+02  0.15240638184E+03  0.91232435378E+02 0.  0.
        -11    1    3    3    0    0  0.15025521604E+02 -0.42214096260E+02  0.57528611938E+02  0.72920075521E+02  0.00000000000E+00 0.  1.
         12    1    3    3    0    0 -0.73016482348E+02 -0.25855612576E+02  0.14235768985E+03  0.16206674938E+03  0.00000000000E+00 0. -1.
        -11    1    4    4    0    0  0.31580069141E+02 -0.17511477335E+01  0.22877468433E+02  0.39035187296E+02  0.00000000000E+00 0.  1.
         11    1    4    4    0    0 -0.54108639736E+01  0.10987468727E+03  0.27409914277E+02  0.11337119455E+03  0.00000000000E+00 0. -1.
         -2    1    1    2    0  502  0.31821755575E+02 -0.40053830704E+02  0.41751461750E+01  0.51326068694E+02  0.00000000000E+00 0.  1.
<scales pt_clust_5="13000.00000" pt_clust_6="13000.00000" pt_clust_7="13000.00000" pt_clust_8="13000.00000" pt_clust_9="51.15597"></scales>
<clustering>
<clus scale="   51.156">  2  9  1 -1</clus>
<clus scale="   85.252">  5  6 -1 -1</clus>
<clus scale="   91.232">  7  8 -1 -1</clus>
<clus scale="  126.041">  1  5  2 -1</clus>
<clus scale="   51.156">  2  5  1 -1</clus>
</clustering>
</event>
<event>
 9    2  0.3745229E-005  0.9974380E+02  0.7546771E-02  0.1282623E+00
         21   -1    0    0  501  502  0.00000000000E+00  0.00000000000E+00  0.73928311696E+02  0.73928311696E+02  0.00000000000E+00 0. -1.
         -1   -1    0    0    0  501 -0.00000000000E+00 -0.00000000000E+00 -0.30761759018E+03  0.30761759018E+03  0.00000000000E+00 0.  1.
         23    2    1    2    0    0  0.18128262877E+02 -0.51019193818E+02 -0.24348028992E+03  0.26355490454E+03  0.85128984916E+02 0.  0.
         24    2    1    2    0    0  0.54682127937E+01  0.45154215071E+02  0.50115727685E+01  0.93211274296E+02  0.81206042290E+02 0.  0.
        -13    1    4    4    0    0  0.24568485291E+02 -0.15504040043E+02 -0.25781269172E+01  0.29165604152E+02  0.00000000000E+00 0.  1.
         14    1    4    4    0    0 -0.19100272497E+02  0.60658255114E+02  0.75896996857E+01  0.64045670144E+02  0.00000000000E+00 0. -1.
        -11    1    3    3    0    0 -0.13787461444E+02  0.18586449984E+02 -0.75009446082E+02  0.78498198817E+02  0.00000000000E+00 0.  1.
         11    1    3    3    0    0  0.31915724321E+02 -0.69605643802E+02 -0.16847084384E+03  0.18505670572E+03  0.00000000000E+00 0. -1.
         -2    1    1    2    0  502 -0.23596475671E+02  0.58649787471E+01  0.47794386737E+01  0.24779723037E+02  0.00000000000E+00 0.  1.
<scales pt_clust_5="13000.00000" pt_clust_6="13000.00000" pt_clust_7="13000.00000" pt_clust_8="13000.00000" pt_clust_9="24.31443"></scales>
<clustering>
<clus scale="   24.314">  1  9  2 -1</clus>
<clus scale="   81.206">  5  6 -1 -1</clus>
<clus scale="   85.129">  7  8 -1 -1</clus>
<clus scale="   96.417">  1  5  2 -1</clus>
<clus scale="   24.314">  1  5  2 -1</clus>
</clustering>
</event>
<event>
 9    2  0.3745229E-005  0.9553232E+02  0.7546771E-02  0.1294394E+00
         21   -1    0    0  501  502  0.00000000000E+00  0.00000000000E+00  0.26755746127E+03  0.26755746127E+03  0.00000000000E+00 0. -1.
          2   -1    0    0  502    0 -0.00000000000E+00 -0.00000000000E+00 -0.10470890320E+03  0.10470890320E+03  0.00000000000E+00 0. -1.
         23    2    1    2    0    0 -0.40802822265E+02 -0.12554154643E+02 -0.32078278108E+02  0.10383908465E+03  0.89056512789E+02 0.  0.
         24    2    1    2    0    0  0.14223740928E+02 -0.60597844571E+02  0.80308105993E+02  0.12988084045E+03  0.80902578798E+02 0.  0.
        -11    1    4    4    0    0  0.12612886632E+02 -0.19570155239E+02 -0.13898458336E+02  0.27115365190E+02  0.00000000000E+00 0.  1.
         12    1    4    4    0    0  0.16108542961E+01 -0.41027689332E+02  0.94206564329E+02  0.10276547526E+03  0.00000000000E+00 0. -1.
        -11    1    3    3    0    0 -0.64987110069E+02 -0.26690695274E+02 -0.27546082322E+02  0.75461939683E+02  0.00000000000E+00 0. -1.
         11    1    3    3    0    0  0.24184287804E+02  0.14136540632E+02 -0.45321957864E+01  0.28377144963E+02  0.00000000000E+00 0.  1.
          1    1    1    2  501    0  0.26579081337E+02  0.73151999213E+02  0.11461873018E+03  0.13854643937E+03  0.00000000000E+00 0. -1.
<scales pt_clust_5="13000.00000" pt_clust_6="13000.00000" pt_clust_7="13000.00000" pt_clust_8="13000.00000" pt_clust_9="77.83099"></scales>
<clustering>
<clus scale="   77.831">  1  9  2 -1</clus>
<clus scale="   80.903">  5  6 -1 -1</clus>
<clus scale="   87.981">  1  5  2 -1</clus>
<clus scale="   89.057">  7  8 -1 -1</clus>
<clus scale="   77.831">  1  5  2 -1</clus>
</clustering>
</event>
<event>
 9    2  0.3745229E-005  0.9907775E+02  0.7546771E-02  0.1286708E+00
          2   -1    0    0  502    0 -0.00000000000E+00  0.00000000000E+00  0.30960508047E+03  0.30960508047E+03  0.00000000000E+00 0. -1.
         21   -1    0    0  501  502  0.00000000000E+00 -0.00000000000E+00 -0.98540390106E+02  0.98540390106E+02  0.00000000000E+00 0. -1.
         23    2    1    2    0    0  0.77979656401E+01  0.43912585103E+02  0.25642863060E+03  0.27568965375E+03  0.90884647763E+02 0.  0.
         24    2    1    2    0    0  0.13259600609E+02 -0.14125060141E+02 -0.16489213393E+02  0.85931977888E+02  0.82079695011E+02 0.  0.
        -11    1    4    4    0    0  0.31111710771E+02 -0.41137261821E+02 -0.14077718768E+02  0.53463960037E+02  0.00000000000E+00 0.  1.
         12    1    4    4    0    0 -0.17852110162E+02  0.27012201680E+02 -0.24114946251E+01  0.32468017851E+02  0.00000000000E+00 0. -1.
        -11    1    3    3    0    0 -0.99969645169E+01  0.69420251243E+02  0.17738431114E+03  0.19074670226E+03  0.00000000000E+00 0. -1.
         11    1    3    3    0    0  0.17794930157E+02 -0.25507666140E+02  0.79044319453E+02  0.84942951497E+02  0.00000000000E+00 0.  1.
          1    1    1    2  501    0 -0.21057566249E+02 -0.29787524963E+02 -0.28874726835E+02  0.46523838938E+02  0.00000000000E+00 0. -1.
<scales pt_clust_5="13000.00000" pt_clust_6="13000.00000" pt_clust_7="13000.00000" pt_clust_8="13000.00000" pt_clust_9="36.47900"></scales>
<clustering>
<clus scale="   36.479">  2  9  1 -1</clus>
<clus scale="   82.080">  5  6 -1 -1</clus>
<clus scale="   90.885">  7  8 -1 -1</clus>
<clus scale="   91.068">  2  5  1 -1</clus>
<clus scale="   36.479">  2  5  1 -1</clus>
</clustering>
</event>
<event>
 9    2  0.3745229E-005  0.9040754E+02  0.7546771E-02  0.1306361E+00
         21   -1    0    0  501  502  0.00000000000E+00  0.00000000000E+00  0.26355298205E+03  0.26355298205E+03  0.00000000000E+00 0. -1.
          2   -1    0    0  502    0 -0.00000000000E+00 -0.00000000000E+00 -0.25699518779E+03  0.25699518779E+03  0.00000000000E+00 0. -1.
         23    2    1    2    0    0  0.10327557365E+02 -0.18470743544E+02 -0.22804331978E+03  0.24545432923E+03  0.88296348919E+02 0.  0.
         24    2    1    2    0    0  0.77487898510E+01  0.68319796598E+01  0.65564383556E+02  0.10469539167E+03  0.80967382046E+02 0.  0.
        -11    1    4    4    0    0 -0.25016430945E+02  0.16280283735E+02  0.63931882429E+02  0.70556041886E+02  0.00000000000E+00 0.  1.
         12    1    4    4    0    0  0.32765220796E+02 -0.94483040751E+01  0.16325011273E+01  0.34139349783E+02  0.00000000000E+00 0. -1.
        -13    1    3    3    0    0 -0.26113851164E+02 -0.36220534979E+02 -0.76447501687E+02  0.88532936758E+02  0.00000000000E+00 0.  1.
         13    1    3    3    0    0  0.36441408529E+02  0.17749791435E+02 -0.15159581809E+03  0.15692139247E+03  0.00000000000E+00 0. -1.
          1    1    1    2  501    0 -0.18076347216E+02  0.11638763885E+02  0.16903673048E+03  0.17039844895E+03  0.00000000000E+00 0. -1.
<scales pt_clust_5="13000.00000" pt_clust_6="13000.00000" pt_clust_7="13000.00000" pt_clust_8="13000.00000" pt_clust_9="21.49919"></scales>
<clustering>
<clus scale="   21.499">  1  9  2 -1</clus>
<clus scale="   80.967">  5  6 -1 -1</clus>
<clus scale="   83.265">  1  5  2 -1</clus>
<clus scale="   88.296">  7  8 -1 -1</clus>
<clus scale="   21.499">  1  5  2 -1</clus>
</clustering>
</event>
<event>
 9    2  0.3745229E-005  0.9986141E+02  0.7546771E-02  0.1281069E+00
         21   -1    0    0  501  502  0.00000000000E+00  0.00000000000E+00  0.25093575117E+03  0.25093575117E+03  0.00000000000E+00 0. -1.
          2   -1    0    0  502    0 -0.00000000000E+00 -0.00000000000E+00 -0.69074717849E+02  0.69074717849E+02  0.00000000000E+00 0. -1.
         24    2    1    2    0    0  0.39902647753E+02 -0.18860822865E+02  0.31114939179E+02  0.10230203268E+03  0.86888517734E+02 0.  0.
         23    2    1    2    0    0 -0.37367597664E+02  0.46536530844E+02  0.15665448290E+03  0.18929575697E+03  0.87921957072E+02 0.  0.
        -13    1    3    3    0    0  0.25043225876E+02 -0.40988223985E+02  0.50231905887E+02  0.69501381546E+02  0.00000000000E+00 0.  1.
         14    1    3    3    0    0  0.14859421877E+02  0.22127401120E+02 -0.19116966709E+02  0.32800651137E+02  0.00000000000E+00 0. -1.
        -11    1    4    4    0    0  0.21149051669E+02  0.27670242724E+02  0.99239235638E+02  0.10517295569E+03  0.00000000000E+00 0.  1.
         11    1    4    4    0    0 -0.58516649332E+02  0.18866288120E+02  0.57415247264E+02  0.84122801278E+02  0.00000000000E+00 0. -1.
          1    1    1    2  501    0 -0.25350500895E+01 -0.27675707980E+02 -0.59083887581E+01  0.28412679368E+02  0.00000000000E+00 0. -1.
<scales pt_clust_5="13000.00000" pt_clust_6="13000.00000" pt_clust_7="13000.00000" pt_clust_8="13000.00000" pt_clust_9="27.79158"></scales>
<clustering>
<clus scale="   27.792">  1  9  2 -1</clus>
<clus scale="   86.889">  5  6 -1 -1</clus>
<clus scale="   87.922">  7  8 -1 -1</clus>
<clus scale="   98.953">  2  5  1 -1</clus>
<clus scale="   27.792">  1  5  2 -1</clus>
</clustering>
</event>
<event>
 9    2  0.3745229E-005  0.8244133E+02  0.7546771E-02  0.1326793E+00
         21   -1    0    0  501  502  0.00000000000E+00  0.00000000000E+00  0.26005789953E+02  0.26005789953E+02  0.00000000000E+00 0.  1.
          2   -1    0    0  502    0 -0.00000000000E+00 -0.00000000000E+00 -0.43492735050E+03  0.43492735050E+03  0.00000000000E+00 0. -1.
         24    2    1    2    0    0  0.91172702638E+01 -0.85696271452E+01 -0.29534278109E+03  0.30645172729E+03  0.80800616894E+02 0.  0.
         23    2    1    2    0    0 -0.22352571879E+01  0.30632334559E+02 -0.97293332718E+02  0.12620879500E+03  0.74292200456E+02 0.  0.
        -13    1    3    3    0    0  0.40528196468E+02  0.14105436765E+02 -0.16316078887E+03  0.16870963541E+03  0.00000000000E+00 0.  1.
         14    1    3    3    0    0 -0.31410926204E+02 -0.22675063911E+02 -0.13218199222E+03  0.13774209188E+03  0.00000000000E+00 0. -1.
        -13    1    4    4    0    0  0.23377303318E+02  0.92289326260E+01 -0.19695615026E+01  0.25210130510E+02  0.00000000000E+00 0.  1.
         13    1    4    4    0    0 -0.25612560506E+02  0.21403401933E+02 -0.95323771215E+02  0.10099866449E+03  0.00000000000E+00 0. -1.
          1    1    1    2  501    0 -0.68820130759E+01 -0.22062707414E+02 -0.16285446742E+02  0.28272618167E+02  0.00000000000E+00 0. -1.
<scales pt_clust_5="13000.00000" pt_clust_6="13000.00000" pt_clust_7="13000.00000" pt_clust_8="13000.00000" pt_clust_9="23.11115"></scales>
<clustering>
<clus scale="   23.111">  1  9  2 -1</clus>
<clus scale="   74.292">  7  8 -1 -1</clus>
<clus scale="   76.073">  1  7  2 -1</clus>
<clus scale="   80.801">  5  6 -1 -1</clus>
<clus scale="   23.111">  1  5  2 -1</clus>
</clustering>
</event>
<event>
 9    2  0.3745229E-005  0.9249561E+02  0.7546771E-02  0.1305667E+00
         -3   -1    0    0    0  501 -0.00000000000E+00  0.00000000000E+00  0.18654212136E+02  0.18654212136E+02  0.00000000000E+00 0.  1.
         21   -1    0    0  501  502  0.00000000000E+00 -0.00000000000E+00 -0.58099585600E+03  0.58099585600E+03  0.00000000000E+00 0.  1.
         23    2    1    2    0    0 -0.25159045126E+01  0.40121549673E+01 -0.27736879061E+03  0.29195506866E+03  0.91004884207E+02 0.  0.
         24    2    1    2    0    0  0.35679619422E+01 -0.27805637182E+02 -0.26235118528E+03  0.27484722204E+03  0.76986799081E+02 0.  0.
        -11    1    4    4    0    0  0.39691373490E+02 -0.14184039811E+02 -0.15994566733E+03  0.16540619279E+03  0.00000000000E+00 0.  1.
         12    1    4    4    0    0 -0.36123411547E+02 -0.13621597370E+02 -0.10240551795E+03  0.10944102925E+03  0.00000000000E+00 0. -1.
        -11    1    3    3    0    0 -0.10648138507E+02 -0.42516848650E+02 -0.13896201633E+03  0.14571035397E+03  0.00000000000E+00 0.  1.
         11    1    3    3    0    0  0.81322339940E+01  0.46529003617E+02 -0.13840677428E+03  0.14624471469E+03  0.00000000000E+00 0. -1.
         -4    1    1    2    0  502 -0.10520574297E+01  0.23793482215E+02 -0.22621667983E+02  0.32847777444E+02  0.00000000000E+00 0.  1.
<scales pt_clust_5="13000.00000" pt_clust_6="13000.00000" pt_clust_7="13000.00000" pt_clust_8="13000.00000" pt_clust_9="23.81674"></scales>
<clustering>
<clus scale="   23.817">  2  9  1 -1</clus>
<clus scale="   76.987">  5  6 -1 -1</clus>
<clus scale="   78.743">  2  5  1 -1</clus>
<clus scale="   91.005">  7  8 -1 -1</clus>
<clus scale="   23.817">  2  5  1 -1</clus>
</clustering>
</event>
<event>
 9    2  0.3745229E-005  0.9333502E+02  0.7546771E-02  0.1301744E+00
         21   -1    0    0  501  502  0.00000000000E+00  0.00000000000E+00  0.18496606159E+02  0.18496606159E+02  0.00000000000E+00 0.  1.
         -1   -1    0    0    0  501 -0.00000000000E+00 -0.00000000000E+00 -0.61327357270E+03  0.61327357270E+03  0.00000000000E+00 0.  1.
         24    2    1    2    0    0 -0.11397349474E+02 -0.18882086512E+02 -0.33335995315E+03  0.34377992874E+03  0.81051516193E+02 0.  0.
         23    2    1    2    0    0 -0.12167472731E+02  0.45441516828E+01 -0.19557282631E+03  0.21660163623E+03  0.92189162691E+02 0.  0.
        -11    1    3    3    0    0  0.72398103493E+01 -0.45997564001E+02 -0.24728172295E+03  0.25162758444E+03  0.00000000000E+00 0.  1.
         12    1    3    3    0    0 -0.18637159824E+02  0.27115477488E+02 -0.86078230198E+02  0.92152344298E+02  0.00000000000E+00 0. -1.
        -13    1    4    4    0    0 -0.34936214172E+02 -0.33725858964E+02 -0.10357556705E+03  0.11439349069E+03  0.00000000000E+00 0.  1.
         13    1    4    4    0    0  0.22768741440E+02  0.38270010647E+02 -0.91997259262E+02  0.10220814553E+03  0.00000000000E+00 0. -1.
         -2    1    1    2    0  502  0.23564822206E+02  0.14337934829E+02 -0.65844187085E+02  0.71388613894E+02  0.00000000000E+00 0.  1.
<scales pt_clust_5="13000.00000" pt_clust_6="13000.00000" pt_clust_7="13000.00000" pt_clust_8="13000.00000" pt_clust_9="27.58400"></scales>
<clustering>
<clus scale="   27.584">  1  9  2 -1</clus>
<clus scale="   81.052">  5  6 -1 -1</clus>
<clus scale="   82.352">  2  5  1 -1</clus>
<clus scale="   92.189">  7  8 -1 -1</clus>
<clus scale="   27.584">  1  5  2 -1</clus>
</clustering>
</event>
<event>
 9    2  0.3745229E-005  0.1367167E+03  0.7546771E-02  0.1220475E+00
         21   -1    0    0  501  502  0.00000000000E+00  0.00000000000E+00  0.13776238034E+03  0.13776238034E+03  0.00000000000E+00 0.  1.
         -1   -1    0    0    0  501 -0.00000000000E+00 -0.00000000000E+00 -0.67132736183E+03  0.67132736183E+03  0.00000000000E+00 0.  1.
         23    2    1    2    0    0 -0.56065276448E+02  0.75889212396E+02 -0.49183015723E+03  0.50925757636E+03  0.92433152803E+02 0.  0.
         24    2    1    2    0    0  0.51567207890E+02 -0.11781620372E+03 -0.13128274474E+03  0.20085269682E+03  0.81035868387E+02 0.  0.
        -11    1    4    4    0    0  0.35632735384E+02 -0.11497279766E+02 -0.63637371178E+02  0.73834912361E+02  0.00000000000E+00 0.  1.
         12    1    4    4    0    0  0.15934472506E+02 -0.10631892395E+03 -0.67645373561E+02  0.12701778446E+03  0.00000000000E+00 0. -1.
        -11    1    3    3    0    0 -0.10380996639E-01  0.67258987735E+02 -0.35191027202E+03  0.35828007354E+03  0.00000000000E+00 0.  1.
         11    1    3    3    0    0 -0.56054895452E+02  0.86302246610E+01 -0.13991988520E+03  0.15097750282E+03  0.00000000000E+00 0. -1.
         -2    1    1    2    0  502  0.44980685584E+01  0.41926991322E+02  0.89547920473E+02  0.98979468998E+02  0.00000000000E+00 0.  1.
<scales pt_clust_5="13000.00000" pt_clust_6="13000.00000" pt_clust_7="13000.00000" pt_clust_8="13000.00000" pt_clust_9="42.16758"></scales>
<clustering>
<clus scale="   42.168">  1  9  2 -1</clus>
<clus scale="   81.036">  5  6 -1 -1</clus>
<clus scale="   92.433">  7  8 -1 -1</clus>
<clus scale="  129.284">  1  5  2 -1</clus>
<clus scale="   42.168">  1  5  2 -1</clus>
</clustering>
</event>
<event>
 9    2  0.3745229E-005  0.1051661E+03  0.7546771E-02  0.1275116E+00
         21   -1    0    0  501  502  0.00000000000E+00  0.00000000000E+00  0.38490552780E+03  0.38490552780E+03  0.00000000000E+00 0.  1.
          2   -1    0    0  502    0 -0.00000000000E+00 -0.00000000000E+00 -0.18557102144E+03  0.18557102144E+03  0.00000000000E+00 0. -1.
         23    2    1    2    0    0  0.40548138344E+02 -0.85023366359E+01 -0.15920194382E+03  0.19099537978E+03  0.97043984515E+02 0.  0.
         24    2    1    2    0    0 -0.28965727295E+02 -0.20640817251E+02  0.27307179398E+03  0.28844445639E+03  0.85830898052E+02 0.  0.
        -11    1    4    4    0    0 -0.53930454645E+02 -0.89796093521E+01  0.10759076355E+03  0.12068512635E+03  0.00000000000E+00 0.  1.
         12    1    4    4    0    0  0.24964727350E+02 -0.11661207899E+02  0.16548103044E+03  0.16775933004E+03  0.00000000000E+00 0. -1.
        -11    1    3    3    0    0  0.53465018895E+02  0.28921392279E+02 -0.65965887275E+02  0.89702025957E+02  0.00000000000E+00 0. -1.
         11    1    3    3    0    0 -0.12916880551E+02 -0.37423728915E+02 -0.93236056548E+02  0.10129335383E+03  0.00000000000E+00 0.  1.
          1    1    1    2  501    0 -0.11582411048E+02  0.29143153887E+02  0.85464656206E+02  0.91036713059E+02  0.00000000000E+00 0. -1.
<scales pt_clust_5="13000.00000" pt_clust_6="13000.00000" pt_clust_7="13000.00000" pt_clust_8="13000.00000" pt_clust_9="31.36042"></scales>
<clustering>
<clus scale="   31.360">  1  9  2 -1</clus>
<clus scale="   85.831">  5  6 -1 -1</clus>
<clus scale="   94.917">  1  5  2 -1</clus>
<clus scale="   97.044">  7  8 -1 -1</clus>
<clus scale="   31.360">  1  5  2 -1</clus>
</clustering>
</event>
<event>
 9    2  0.3745229E-005  0.1037926E+03  0.7546771E-02  0.1277382E+00
         21   -1    0    0  501  502  0.00000000000E+00  0.00000000000E+00  0.75521465770E+02  0.75521465770E+02  0.00000000000E+00 0. -1.
          2   -1    0    0  502    0 -0.00000000000E+00 -0.00000000000E+00 -0.35664676758E+03  0.35664676758E+03  0.00000000000E+00 0. -1.
         24    2    1    2    0    0  0.23476575900E+02  0.27234341693E+02 -0.12176180000E+03  0.15008951696E+03  0.80050410232E+02 0.  0.
         23    2    1    2    0    0 -0.20851433406E+02 -0.10510028817E+03 -0.52725279759E+02  0.15001165995E+03  0.90789262295E+02 0.  0.
        -11    1    3    3    0    0  0.43013463864E+02  0.31611600057E+02 -0.42197067536E+02  0.68044425490E+02  0.00000000000E+00 0.  1.
         12    1    3    3    0    0 -0.19536887963E+02 -0.43772583645E+01 -0.79564732461E+02  0.82045091466E+02  0.00000000000E+00 0. -1.
        -11    1    4    4    0    0  0.19844779118E+02 -0.30612516423E+02  0.16921216908E+02  0.40215283185E+02  0.00000000000E+00 0. -1.
         11    1    4    4    0    0 -0.40696212524E+02 -0.74487771746E+02 -0.69646496668E+02  0.10979637677E+03  0.00000000000E+00 0.  1.
          1    1    1    2  501    0 -0.26251424943E+01  0.77865946476E+02 -0.10663822205E+03  0.13206705644E+03  0.00000000000E+00 0. -1.
<scales pt_clust_5="13000.00000" pt_clust_6="13000.00000" pt_clust_7="13000.00000" pt_clust_8="13000.00000" pt_clust_9="77.91022"></scales>
<clustering>
<clus scale="   77.910">  1  9  2 -1</clus>
<clus scale="   80.050">  5  6 -1 -1</clus>
<clus scale="   90.789">  7  8 -1 -1</clus>
<clus scale="   94.543">  2  5  1 -1</clus>
<clus scale="   77.910">  1  5  2 -1</clus>
</clustering>
</event>
<event>
 9    2  0.3745229E-005  0.9619633E+02  0.7546771E-02  0.1294312E+00
         21   -1    0    0  501  502  0.00000000000E+00  0.00000000000E+00  0.56884891432E+02  0.56884891432E+02  0.00000000000E+00 0.  1.
          4   -1    0    0  502    0 -0.00000000000E+00 -0.00000000000E+00 -0.34936352817E+03  0.34936352817E+03  0.00000000000E+00 0. -1.
         24    2    1    2    0    0 -0.12654684748E+02  0.10584855972E+02 -0.57249446853E+02  0.10103120459E+03  0.81594270109E+02 0.  0.
         23    2    1    2    0    0  0.23958642099E+02  0.60627381516E+02 -0.94599784685E+02  0.14718053627E+03  0.91996168800E+02 0.  0.
        -13    1    3    3    0    0 -0.26245484747E+02 -0.37952137580E+01  0.11929555784E+02  0.29078229284E+02  0.00000000000E+00 0.  1.
         14    1    3    3    0    0  0.13590799999E+02  0.14380069730E+02 -0.69179002637E+02  0.71952975310E+02  0.00000000000E+00 0. -1.
        -13    1    4    4    0    0  0.51487748128E+02  0.36070169292E+02 -0.90317618637E+02  0.11004234438E+03  0.00000000000E+00 0.  1.
         13    1    4    4    0    0 -0.27529106029E+02  0.24557212224E+02 -0.42821660479E+01  0.37138191892E+02  0.00000000000E+00 0. -1.
          3    1    1    2  501    0 -0.11303957351E+02 -0.71212237487E+02 -0.14062940520E+03  0.15803667874E+03  0.00000000000E+00 0. -1.
<scales pt_clust_5="13000.00000" pt_clust_6="13000.00000" pt_clust_7="13000.00000" pt_clust_8="13000.00000" pt_clust_9="72.10387"></scales>
<clustering>
<clus scale="   72.104">  1  9  2 -1</clus>
<clus scale="   81.594">  5  6 -1 -1</clus>
<clus scale="   86.302">  2  5  1 -1</clus>
<clus scale="   91.996">  7  8 -1 -1</clus>
<clus scale="   72.104">  1  5  2 -1</clus>
</clustering>
</event>
<event>
 9    2  0.3745229E-005  0.1074679E+03  0.7546771E-02  0.1269730E+00
         21   -1    0    0  501  502  0.00000000000E+00  0.00000000000E+00  0.11542348994E+03  0.11542348994E+03  0.00000000000E+00 0.  1.
         -3   -1    0    0    0  501 -0.00000000000E+00 -0.00000000000E+00 -0.29091232853E+03  0.29091232853E+03  0.00000000000E+00 0.  1.
         24    2    1    2    0    0  0.61063856354E+02 -0.53808379083E+01 -0.22754038704E+03  0.24907691176E+03  0.80665558136E+02 0.  0.
         23    2    1    2    0    0 -0.20664797621E+02 -0.72050797808E+01  0.63678638682E+02  0.11337635326E+03  0.91215576620E+02 0.  0.
        -13    1    3    3    0    0  0.70896110216E+02 -0.24905990231E+02 -0.14049102590E+03  0.15932449639E+03  0.00000000000E+00 0.  1.
         14    1    3    3    0    0 -0.98322538629E+01  0.19525152323E+02 -0.87049361143E+02  0.89752415369E+02  0.00000000000E+00 0. -1.
        -13    1    4    4    0    0  0.27039428871E+02  0.85547388037E+01 -0.44699857903E+01  0.28710538878E+02  0.00000000000E+00 0. -1.
         13    1    4    4    0    0 -0.47704226492E+02 -0.15759818585E+02  0.68148624472E+02  0.84665814379E+02  0.00000000000E+00 0.  1.
         -4    1    1    2    0  502 -0.40399058733E+02  0.12585917689E+02 -0.11627090226E+02  0.43882553455E+02  0.00000000000E+00 0.  1.
<scales pt_clust_5="13000.00000" pt_clust_6="13000.00000" pt_clust_7="13000.00000" pt_clust_8="13000.00000" pt_clust_9="42.31417"></scales>
<clustering>
<clus scale="   42.314">  1  9  2 -1</clus>
<clus scale="   80.666">  5  6 -1 -1</clus>
<clus scale="   91.216">  7  8 -1 -1</clus>
<clus scale="   98.671">  2  5  1 -1</clus>
<clus scale="   42.314">  1  5  2 -1</clus>
</clustering>
</event>
<event>
 9    2  0.3745229E-005  0.2236314E+03  0.7546771E-02  0.1133586E+00
         -1   -1    0    0    0  501 -0.00000000000E+00  0.00000000000E+00  0.19455769411E+03  0.19455769411E+03  0.00000000000E+00 0.  1.
         21   -1    0    0  501  502  0.00000000000E+00 -0.00000000000E+00 -0.88179806447E+03  0.88179806447E+03  0.00000000000E+00 0.  1.
         23    2    1    2    0    0  0.28982733137E+02 -0.18716236397E+03  0.90047801184E+02  0.23637246900E+03  0.10905772919E+03 0.  0.
         24    2    1    2    0    0 -0.28298293257E+02  0.23783590709E+03 -0.52390263969E+03  0.58157952764E+03  0.79962860082E+02 0.  0.
        -11    1    4    4    0    0  0.15862397492E+02  0.15097050408E+03 -0.27211900802E+03  0.31159663554E+03  0.00000000000E+00 0.  1.
         12    1    4    4    0    0 -0.44160690750E+02  0.86865403015E+02 -0.25178363167E+03  0.26998289210E+03  0.00000000000E+00 0. -1.
        -13    1    3    3    0    0  0.43323958921E+02 -0.16081699767E+03  0.11067382820E+03  0.19996941868E+03  0.00000000000E+00 0.  1.
         13    1    3    3    0    0 -0.14341225784E+02 -0.26345366303E+02 -0.20626027017E+02  0.36403050328E+02  0.00000000000E+00 0. -1.
         -2    1    1    2    0  502 -0.68443987959E+00 -0.50673543119E+02 -0.25338553186E+03  0.25840376194E+03  0.00000000000E+00 0.  1.
<scales pt_clust_5="13000.00000" pt_clust_6="13000.00000" pt_clust_7="13000.00000" pt_clust_8="13000.00000" pt_clust_9="50.67817"></scales>
<clustering>
<clus scale="   50.678">  2  9  1 -1</clus>
<clus scale="   79.963">  5  6 -1 -1</clus>
<clus scale="  109.058">  7  8 -1 -1</clus>
<clus scale="  210.977">  2  5  1 -1</clus>
<clus scale="   50.678">  2  5  1 -1</clus>
</clustering>
</event>
<event>
 9    2  0.3745229E-005  0.1516147E+03  0.7546771E-02  0.1200708E+00
          2   -1    0    0  502    0 -0.00000000000E+00  0.00000000000E+00  0.89873698955E+03  0.89873698955E+03  0.00000000000E+00 0. -1.
         21   -1    0    0  501  502  0.00000000000E+00 -0.00000000000E+00 -0.12159787494E+03  0.12159787494E+03  0.00000000000E+00 0. -1.
         24    2    1    2    0    0 -0.11085138042E+03  0.49218550676E+02  0.82610725912E+03  0.83885401558E+03  0.80699204511E+02 0.  0.
         23    2    1    2    0    0  0.92316437800E+02 -0.29326749132E+02 -0.65889980874E+02  0.14945622695E+03  0.92807819124E+02 0.  0.
        -13    1    3    3    0    0 -0.81086500982E+02  0.58068864783E+02  0.42495788042E+03  0.43650454045E+03  0.00000000000E+00 0.  1.
         14    1    3    3    0    0 -0.29764879438E+02 -0.88503141068E+01  0.40114937870E+03  0.40234947513E+03  0.00000000000E+00 0. -1.
        -11    1    4    4    0    0  0.19008785773E+02  0.18168181763E+02  0.15113519141E+02  0.30328785435E+02  0.00000000000E+00 0.  1.
         11    1    4    4    0    0  0.73307652027E+02 -0.47494930894E+02 -0.81003500015E+02  0.11912744151E+03  0.00000000000E+00 0. -1.
          1    1    1    2  501    0  0.18534942619E+02 -0.19891801544E+02  0.16921836361E+02  0.32024621971E+02  0.00000000000E+00 0. -1.
<scales pt_clust_5="13000.00000" pt_clust_6="13000.00000" pt_clust_7="13000.00000" pt_clust_8="13000.00000" pt_clust_9="27.18875"></scales>
<clustering>
<clus scale="   27.189">  2  9  1 -1</clus>
<clus scale="   80.699">  5  6 -1 -1</clus>
<clus scale="   92.808">  7  8 -1 -1</clus>
<clus scale="  144.520">  1  5  2 -1</clus>
<clus scale="   27.189">  2  5  1 -1</clus>
</clustering>
</event>
<event>
 9    2  0.3745229E-005  0.1096714E+03  0.7546771E-02  0.1265584E+00
         21   -1    0    0  501  502  0.00000000000E+00  0.00000000000E+00  0.19614663643E+02  0.19614663643E+02  0.00000000000E+00 0.  1.
          2   -1    0    0  502    0 -0.00000000000E+00 -0.00000000000E+00 -0.85445651556E+03  0.85445651556E+03  0.00000000000E+00 0. -1.
         23    2    1    2    0    0 -0.24666513667E+02  0.58860451157E+02 -0.54478709183E+03  0.55609923030E+03  0.91544464066E+02 0.  0.
         24    2    1    2    0    0  0.35116827418E+02 -0.41417768880E+02 -0.16637388438E+03  0.19263075362E+03  0.80484251179E+02 0.  0.
        -11    1    4    4    0    0  0.18930167707E+02 -0.50047444669E+02 -0.45105505497E+02  0.69982887862E+02  0.00000000000E+00 0.  1.
         12    1    4    4    0    0  0.16186659711E+02  0.86296757895E+01 -0.12126837889E+03  0.12264786576E+03  0.00000000000E+00 0. -1.
        -13    1    3    3    0    0 -0.19994211049E+02 -0.22409141579E+02 -0.16033473089E+03  0.16312315602E+03  0.00000000000E+00 0.  1.
         13    1    3    3    0    0 -0.46723026182E+01  0.81269592736E+02 -0.38445236095E+03  0.39297607428E+03  0.00000000000E+00 0. -1.
          1    1    1    2  501    0 -0.10450313751E+02 -0.17442682277E+02 -0.12368087570E+03  0.12534119529E+03  0.00000000000E+00 0. -1.
<scales pt_clust_5="13000.00000" pt_clust_6="13000.00000" pt_clust_7="13000.00000" pt_clust_8="13000.00000" pt_clust_9="20.33363"></scales>
<clustering>
<clus scale="   20.334">  1  9  2 -1</clus>
<clus scale="   80.484">  5  6 -1 -1</clus>
<clus scale="   91.544">  7  8 -1 -1</clus>
<clus scale="  100.624">  1  5  2 -1</clus>
<clus scale="   20.334">  1  5  2 -1</clus>
</clustering>
</event>
<event>
 9    2  0.3745229E-005  0.1399327E+03  0.7546771E-02  0.1213962E+00
         -3   -1    0    0    0  501 -0.00000000000E+00  0.00000000000E+00  0.78292401654E+02  0.78292401654E+02  0.00000000000E+00 0.  1.
         21   -1    0    0  501  502  0.00000000000E+00 -0.00000000000E+00 -0.80679064733E+03  0.80679064733E+03  0.00000000000E+00 0.  1.
         24    2    1    2    0    0 -0.99590968019E+02 -0.75422125103E+02 -0.46518506867E+02  0.15564875060E+03  0.80347397081E+02 0.  0.
         23    2    1    2    0    0 -0.81500532868E+01  0.10653076811E+03 -0.48630343070E+03  0.50390138970E+03  0.77526485216E+02 0.  0.
        -13    1    3    3    0    0 -0.67826129210E+02 -0.77426413312E+02 -0.46261642288E+01  0.10303705488E+03  0.00000000000E+00 0.  1.
         14    1    3    3    0    0 -0.31764838810E+02  0.20042882090E+01 -0.41892342638E+02  0.52611695730E+02  0.00000000000E+00 0. -1.
        -11    1    4    4    0    0  0.28333219968E+02  0.28522715047E+02 -0.93646430219E+02  0.10191158187E+03  0.00000000000E+00 0. -1.
         11    1    4    4    0    0 -0.36483273255E+02  0.78008053059E+02 -0.39265700048E+03  0.40198980783E+03  0.00000000000E+00 0.  1.
         -4    1    1    2    0  502  0.10774102131E+03 -0.31108643003E+02 -0.19567630811E+03  0.22553290868E+03  0.00000000000E+00 0.  1.
<scales pt_clust_5="13000.00000" pt_clust_6="13000.00000" pt_clust_7="13000.00000" pt_clust_8="13000.00000" pt_clust_9="112.14221"></scales>
<clustering>
<clus scale="   77.526">  7  8 -1 -1</clus>
<clus scale="   80.347">  5  6 -1 -1</clus>
<clus scale="  112.142">  2  9  1 -1</clus>
<clus scale="  138.332">  2  7  1 -1</clus>
<clus scale="  112.142">  2  5  1 -1</clus>
</clustering>
</event>
<event>
 9    2  0.3745229E-005  0.1265041E+03  0.7546771E-02  0.1234991E+00
         21   -1    0    0  501  502  0.00000000000E+00  0.00000000000E+00  0.18380593123E+03  0.18380593123E+03  0.00000000000E+00 0. -1.
          2   -1    0    0  502    0 -0.00000000000E+00 -0.00000000000E+00 -0.89389984429E+03  0.89389984429E+03  0.00000000000E+00 0. -1.
         24    2    1    2    0    0  0.86249671790E+02  0.33527901159E+02 -0.75168506699E+03  0.76170428311E+03  0.81239454331E+02 0.  0.
         23    2    1    2    0    0 -0.75628979015E+02 -0.70203802542E+01 -0.11051813740E+03  0.16123494471E+03  0.89517710518E+02 0.  0.
        -13    1    3    3    0    0  0.94394847333E+02  0.16266758016E+02 -0.48691244603E+03  0.49624462185E+03  0.00000000000E+00 0.  1.
         14    1    3    3    0    0 -0.81451755427E+01  0.17261143143E+02 -0.26477262096E+03  0.26545966126E+03  0.00000000000E+00 0. -1.
        -13    1    4    4    0    0 -0.31823819588E+02 -0.34925158633E+02 -0.96487007677E+02  0.10743493309E+03  0.00000000000E+00 0.  1.
         13    1    4    4    0    0 -0.43805159427E+02  0.27904778379E+02 -0.14031129723E+02  0.53800011618E+02  0.00000000000E+00 0. -1.
          1    1    1    2  501    0 -0.10620692775E+02 -0.26507520905E+02  0.15210929132E+03  0.15476654770E+03  0.00000000000E+00 0. -1.
<scales pt_clust_5="13000.00000" pt_clust_6="13000.00000" pt_clust_7="13000.00000" pt_clust_8="13000.00000" pt_clust_9="28.55605"></scales>
<clustering>
<clus scale="   28.556">  1  9  2 -1</clus>
<clus scale="   81.239">  5  6 -1 -1</clus>
<clus scale="   89.518">  7  8 -1 -1</clus>
<clus scale="  120.788">  2  5  1 -1</clus>
<clus scale="   28.556">  1  5  2 -1</clus>
</clustering>
</event>
<event>
 9    2  0.3745229E-005  0.5319396E+03  0.7546771E-02  0.1005763E+00
         21   -1    0    0  501  502  0.00000000000E+00  0.00000000000E+00  0.51539272320E+03  0.51539272320E+03  0.00000000000E+00 0. -1.
          2   -1    0    0  502    0 -0.00000000000E+00 -0.00000000000E+00 -0.14630640471E+04  0.14630640471E+04  0.00000000000E+00 0. -1.
         24    2    1    2    0    0 -0.20945766703E+03 -0.32711165084E+03 -0.12015895612E+04  0.12653968845E+04  0.80853294840E+02 0.  0.
         23    2    1    2    0    0 -0.45822333345E+02 -0.93724322583E+01 -0.11353173832E+03  0.15323053553E+03  0.91665766210E+02 0.  0.
        -13    1    3    3    0    0 -0.51969143078E+02 -0.89203576713E+02 -0.21707285930E+03  0.24037199541E+03  0.00000000000E+00 0.  1.
         14    1    3    3    0    0 -0.15748852395E+03 -0.23790807412E+03 -0.98451670192E+03  0.10250248891E+04  0.00000000000E+00 0. -1.
        -11    1    4    4    0    0 -0.10527106586E+02 -0.48829395288E+02 -0.56530138598E+02  0.75437301033E+02  0.00000000000E+00 0.  1.
         11    1    4    4    0    0 -0.35295226759E+02  0.39456963029E+02 -0.57001599718E+02  0.77793234499E+02  0.00000000000E+00 0. -1.
          1    1    1    2  501    0  0.25528000037E+03  0.33648408309E+03  0.36744997566E+03  0.55982935023E+03  0.00000000000E+00 0. -1.
<scales pt_clust_5="13000.00000" pt_clust_6="13000.00000" pt_clust_7="13000.00000" pt_clust_8="13000.00000" pt_clust_9="422.36171"></scales>
<clustering>
<clus scale="   80.853">  5  6 -1 -1</clus>
<clus scale="   91.666">  7  8 -1 -1</clus>
<clus scale="  100.977">  5  7 -1 -1</clus>
<clus scale="  422.362">  1  9  2 -1</clus>
<clus scale="  422.362">  1  5  2 -1</clus>
</clustering>
</event>
<event>
 9    2  0.4377668E-005  0.9826432E+02  0.7546771E-02  0.1290958E+00
         21   -1    0    0  501  502  0.00000000000E+00  0.00000000000E+00  0.62619019381E+02  0.62619019381E+02  0.00000000000E+00 0.  1.
          2   -1    0    0  502    0 -0.00000000000E+00 -0.00000000000E+00 -0.56380890082E+03  0.56380890082E+03  0.00000000000E+00 0. -1.
         24    2    1    2    0    0  0.11340574685E+02  0.37147496759E+02 -0.36982858551E+03  0.37985126935E+03  0.77493606281E+02 0.  0.
         23    2    1    2    0    0  0.77988360907E+01 -0.28471856336E+02  0.16846196155E+02  0.96886823240E+02  0.90729233134E+02 0.  0.
        -13    1    3    3    0    0 -0.19915417739E+02  0.58446872355E+01 -0.26382613968E+02  0.33568237254E+02  0.00000000000E+00 0.  1.
         14    1    3    3    0    0  0.31255992424E+02  0.31302809524E+02 -0.34344597154E+03  0.34628303209E+03  0.00000000000E+00 0. -1.
        -11    1    4    4    0    0  0.25365162461E+02  0.24241330130E+02  0.21466404025E+02  0.41131983357E+02  0.00000000000E+00 0.  1.
         11    1    4    4    0    0 -0.17566326370E+02 -0.52713186466E+02 -0.46202078700E+01  0.55754839882E+02  0.00000000000E+00 0. -1.
          1    1    1    2  501    0 -0.19139410775E+02 -0.86756404235E+01 -0.14820749208E+03  0.14968982761E+03  0.00000000000E+00 0. -1.
<scales pt_clust_5="13000.00000" pt_clust_6="13000.00000" pt_clust_7="13000.00000" pt_clust_8="13000.00000" pt_clust_9="21.01391"></scales>
<clustering>
<clus scale="   21.014">  1  9  2 -1</clus>
<clus scale="   77.494">  5  6 -1 -1</clus>
<clus scale="   86.194">  2  5  1 -1</clus>
<clus scale="   90.729">  7  8 -1 -1</clus>
<clus scale="   21.014">  1  5  2 -1</clus>
</clustering>
</event>
<event>
 9    2  0.3745229E-005  0.1015824E+03  0.7546771E-02  0.1279061E+00
         21   -1    0    0  501  502  0.00000000000E+00  0.00000000000E+00  0.14105074972E+02  0.14105074972E+02  0.00000000000E+00 0.  1.
          2   -1    0    0  502    0 -0.00000000000E+00 -0.00000000000E+00 -0.10476437155E+04  0.10476437155E+04  0.00000000000E+00 0. -1.
         24    2    1    2    0    0 -0.15116634887E+02 -0.49340674340E+02 -0.64425237385E+03  0.65130753562E+03  0.80482109558E+02 0.  0.
         23    2    1    2    0    0  0.36986871637E+01  0.66456778147E+02 -0.30212176262E+03  0.32088132348E+03  0.85188500730E+02 0.  0.
        -11    1    3    3    0    0 -0.24742285514E+02  0.33821307093E+01 -0.65828233729E+02  0.70405794196E+02  0.00000000000E+00 0.  1.
         12    1    3    3    0    0  0.96256506277E+01 -0.52722805050E+02 -0.57842414012E+03  0.58090174143E+03  0.00000000000E+00 0. -1.
        -11    1    4    4    0    0 -0.25772251951E+02  0.69332257586E+02 -0.16853634621E+03  0.18405344579E+03  0.00000000000E+00 0.  1.
         11    1    4    4    0    0  0.29470939114E+02 -0.28754794384E+01 -0.13358541642E+03  0.13682787769E+03  0.00000000000E+00 0. -1.
          1    1    1    2  501    0  0.11417947723E+02 -0.17116103807E+02 -0.87164504047E+02  0.89559931362E+02  0.00000000000E+00 0. -1.
<scales pt_clust_5="13000.00000" pt_clust_6="13000.00000" pt_clust_7="13000.00000" pt_clust_8="13000.00000" pt_clust_9="20.57500"></scales>
<clustering>
<clus scale="   20.575">  1  9  2 -1</clus>
<clus scale="   80.482">  5  6 -1 -1</clus>
<clus scale="   85.189">  7  8 -1 -1</clus>
<clus scale="   97.669">  2  5  1 -1</clus>
<clus scale="   20.575">  1  5  2 -1</clus>
</clustering>
</event>
<event>
 9    2  0.3745229E-005  0.9137148E+02  0.7546771E-02  0.1304406E+00
         -1   -1    0    0    0  501 -0.00000000000E+00  0.00000000000E+00  0.20722563925E+03  0.20722563925E+03  0.00000000000E+00 0.  1.
         21   -1    0    0  501  502  0.00000000000E+00 -0.00000000000E+00 -0.88601997135E+02  0.88601997135E+02  0.00000000000E+00 0.  1.
         24    2    1    2    0    0  0.11502768448E+02  0.80153911825E+00  0.16830636931E+02  0.83605881865E+02  0.81078461974E+02 0.  0.
         23    2    1    2    0    0  0.32011247588E+02  0.45566379742E+02  0.17288670322E+02  0.10646526015E+03  0.89078272109E+02 0.  0.
        -11    1    3    3    0    0 -0.21004422295E+02  0.18809088431E+02 -0.17357905840E+02  0.33109884607E+02  0.00000000000E+00 0.  1.
         12    1    3    3    0    0  0.32507190743E+02 -0.18007549312E+02  0.34188542771E+02  0.50495997258E+02  0.00000000000E+00 0. -1.
        -11    1    4    4    0    0  0.18886353577E+02 -0.72980333521E+01 -0.28737437255E+02  0.35153889433E+02  0.00000000000E+00 0.  1.
         11    1    4    4    0    0  0.13124894011E+02  0.52864413094E+02  0.46026107578E+02  0.71311370716E+02  0.00000000000E+00 0. -1.
         -2    1    1    2    0  502 -0.43514016036E+02 -0.46367918860E+02  0.84504334857E+02  0.10575649437E+03  0.00000000000E+00 0.  1.
<scales pt_clust_5="13000.00000" pt_clust_6="13000.00000" pt_clust_7="13000.00000" pt_clust_8="13000.00000" pt_clust_9="63.58819"></scales>
<clustering>
<clus scale="   63.588">  2  9  1 -1</clus>
<clus scale="   81.078">  5  6 -1 -1</clus>
<clus scale="   83.591">  1  5  2 -1</clus>
<clus scale="   89.078">  7  8 -1 -1</clus>
<clus scale="   63.588">  2  5  1 -1</clus>
</clustering>
</event>
<event>
 9    2  0.3745229E-005  0.1392449E+03  0.7546771E-02  0.1240211E+00
          2   -1    0    0  502    0 -0.00000000000E+00  0.00000000000E+00  0.62362262537E+03  0.62362262537E+03  0.00000000000E+00 0. -1.
         21   -1    0    0  501  502  0.00000000000E+00 -0.00000000000E+00 -0.40173920573E+02  0.40173920573E+02  0.00000000000E+00 0. -1.
         24    2    1    2    0    0  0.40013499361E+01 -0.29555899584E+01  0.91197212831E+02  0.12225918477E+03  0.81275028878E+02 0.  0.
         23    2    1    2    0    0 -0.71750396158E+02  0.50365058324E+02  0.34156194321E+03  0.36965097119E+03  0.11087164204E+03 0.  0.
        -11    1    3    3    0    0  0.31025725400E+01 -0.42032192900E+02  0.51518231286E+02  0.66561695825E+02  0.00000000000E+00 0.  1.
         12    1    3    3    0    0  0.89877739610E+00  0.39076602941E+02  0.39678981545E+02  0.55697488944E+02  0.00000000000E+00 0. -1.
        -11    1    4    4    0    0 -0.15971730407E+01  0.66054305242E+02  0.20407669267E+03  0.21450645374E+03  0.00000000000E+00 0.  1.
         11    1    4    4    0    0 -0.70153223118E+02 -0.15689246918E+02  0.13748525053E+03  0.15514451745E+03  0.00000000000E+00 0. -1.
          1    1    1    2  501    0  0.67749046222E+02 -0.47409468366E+02  0.15068954876E+03  0.17188638998E+03  0.00000000000E+00 0. -1.
<scales pt_clust_5="13000.00000" pt_clust_6="13000.00000" pt_clust_7="13000.00000" pt_clust_8="13000.00000" pt_clust_9="84.24145"></scales>
<clustering>
<clus scale="   81.275">  5  6 -1 -1</clus>
<clus scale="   81.427">  1  5  2 -1</clus>
<clus scale="   84.241">  2  9  1 -1</clus>
<clus scale="  110.872">  7  8 -1 -1</clus>
<clus scale="   84.241">  2  5  1 -1</clus>
</clustering>
</event>
<event>
 9    2  0.3745229E-005  0.1261256E+03  0.7546771E-02  0.1233580E+00
         21   -1    0    0  501  502  0.00000000000E+00  0.00000000000E+00  0.33187034879E+02  0.33187034879E+02  0.00000000000E+00 0. -1.
          2   -1    0    0  502    0 -0.00000000000E+00 -0.00000000000E+00 -0.95608173783E+03  0.95608173783E+03  0.00000000000E+00 0. -1.
         23    2    1    2    0    0 -0.44663050964E+01  0.92308362560E+02 -0.52469765083E+03  0.53897273823E+03  0.81505865342E+02 0.  0.
         24    2    1    2    0    0 -0.59507537108E+02 -0.10068754075E+03 -0.31056199120E+03  0.34147155646E+03  0.80467047048E+02 0.  0.
        -13    1    4    4    0    0  0.15105738185E+02 -0.15313655860E+02 -0.10036300097E+03  0.10264221035E+03  0.00000000000E+00 0.  1.
         14    1    4    4    0    0 -0.74613275293E+02 -0.85373884886E+02 -0.21019899023E+03  0.23882934611E+03  0.00000000000E+00 0. -1.
        -13    1    3    3    0    0  0.35859333573E+02  0.65194501429E+02 -0.30131693175E+03  0.31036769835E+03  0.00000000000E+00 0. -1.
         13    1    3    3    0    0 -0.40325638669E+02  0.27113861131E+02 -0.22338071909E+03  0.22860503988E+03  0.00000000000E+00 0.  1.
          1    1    1    2  501    0  0.63973842204E+02  0.83791781867E+01 -0.87635060909E+02  0.10882447801E+03  0.00000000000E+00 0. -1.
<scales pt_clust_5="13000.00000" pt_clust_6="13000.00000" pt_clust_7="13000.00000" pt_clust_8="13000.00000" pt_clust_9="64.52025"></scales>
<clustering>
<clus scale="   64.520">  1  9  2 -1</clus>
<clus scale="   80.467">  5  6 -1 -1</clus>
<clus scale="   81.506">  7  8 -1 -1</clus>
<clus scale="  125.457">  1  5  2 -1</clus>
<clus scale="   64.520">  1  5  2 -1</clus>
</clustering>
</event>
<event>
 9    2  0.3745229E-005  0.9554413E+02  0.7546771E-02  0.1292100E+00
         21   -1    0    0  501  502  0.00000000000E+00  0.00000000000E+00  0.13974107388E+03  0.13974107388E+03  0.00000000000E+00 0. -1.
          2   -1    0    0  502    0 -0.00000000000E+00 -0.00000000000E+00 -0.27677780812E+03  0.27677780812E+03  0.00000000000E+00 0. -1.
         23    2    1    2    0    0  0.15639317712E+02  0.46968459984E+02 -0.17932215788E+03  0.20745951770E+03  0.91828049562E+02 0.  0.
         24    2    1    2    0    0 -0.16547914865E+02  0.44815566967E+02 -0.24181439978E+02  0.95732504678E+02  0.79358061239E+02 0.  0.
        -11    1    4    4    0    0 -0.33741370828E+01 -0.23151214445E+02 -0.62578688674E+01  0.24218266950E+02  0.00000000000E+00 0.  1.
         12    1    4    4    0    0 -0.13173777782E+02  0.67966781411E+02 -0.17923571111E+02  0.71514237728E+02  0.00000000000E+00 0. -1.
        -13    1    3    3    0    0  0.24157496778E+02  0.11101982339E+02 -0.23516268760E+01  0.26690238129E+02  0.00000000000E+00 0.  1.
         13    1    3    3    0    0 -0.85181790653E+01  0.35866477645E+02 -0.17697053100E+03  0.18076927957E+03  0.00000000000E+00 0. -1.
          1    1    1    2  501    0  0.90859715301E+00 -0.91784026951E+02  0.66466863619E+02  0.11332685962E+03  0.00000000000E+00 0. -1.
<scales pt_clust_5="13000.00000" pt_clust_6="13000.00000" pt_clust_7="13000.00000" pt_clust_8="13000.00000" pt_clust_9="91.78852"></scales>
<clustering>
<clus scale="   79.358">  5  6 -1 -1</clus>
<clus scale="   91.789">  1  9  2 -1</clus>
<clus scale="   91.789">  1  5  2 -1</clus>
<clus scale="   91.828">  7  8 -1 -1</clus>
<clus scale="   91.789">  1  5  2 -1</clus>
</clustering>
</event>
<event>
 9    2  0.3745229E-005  0.9620712E+02  0.7546771E-02  0.1292051E+00
         21   -1    0    0  501  502  0.00000000000E+00  0.00000000000E+00  0.96497082635E+02  0.96497082635E+02  0.00000000000E+00 0.  1.
         -1   -1    0    0    0  501 -0.00000000000E+00 -0.00000000000E+00 -0.21009686515E+03  0.21009686515E+03  0.00000000000E+00 0.  1.
         24    2    1    2    0    0 -0.26670762723E+02 -0.82180322806E+01 -0.12154730723E+01  0.87239036062E+02  0.82645667760E+02 0.  0.
         23    2    1    2    0    0  0.18422200736E+02  0.49298046935E+02 -0.47251611776E+01  0.10382959595E+03  0.89378872984E+02 0.  0.
        -13    1    3    3    0    0 -0.29449313120E+02 -0.17032576478E+02  0.35623430623E+02  0.49258496872E+02  0.00000000000E+00 0.  1.
         14    1    3    3    0    0  0.27785503970E+01  0.88145441978E+01 -0.36838903695E+02  0.37980539190E+02  0.00000000000E+00 0. -1.
        -11    1    4    4    0    0 -0.16467067003E+02  0.62975208297E+02 -0.10432059655E+02  0.65923205508E+02  0.00000000000E+00 0.  1.
         11    1    4    4    0    0  0.34889267739E+02 -0.13677161362E+02  0.57068984776E+01  0.37906390444E+02  0.00000000000E+00 0. -1.
         -2    1    1    2    0  502  0.82485619874E+01 -0.41080014655E+02 -0.10765914827E+03  0.11552531577E+03  0.00000000000E+00 0.  1.
<scales pt_clust_5="13000.00000" pt_clust_6="13000.00000" pt_clust_7="13000.00000" pt_clust_8="13000.00000" pt_clust_9="41.89998"></scales>
<clustering>
<clus scale="   41.900">  1  9  2 -1</clus>
<clus scale="   82.646">  5  6 -1 -1</clus>
<clus scale="   89.379">  7  8 -1 -1</clus>
<clus scale="   89.986">  2  5  1 -1</clus>
<clus scale="   41.900">  1  5  2 -1</clus>
</clustering>
</event>
<event>
 9    2  0.3745229E-005  0.1004450E+03  0.7546771E-02  0.1284973E+00
         21   -1    0    0  501  502  0.00000000000E+00  0.00000000000E+00  0.11149065370E+03  0.11149065370E+03  0.00000000000E+00 0. -1.
         -1   -1    0    0    0  501 -0.00000000000E+00 -0.00000000000E+00 -0.20960080825E+03  0.20960080825E+03  0.00000000000E+00 0.  1.
         23    2    1    2    0    0  0.31162760374E+02 -0.20090931764E+02 -0.11623055289E+03  0.15160783864E+03  0.90003511820E+02 0.  0.
         24    2    1    2    0    0 -0.27334913398E+02  0.62221899276E+02 -0.27332219824E+02  0.10739005413E+03  0.78529047144E+02 0.  0.
        -13    1    4    4    0    0 -0.29997379209E+01  0.68219855099E+02 -0.40175423852E+02  0.79227594555E+02  0.00000000000E+00 0.  1.
         14    1    4    4    0    0 -0.24335175477E+02 -0.59979558224E+01  0.12843204028E+02  0.28162459574E+02  0.00000000000E+00 0. -1.
        -11    1    3    3    0    0 -0.16926107688E+01  0.33688752103E+02 -0.48672689488E+02  0.59218473903E+02  0.00000000000E+00 0. -1.
         11    1    3    3    0    0  0.32855371143E+02 -0.53779683867E+02 -0.67557863402E+02  0.92389364741E+02  0.00000000000E+00 0.  1.
         -2    1    1    2    0  502 -0.38278469760E+01 -0.42130967512E+02  0.45452618162E+02  0.62093569182E+02  0.00000000000E+00 0.  1.
<scales pt_clust_5="13000.00000" pt_clust_6="13000.00000" pt_clust_7="13000.00000" pt_clust_8="13000.00000" pt_clust_9="42.30450"></scales>
<clustering>
<clus scale="   42.305">  1  9  2 -1</clus>
<clus scale="   78.529">  5  6 -1 -1</clus>
<clus scale="   90.004">  7  8 -1 -1</clus>
<clus scale="   90.307">  1  5  2 -1</clus>
<clus scale="   42.305">  1  5  2 -1</clus>
</clustering>
</event>
<event>
 9    2  0.3745229E-005  0.9122913E+02  0.7546771E-02  0.1306066E+00
         -1   -1    0    0    0  501 -0.00000000000E+00  0.00000000000E+00  0.81315098820E+02  0.81315098820E+02  0.00000000000E+00 0.  1.
         21   -1    0    0  501  502  0.00000000000E+00 -0.00000000000E+00 -0.21316556034E+03  0.21316556034E+03  0.00000000000E+00 0.  1.
         24    2    1    2    0    0  0.18267558828E+02  0.12204512705E+02 -0.31115068607E+02  0.89664675777E+02  0.81172364459E+02 0.  0.
         23    2    1    2    0    0  0.19033275293E+02  0.21263116938E+02 -0.11810240533E+03  0.15177781241E+03  0.90961203189E+02 0.  0.
        -11    1    3    3    0    0  0.27165634776E+02 -0.11132297798E+02  0.18089892163E+02  0.34483966789E+02  0.00000000000E+00 0.  1.
         12    1    3    3    0    0 -0.88980759481E+01  0.23336810503E+02 -0.49204960770E+02  0.55180708988E+02  0.00000000000E+00 0. -1.
        -11    1    4    4    0    0  0.47920989021E+02  0.19206051019E+02 -0.11030024917E+03  0.12178439371E+03  0.00000000000E+00 0.  1.
         11    1    4    4    0    0 -0.28887713728E+02  0.20570659185E+01 -0.78021561596E+01  0.29993418701E+02  0.00000000000E+00 0. -1.
         -2    1    1    2    0  502 -0.37300834120E+02 -0.33467629643E+02  0.17367012414E+02  0.53038170973E+02  0.00000000000E+00 0.  1.
<scales pt_clust_5="13000.00000" pt_clust_6="13000.00000" pt_clust_7="13000.00000" pt_clust_8="13000.00000" pt_clust_9="50.11424"></scales>
<clustering>
<clus scale="   50.114">  2  9  1 -1</clus>
<clus scale="   81.172">  5  6 -1 -1</clus>
<clus scale="   81.472">  1  5  2 -1</clus>
<clus scale="   90.961">  7  8 -1 -1</clus>
<clus scale="   50.114">  2  5  1 -1</clus>
</clustering>
</event>
<event>
 9    2  0.3745229E-005  0.2242210E+03  0.7546771E-02  0.1130775E+00
         21   -1    0    0  501  502  0.00000000000E+00  0.00000000000E+00  0.60757779725E+03  0.60757779725E+03  0.00000000000E+00 0. -1.
          4   -1    0    0  502    0 -0.00000000000E+00 -0.00000000000E+00 -0.95263650177E+02  0.95263650177E+02  0.00000000000E+00 0. -1.
         24    2    1    2    0    0 -0.10126543397E+02  0.10417385017E+03  0.35273994659E+02  0.13637191142E+03  0.79989409197E+02 0.  0.
         23    2    1    2    0    0  0.87725737427E+01  0.24435898438E+02  0.24035950824E+02  0.95560726016E+02  0.88769669608E+02 0.  0.
        -11    1    3    3    0    0 -0.36345244617E+02  0.38350030420E+02  0.38609646763E+02  0.65440098278E+02  0.00000000000E+00 0.  1.
         12    1    3    3    0    0  0.26218701220E+02  0.65823819752E+02 -0.33356521035E+01  0.70931813140E+02  0.00000000000E+00 0. -1.
        -13    1    4    4    0    0  0.35550774788E+02 -0.83236188208E+01  0.36321888744E+02  0.51501648713E+02  0.00000000000E+00 0.  1.
         13    1    4    4    0    0 -0.26778201045E+02  0.32759517258E+02 -0.12285937920E+02  0.44059077303E+02  0.00000000000E+00 0. -1.
          3    1    1    2  501    0  0.13539696543E+01 -0.12860974861E+03  0.45300420159E+03  0.47090880999E+03  0.00000000000E+00 0. -1.
<scales pt_clust_5="13000.00000" pt_clust_6="13000.00000" pt_clust_7="13000.00000" pt_clust_8="13000.00000" pt_clust_9="128.61688"></scales>
<clustering>
<clus scale="   79.989">  5  6 -1 -1</clus>
<clus scale="   88.770">  7  8 -1 -1</clus>
<clus scale="   92.456">  5  7 -1 -1</clus>
<clus scale="  128.617">  1  9  2 -1</clus>
<clus scale="  128.617">  1  5  2 -1</clus>
</clustering>
</event>
<event>
 9    2  0.3745229E-005  0.1512655E+03  0.7546771E-02  0.1225788E+00
         21   -1    0    0  501  502  0.00000000000E+00  0.00000000000E+00  0.64809975179E+02  0.64809975179E+02  0.00000000000E+00 0. -1.
          4   -1    0    0  502    0 -0.00000000000E+00 -0.00000000000E+00 -0.51530949482E+03  0.51530949482E+03  0.00000000000E+00 0. -1.
         24    2    1    2    0    0  0.10546777798E+02  0.94244110362E+01 -0.14633419368E+03  0.16944451917E+03  0.84247817724E+02 0.  0.
         23    2    1    2    0    0  0.81224577243E+01 -0.12454386814E+03 -0.13480250612E+03  0.20504228197E+03  0.91068503483E+02 0.  0.
        -13    1    3    3    0    0  0.45486162847E+02 -0.71291983032E+01 -0.90391670054E+02  0.10144195628E+03  0.00000000000E+00 0.  1.
         14    1    3    3    0    0 -0.34939385049E+02  0.16553609339E+02 -0.55942523628E+02  0.68002562890E+02  0.00000000000E+00 0. -1.
        -13    1    4    4    0    0  0.35781921881E+02 -0.11416835678E+03 -0.12701353673E+03  0.17449125518E+03  0.00000000000E+00 0. -1.
         13    1    4    4    0    0 -0.27659464157E+02 -0.10375511365E+02 -0.77889693950E+01  0.30551026788E+02  0.00000000000E+00 0.  1.
          3    1    1    2  501    0 -0.18669235523E+02  0.11511945711E+03 -0.16936281984E+03  0.20563266886E+03  0.00000000000E+00 0. -1.
<scales pt_clust_5="13000.00000" pt_clust_6="13000.00000" pt_clust_7="13000.00000" pt_clust_8="13000.00000" pt_clust_9="120.77995"></scales>
<clustering>
<clus scale="   84.248">  5  6 -1 -1</clus>
<clus scale="   85.427">  2  5  1 -1</clus>
<clus scale="   91.069">  7  8 -1 -1</clus>
<clus scale="  120.780">  1  9  2 -1</clus>
<clus scale="  120.780">  1  5  2 -1</clus>
</clustering>
</event>
<event>
 9    2  0.3745229E-005  0.1032611E+03  0.7546771E-02  0.1279384E+00
         21   -1    0    0  501  502  0.00000000000E+00  0.00000000000E+00  0.79249786186E+02  0.79249786186E+02  0.00000000000E+00 0.  1.
         -1   -1    0    0    0  501 -0.00000000000E+00 -0.00000000000E+00 -0.42261703001E+03  0.42261703001E+03  0.00000000000E+00 0.  1.
         23    2    1    2    0    0 -0.21567510786E+02  0.43154434651E+02 -0.35113159732E+03  0.36638843423E+03  0.92841926688E+02 0.  0.
         24    2    1    2    0    0  0.43257374358E+02 -0.68653341748E+01 -0.32470029588E+01  0.91790866970E+02  0.80602028394E+02 0.  0.
        -13    1    4    4    0    0  0.65810378882E+02  0.42088821119E+01  0.25932975445E+01  0.65995801756E+02  0.00000000000E+00 0.  1.
         14    1    4    4    0    0 -0.22553004524E+02 -0.11074216287E+02 -0.58403005033E+01  0.25795065214E+02  0.00000000000E+00 0. -1.
        -11    1    3    3    0    0 -0.23830902685E+02  0.63542642744E+02 -0.33012091316E+03  0.33702432653E+03  0.00000000000E+00 0.  1.
         11    1    3    3    0    0  0.22633918992E+01 -0.20388208093E+02 -0.21010684162E+02  0.29364107701E+02  0.00000000000E+00 0. -1.
         -2    1    1    2    0  502 -0.21689863572E+02 -0.36289100476E+02  0.11011356457E+02  0.43687514992E+02  0.00000000000E+00 0.  1.
<scales pt_clust_5="13000.00000" pt_clust_6="13000.00000" pt_clust_7="13000.00000" pt_clust_8="13000.00000" pt_clust_9="42.27705"></scales>
<clustering>
<clus scale="   42.277">  1  9  2 -1</clus>
<clus scale="   80.602">  5  6 -1 -1</clus>
<clus scale="   92.412">  1  5  2 -1</clus>
<clus scale="   92.842">  7  8 -1 -1</clus>
<clus scale="   42.277">  1  5  2 -1</clus>
</clustering>
</event>
<event>
 9    2  0.3745229E-005  0.1204952E+03  0.7546771E-02  0.1245619E+00
         21   -1    0    0  501  502  0.00000000000E+00  0.00000000000E+00  0.57910607459E+02  0.57910607459E+02  0.00000000000E+00 0. -1.
          2   -1    0    0  502    0 -0.00000000000E+00 -0.00000000000E+00 -0.45486080841E+03  0.45486080841E+03  0.00000000000E+00 0. -1.
         24    2    1    2    0    0  0.84578889779E+02 -0.86485959685E+01 -0.32153166107E+03  0.34198483797E+03  0.79640652445E+02 0.  0.
         23    2    1    2    0    0 -0.63478552025E+02  0.19916016394E+02 -0.89031210808E+02  0.14326415383E+03  0.90398490018E+02 0.  0.
        -11    1    3    3    0    0  0.28002382247E+02 -0.39377297519E+02 -0.18218357352E+03  0.18848225230E+03  0.00000000000E+00 0.  1.
         12    1    3    3    0    0  0.56576507532E+02  0.30728701551E+02 -0.13934808756E+03  0.15350258568E+03  0.00000000000E+00 0. -1.
        -11    1    4    4    0    0 -0.58279556415E+02 -0.21835443173E+02 -0.77965735570E+02  0.99759456682E+02  0.00000000000E+00 0. -1.
         11    1    4    4    0    0 -0.51989956096E+01  0.41751459568E+02 -0.11065475238E+02  0.43504697145E+02  0.00000000000E+00 0.  1.
          1    1    1    2  501    0 -0.21100337754E+02 -0.11267420426E+02  0.13612670936E+02  0.27522424065E+02  0.00000000000E+00 0. -1.
<scales pt_clust_5="13000.00000" pt_clust_6="13000.00000" pt_clust_7="13000.00000" pt_clust_8="13000.00000" pt_clust_9="23.92026"></scales>
<clustering>
<clus scale="   23.920">  1  9  2 -1</clus>
<clus scale="   79.641">  5  6 -1 -1</clus>
<clus scale="   90.398">  7  8 -1 -1</clus>
<clus scale="  112.649">  2  5  1 -1</clus>
<clus scale="   23.920">  1  5  2 -1</clus>
</clustering>
</event>
<event>
 9    2  0.3745229E-005  0.9163546E+02  0.7546771E-02  0.1303137E+00
         21   -1    0    0  501  502  0.00000000000E+00  0.00000000000E+00  0.54322796391E+02  0.54322796391E+02  0.00000000000E+00 0. -1.
          2   -1    0    0  502    0 -0.00000000000E+00 -0.00000000000E+00 -0.62674873117E+03  0.62674873117E+03  0.00000000000E+00 0. -1.
         23    2    1    2    0    0 -0.18682364028E+02 -0.10258626281E+02 -0.45889771054E+03  0.46831001414E+03  0.90955431166E+02 0.  0.
         24    2    1    2    0    0 -0.27094758079E+02  0.52916459017E+01 -0.13542104172E+03  0.16177611100E+03  0.84086408646E+02 0.  0.
        -11    1    4    4    0    0 -0.14183454042E+02 -0.30905566074E+02 -0.18521979411E+02  0.38721933116E+02  0.00000000000E+00 0.  1.
         12    1    4    4    0    0 -0.12911304037E+02  0.36197211976E+02 -0.11689906231E+03  0.12305417789E+03  0.00000000000E+00 0. -1.
        -11    1    3    3    0    0  0.36401548964E+02 -0.14785000987E+01 -0.14581652405E+03  0.15029876052E+03  0.00000000000E+00 0.  1.
         11    1    3    3    0    0 -0.55083912992E+02 -0.87801261820E+01 -0.31308118650E+03  0.31801125361E+03  0.00000000000E+00 0. -1.
          1    1    1    2  501    0  0.45777122107E+02  0.49669803790E+01  0.21892817486E+02  0.50985402420E+02  0.00000000000E+00 0. -1.
<scales pt_clust_5="13000.00000" pt_clust_6="13000.00000" pt_clust_7="13000.00000" pt_clust_8="13000.00000" pt_clust_9="46.04580"></scales>
<clustering>
<clus scale="   46.046">  1  9  2 -1</clus>
<clus scale="   84.086">  5  6 -1 -1</clus>
<clus scale="   84.822">  1  5  2 -1</clus>
<clus scale="   90.955">  7  8 -1 -1</clus>
<clus scale="   46.046">  1  5  2 -1</clus>
</clustering>
</event>
<event>
 9    2  0.3745229E-005  0.1845837E+03  0.7546771E-02  0.1184866E+00
         -1   -1    0    0    0  501 -0.00000000000E+00  0.00000000000E+00  0.60713640644E+02  0.60713640644E+02  0.00000000000E+00 0.  1.
         21   -1    0    0  501  502  0.00000000000E+00 -0.00000000000E+00 -0.13352811523E+04  0.13352811523E+04  0.00000000000E+00 0. -1.
         24    2    1    2    0    0  0.75976976508E+02  0.27810082030E+02 -0.39977386635E+03  0.41556427610E+03  0.79552634998E+02 0.  0.
         23    2    1    2    0    0 -0.38236947392E+02 -0.18192640259E+03 -0.20161125907E+03  0.28880151572E+03  0.90553495748E+02 0.  0.
        -13    1    3    3    0    0  0.34237393135E+02 -0.60571127675E+01 -0.45643317694E+02  0.57377697356E+02  0.00000000000E+00 0.  1.
         14    1    3    3    0    0  0.41739583374E+02  0.33867194797E+02 -0.35413054866E+03  0.35818657875E+03  0.00000000000E+00 0. -1.
        -13    1    4    4    0    0 -0.62587081518E+02 -0.16602556023E+03 -0.16788806574E+03  0.24427040762E+03  0.00000000000E+00 0. -1.
         13    1    4    4    0    0  0.24350134126E+02 -0.15900842358E+02 -0.33723193335E+02  0.44531108097E+02  0.00000000000E+00 0.  1.
         -2    1    1    2    0  502 -0.37740029116E+02  0.15411632056E+03 -0.67318238625E+03  0.69162900114E+03  0.00000000000E+00 0.  1.
<scales pt_clust_5="13000.00000" pt_clust_6="13000.00000" pt_clust_7="13000.00000" pt_clust_8="13000.00000" pt_clust_9="160.84527"></scales>
<clustering>
<clus scale="   79.553">  5  6 -1 -1</clus>
<clus scale="   90.553">  7  8 -1 -1</clus>
<clus scale="  113.466">  1  5  2 -1</clus>
<clus scale="  160.845">  2  9  1 -1</clus>
<clus scale="  160.845">  2  5  1 -1</clus>
</clustering>
</event>
<event>
 9    2  0.3745229E-005  0.9678228E+02  0.7546771E-02  0.1292204E+00
         -1   -1    0    0    0  501 -0.00000000000E+00  0.00000000000E+00  0.47457478680E+03  0.47457478680E+03  0.00000000000E+00 0.  1.
         21   -1    0    0  501  502  0.00000000000E+00 -0.00000000000E+00 -0.32130545620E+02  0.32130545620E+02  0.00000000000E+00 0.  1.
         23    2    1    2    0    0  0.48873427954E+01 -0.23394397905E+02  0.22407083607E+03  0.24254776574E+03  0.89724551372E+02 0.  0.
         24    2    1    2    0    0 -0.31213815897E+02  0.54606128898E+02  0.11914267768E+03  0.15685429271E+03  0.80325337718E+02 0.  0.
        -13    1    4    4    0    0 -0.53552952522E+02  0.58128391616E+02  0.97950246183E+02  0.12586134976E+03  0.00000000000E+00 0.  1.
         14    1    4    4    0    0  0.22339136625E+02 -0.35222627177E+01  0.21192431499E+02  0.30992942949E+02  0.00000000000E+00 0. -1.
        -11    1    3    3    0    0 -0.16136815500E+02  0.30488949726E+02  0.96399211459E+02  0.10238545229E+03  0.00000000000E+00 0.  1.
         11    1    3    3    0    0  0.21024158295E+02 -0.53883347631E+02  0.12767162461E+03  0.14016231346E+03  0.00000000000E+00 0. -1.
         -2    1    1    2    0  502  0.26326473101E+02 -0.31211730993E+02  0.99230727431E+02  0.10730327397E+03  0.00000000000E+00 0.  1.
<scales pt_clust_5="13000.00000" pt_clust_6="13000.00000" pt_clust_7="13000.00000" pt_clust_8="13000.00000" pt_clust_9="40.83206"></scales>
<clustering>
<clus scale="   40.832">  2  9  1 -1</clus>
<clus scale="   80.325">  5  6 -1 -1</clus>
<clus scale="   88.139">  2  5  1 -1</clus>
<clus scale="   89.725">  7  8 -1 -1</clus>
<clus scale="   40.832">  2  5  1 -1</clus>
</clustering>
</event>
<event>
 9    2  0.3745229E-005  0.1003011E+03  0.7546771E-02  0.1282968E+00
         21   -1    0    0  501  502  0.00000000000E+00  0.00000000000E+00  0.18551389762E+03  0.18551389762E+03  0.00000000000E+00 0. -1.
         -3   -1    0    0    0  501 -0.00000000000E+00 -0.00000000000E+00 -0.11439771464E+03  0.11439771464E+03  0.00000000000E+00 0.  1.
         23    2    1    2    0    0  0.43861703857E+02 -0.14153699017E+02 -0.57555159049E+02  0.11693406977E+03  0.90756840400E+02 0.  0.
         24    2    1    2    0    0 -0.26467461769E+02  0.19003811905E+01  0.13463901068E+03  0.16087965741E+03  0.83967035142E+02 0.  0.
        -13    1    4    4    0    0 -0.94984239344E+01  0.31996179263E+02  0.15440277417E+02  0.36774688460E+02  0.00000000000E+00 0.  1.
         14    1    4    4    0    0 -0.16969037835E+02 -0.30095798072E+02  0.11919873326E+03  0.12410496895E+03  0.00000000000E+00 0. -1.
        -13    1    3    3    0    0  0.65012839506E+02 -0.27285156147E+02 -0.59086521246E+02  0.91991119351E+02  0.00000000000E+00 0. -1.
         13    1    3    3    0    0 -0.21151135648E+02  0.13131457130E+02  0.15313621963E+01  0.24942950422E+02  0.00000000000E+00 0.  1.
         -4    1    1    2    0  502 -0.17394242088E+02  0.12253317826E+02 -0.59676686606E+01  0.22097885076E+02  0.00000000000E+00 0.  1.
<scales pt_clust_5="13000.00000" pt_clust_6="13000.00000" pt_clust_7="13000.00000" pt_clust_8="13000.00000" pt_clust_9="21.27684"></scales>
<clustering>
<clus scale="   21.277">  1  9  2 -1</clus>
<clus scale="   83.967">  5  6 -1 -1</clus>
<clus scale="   90.757">  7  8 -1 -1</clus>
<clus scale="   94.202">  1  5  2 -1</clus>
<clus scale="   21.277">  1  5  2 -1</clus>
</clustering>
</event>
<event>
 9    2  0.3745229E-005  0.1116787E+03  0.7546771E-02  0.1260972E+00
         21   -1    0    0  501  502  0.00000000000E+00  0.00000000000E+00  0.50405337800E+02  0.50405337800E+02  0.00000000000E+00 0. -1.
          2   -1    0    0  502    0 -0.00000000000E+00 -0.00000000000E+00 -0.76716197012E+03  0.76716197012E+03  0.00000000000E+00 0. -1.
         24    2    1    2    0    0  0.48287803578E+02  0.49414605699E+02 -0.22227264899E+03  0.24622648234E+03  0.80304638011E+02 0.  0.
         23    2    1    2    0    0  0.41782572284E+02 -0.96090054099E+02 -0.11827929183E+03  0.18169837409E+03  0.89695186212E+02 0.  0.
        -13    1    3    3    0    0  0.32096118323E+02 -0.95332626238E+01 -0.31770807584E+02  0.46156560988E+02  0.00000000000E+00 0.  1.
         14    1    3    3    0    0  0.16191685255E+02  0.58947868323E+02 -0.19050184140E+03  0.20006992135E+03  0.00000000000E+00 0. -1.
        -13    1    4    4    0    0  0.56353213882E+02 -0.67895888839E+02 -0.39320961815E+02  0.96600592514E+02  0.00000000000E+00 0. -1.
         13    1    4    4    0    0 -0.14570641599E+02 -0.28194165260E+02 -0.78958330013E+02  0.85097781579E+02  0.00000000000E+00 0.  1.
          1    1    1    2  501    0 -0.90070375862E+02  0.46675448400E+02 -0.37620469151E+03  0.38964245149E+03  0.00000000000E+00 0. -1.
<scales pt_clust_5="13000.00000" pt_clust_6="13000.00000" pt_clust_7="13000.00000" pt_clust_8="13000.00000" pt_clust_9="101.44595"></scales>
<clustering>
<clus scale="   80.305">  5  6 -1 -1</clus>
<clus scale="   89.695">  7  8 -1 -1</clus>
<clus scale="  101.446">  1  9  2 -1</clus>
<clus scale="  104.287">  2  5  1 -1</clus>
<clus scale="  101.446">  1  5  2 -1</clus>
</clustering>
</event>
<event>
 9    2  0.3745229E-005  0.9971365E+02  0.7546771E-02  0.1287750E+00
         21   -1    0    0  501  502  0.00000000000E+00  0.00000000000E+00  0.17239024166E+03  0.17239024166E+03  0.00000000000E+00 0.  1.
         -1   -1    0    0    0  501 -0.00000000000E+00 -0.00000000000E+00 -0.34303245261E+03  0.34303245261E+03  0.00000000000E+00 0.  1.
         23    2    1    2    0    0 -0.10542146740E+02 -0.25476392345E+02 -0.27963528500E+03  0.29643884343E+03  0.94445284945E+02 0.  0.
         24    2    1    2    0    0 -0.98415594573E+01  0.68960993005E+02  0.84854887268E+01  0.10759183730E+03  0.81556882520E+02 0.  0.
        -13    1    4    4    0    0  0.15193768274E+02  0.76422367492E+02 -0.52173245072E+01  0.78092568932E+02  0.00000000000E+00 0.  1.
         14    1    4    4    0    0 -0.25035327731E+02 -0.74613744871E+01  0.13702813234E+02  0.29499268370E+02  0.00000000000E+00 0. -1.
        -13    1    3    3    0    0 -0.41585203509E+02 -0.11417334925E+02 -0.24139746042E+03  0.24521912361E+03  0.00000000000E+00 0.  1.
         13    1    3    3    0    0  0.31043056769E+02 -0.14059057420E+02 -0.38237824586E+02  0.51219719818E+02  0.00000000000E+00 0. -1.
         -2    1    1    2    0  502  0.20383706197E+02 -0.43484600660E+02  0.10050758533E+03  0.11139201354E+03  0.00000000000E+00 0.  1.
<scales pt_clust_5="13000.00000" pt_clust_6="13000.00000" pt_clust_7="13000.00000" pt_clust_8="13000.00000" pt_clust_9="48.02506"></scales>
<clustering>
<clus scale="   48.025">  1  9  2 -1</clus>
<clus scale="   81.557">  5  6 -1 -1</clus>
<clus scale="   87.604">  1  5  2 -1</clus>
<clus scale="   94.445">  7  8 -1 -1</clus>
<clus scale="   48.025">  1  5  2 -1</clus>
</clustering>
</event>
<event>
 9    2  0.3745229E-005  0.9325634E+02  0.7546771E-02  0.1302205E+00
         -1   -1    0    0    0  501 -0.00000000000E+00  0.00000000000E+00  0.95366875409E+02  0.95366875409E+02  0.00000000000E+00 0.  1.
         21   -1    0    0  501  502  0.00000000000E+00 -0.00000000000E+00 -0.18015481399E+03  0.18015481399E+03  0.00000000000E+00 0.  1.
         23    2    1    2    0    0 -0.43623055340E+01 -0.26097433448E+02  0.11648602965E+02  0.95852801354E+02  0.91389079404E+02 0.  0.
         24    2    1    2    0    0 -0.11450314757E+02 -0.43227572213E+01 -0.11516327178E+03  0.14060333563E+03  0.79730313451E+02 0.  0.
        -11    1    4    4    0    0 -0.14207248360E+02 -0.38794138893E+02 -0.85834505960E+02  0.95259611231E+02  0.00000000000E+00 0.  1.
         12    1    4    4    0    0  0.27569336036E+01  0.34471381672E+02 -0.29328765824E+02  0.45343724395E+02  0.00000000000E+00 0. -1.
        -11    1    3    3    0    0 -0.14346459742E+02 -0.56109791722E+02 -0.82279179908E+01  0.58496395348E+02  0.00000000000E+00 0. -1.
         11    1    3    3    0    0  0.99841542079E+01  0.30012358274E+02  0.19876520956E+02  0.37356406006E+02  0.00000000000E+00 0.  1.
         -2    1    1    2    0  502  0.15812620291E+02  0.30420190670E+02  0.18726730234E+02  0.39065552423E+02  0.00000000000E+00 0.  1.
<scales pt_clust_5="13000.00000" pt_clust_6="13000.00000" pt_clust_7="13000.00000" pt_clust_8="13000.00000" pt_clust_9="34.28452"></scales>
<clustering>
<clus scale="   34.285">  2  9  1 -1</clus>
<clus scale="   79.730">  5  6 -1 -1</clus>
<clus scale="   81.864">  2  5  1 -1</clus>
<clus scale="   91.389">  7  8 -1 -1</clus>
<clus scale="   34.285">  2  5  1 -1</clus>
</clustering>
</event>
<event>
 9    2  0.3745229E-005  0.9581790E+02  0.7546771E-02  0.1297187E+00
         -3   -1    0    0    0  501 -0.00000000000E+00  0.00000000000E+00  0.47029637089E+03  0.47029637089E+03  0.00000000000E+00 0.  1.
         21   -1    0    0  501  502  0.00000000000E+00 -0.00000000000E+00 -0.47314849866E+02  0.47314849866E+02  0.00000000000E+00 0.  1.
         23    2    1    2    0    0  0.51191307505E+02  0.12503124422E+02  0.27818741600E+03  0.29744331588E+03  0.91144992485E+02 0.  0.
         24    2    1    2    0    0  0.27000245507E+02  0.22078603841E+01  0.48362970845E+02  0.95150723358E+02  0.77335601774E+02 0.  0.
        -11    1    4    4    0    0  0.38525345257E+02  0.24423331692E+02  0.52755312342E+02  0.69741123725E+02  0.00000000000E+00 0.  1.
         12    1    4    4    0    0 -0.11525099750E+02 -0.22215471308E+02 -0.43923414971E+01  0.25409599633E+02  0.00000000000E+00 0. -1.
        -13    1    3    3    0    0  0.48443724257E+02 -0.19851657390E+02  0.24676532535E+03  0.25225782152E+03  0.00000000000E+00 0.  1.
         13    1    3    3    0    0  0.27475832481E+01  0.32354781812E+02  0.31422090648E+02  0.45185494359E+02  0.00000000000E+00 0. -1.
         -4    1    1    2    0  502 -0.78191553012E+02 -0.14710984806E+02  0.96431134181E+02  0.12501718152E+03  0.00000000000E+00 0.  1.
<scales pt_clust_5="13000.00000" pt_clust_6="13000.00000" pt_clust_7="13000.00000" pt_clust_8="13000.00000" pt_clust_9="79.56338"></scales>
<clustering>
<clus scale="   77.336">  5  6 -1 -1</clus>
<clus scale="   79.563">  2  9  1 -1</clus>
<clus scale="   82.792">  2  5  1 -1</clus>
<clus scale="   91.145">  7  8 -1 -1</clus>
<clus scale="   79.563">  2  5  1 -1</clus>
</clustering>
</event>
<event>
 9    2  0.3745229E-005  0.1154766E+03  0.7546771E-02  0.1252585E+00
          2   -1    0    0  502    0 -0.00000000000E+00  0.00000000000E+00  0.34601351550E+03  0.34601351550E+03  0.00000000000E+00 0. -1.
         21   -1    0    0  501  502  0.00000000000E+00 -0.00000000000E+00 -0.18432211666E+03  0.18432211666E+03  0.00000000000E+00 0.  1.
         23    2    1    2    0    0 -0.32349469850E+02 -0.63457687168E+02  0.23975519611E+03  0.26446947144E+03  0.85954528674E+02 0.  0.
         24    2    1    2    0    0  0.90431415841E+02  0.11393020790E+03 -0.88436726758E+02  0.18822219466E+03  0.80303217121E+02 0.  0.
        -11    1    4    4    0    0  0.52761853401E+02  0.56933945298E+02 -0.91306606555E+02  0.11984232851E+03  0.00000000000E+00 0.  1.
         12    1    4    4    0    0  0.37669562440E+02  0.56996262600E+02  0.28698797978E+01  0.68379866151E+02  0.00000000000E+00 0. -1.
        -11    1    3    3    0    0 -0.32867708990E+02 -0.72661528416E+00  0.15818864026E+03  0.16156874751E+03  0.00000000000E+00 0.  1.
         11    1    3    3    0    0  0.51823913989E+00 -0.62731071884E+02  0.81566555848E+02  0.10290072393E+03  0.00000000000E+00 0. -1.
          1    1    1    2  501    0 -0.58081945991E+02 -0.50472520729E+02  0.10372929485E+02  0.77643966056E+02  0.00000000000E+00 0. -1.
<scales pt_clust_5="13000.00000" pt_clust_6="13000.00000" pt_clust_7="13000.00000" pt_clust_8="13000.00000" pt_clust_9="76.94796"></scales>
<clustering>
<clus scale="   76.948">  2  9  1 -1</clus>
<clus scale="   80.303">  5  6 -1 -1</clus>
<clus scale="   85.955">  7  8 -1 -1</clus>
<clus scale="  111.334">  2  5  1 -1</clus>
<clus scale="   76.948">  2  5  1 -1</clus>
</clustering>
</event>
<event>
 9    2  0.3745229E-005  0.1748111E+03  0.7546771E-02  0.1188578E+00
         21   -1    0    0  501  502  0.00000000000E+00  0.00000000000E+00  0.25075016261E+03  0.25075016261E+03  0.00000000000E+00 0.  1.
         -3   -1    0    0    0  501 -0.00000000000E+00 -0.00000000000E+00 -0.25935797955E+03  0.25935797955E+03  0.00000000000E+00 0.  1.
         23    2    1    2    0    0  0.82956616830E+02 -0.11483966972E+02 -0.85394487619E+02  0.14973977083E+03  0.90089392709E+02 0.  0.
         24    2    1    2    0    0 -0.11795915493E+02  0.15711337921E+03 -0.92748185574E+01  0.17685174796E+03  0.79791985486E+02 0.  0.
        -13    1    4    4    0    0 -0.14713099572E+02  0.11382007230E+03 -0.42308251883E+02  0.12231709747E+03  0.00000000000E+00 0.  1.
         14    1    4    4    0    0  0.29171840790E+01  0.43293306914E+02  0.33033433326E+02  0.54534650487E+02  0.00000000000E+00 0. -1.
        -13    1    3    3    0    0  0.99843212237E+02  0.12168921107E+01 -0.59183630592E+02  0.11607260653E+03  0.00000000000E+00 0.  1.
         13    1    3    3    0    0 -0.16886595408E+02 -0.12700859083E+02 -0.26210857027E+02  0.33667164300E+02  0.00000000000E+00 0. -1.
         -4    1    1    2    0  502 -0.71160701337E+02 -0.14562941224E+03  0.86061489231E+02  0.18351662337E+03  0.00000000000E+00 0.  1.
<scales pt_clust_5="13000.00000" pt_clust_6="13000.00000" pt_clust_7="13000.00000" pt_clust_8="13000.00000" pt_clust_9="155.53830"></scales>
<clustering>
<clus scale="   79.792">  5  6 -1 -1</clus>
<clus scale="   90.089">  7  8 -1 -1</clus>
<clus scale="  123.003">  2  7  1 -1</clus>
<clus scale="  155.538">  1  9  2 -1</clus>
<clus scale="  155.538">  1  5  2 -1</clus>
</clustering>
</event>
<event>
 9    2  0.3745229E-005  0.1164681E+03  0.7546771E-02  0.1253176E+00
         21   -1    0    0  501  502  0.00000000000E+00  0.00000000000E+00  0.29153206953E+03  0.29153206953E+03  0.00000000000E+00 0.  1.
         -3   -1    0    0    0  501 -0.00000000000E+00 -0.00000000000E+00 -0.14541809347E+03  0.14541809347E+03  0.00000000000E+00 0.  1.
         23    2    1    2    0    0  0.76288509142E+02  0.22863919142E+02 -0.75241082454E+02  0.14327373430E+03  0.92322516360E+02 0.  0.
         24    2    1    2    0    0 -0.33691942679E+02 -0.52297500655E+02  0.47345132063E+02  0.11212682749E+03  0.80378407160E+02 0.  0.
        -11    1    4    4    0    0 -0.93912318451E+01 -0.46025976529E+02 -0.11319873743E+02  0.48318995153E+02  0.00000000000E+00 0.  1.
         12    1    4    4    0    0 -0.24300710834E+02 -0.62715241263E+01  0.58665005806E+02  0.63807832342E+02  0.00000000000E+00 0. -1.
        -11    1    3    3    0    0  0.44870525809E+02  0.51602800959E+02 -0.73883422919E+02  0.10067260469E+03  0.00000000000E+00 0.  1.
         11    1    3    3    0    0  0.31417983333E+02 -0.28738881818E+02 -0.13576595354E+01  0.42601129612E+02  0.00000000000E+00 0. -1.
         -4    1    1    2    0  502 -0.42596566463E+02  0.29433581514E+02  0.17400992645E+03  0.18154960121E+03  0.00000000000E+00 0.  1.
<scales pt_clust_5="13000.00000" pt_clust_6="13000.00000" pt_clust_7="13000.00000" pt_clust_8="13000.00000" pt_clust_9="51.77647"></scales>
<clustering>
<clus scale="   51.776">  1  9  2 -1</clus>
<clus scale="   80.378">  5  6 -1 -1</clus>
<clus scale="   92.323">  7  8 -1 -1</clus>
<clus scale="  107.248">  1  5  2 -1</clus>
<clus scale="   51.776">  1  5  2 -1</clus>
</clustering>
</event>
<event>
 9    2  0.3745229E-005  0.1935997E+03  0.7546771E-02  0.1156097E+00
          2   -1    0    0  502    0 -0.00000000000E+00  0.00000000000E+00  0.14487479405E+04  0.14487479405E+04  0.00000000000E+00 0. -1.
         21   -1    0    0  501  502  0.00000000000E+00 -0.00000000000E+00 -0.61903996214E+02  0.61903996214E+02  0.00000000000E+00 0. -1.
         23    2    1    2    0    0  0.19273995336E+03  0.76525423167E+02  0.10688002283E+04  0.10925829230E+04  0.91644342896E+02 0.  0.
         24    2    1    2    0    0 -0.11814893531E+03 -0.22890724081E+01  0.26096009799E+03  0.29834685537E+03  0.83344241540E+02 0.  0.
        -13    1    4    4    0    0 -0.77816874442E+02  0.26703799206E+02  0.97845897056E+02  0.12783731228E+03  0.00000000000E+00 0.  1.
         14    1    4    4    0    0 -0.40332060870E+02 -0.28992871614E+02  0.16311420094E+03  0.17050954309E+03  0.00000000000E+00 0. -1.
        -11    1    3    3    0    0  0.68470110407E+02 -0.17647676927E+02  0.34820090541E+03  0.35530756683E+03  0.00000000000E+00 0.  1.
         11    1    3    3    0    0  0.12426984295E+03  0.94173100094E+02  0.72059932293E+03  0.73727535620E+03  0.00000000000E+00 0. -1.
          1    1    1    2  501    0 -0.74591018048E+02 -0.74236350759E+02  0.57083617911E+02  0.11972215827E+03  0.00000000000E+00 0. -1.
<scales pt_clust_5="13000.00000" pt_clust_6="13000.00000" pt_clust_7="13000.00000" pt_clust_8="13000.00000" pt_clust_9="105.23714"></scales>
<clustering>
<clus scale="   83.344">  5  6 -1 -1</clus>
<clus scale="   91.644">  7  8 -1 -1</clus>
<clus scale="  105.237">  2  9  1 -1</clus>
<clus scale="  189.811">  2  5  1 -1</clus>
<clus scale="  105.237">  2  5  1 -1</clus>
</clustering>
</event>
<event>
 9    2  0.3745229E-005  0.1151336E+03  0.7546771E-02  0.1265849E+00
         21   -1    0    0  501  502  0.00000000000E+00  0.00000000000E+00  0.49739559263E+03  0.49739559263E+03  0.00000000000E+00 0.  1.
         -1   -1    0    0    0  501 -0.00000000000E+00 -0.00000000000E+00 -0.18239088889E+03  0.18239088889E+03  0.00000000000E+00 0.  1.
         24    2    1    2    0    0  0.26562417069E+02  0.41794954318E+02 -0.80831179338E+02  0.12470654045E+03  0.81028769399E+02 0.  0.
         23    2    1    2    0    0 -0.13086348433E+02  0.18284134886E+02 -0.35983945853E+02  0.11889252030E+03  0.11106315734E+03 0.  0.
        -13    1    3    3    0    0 -0.50392129501E+01  0.36554736160E+02  0.91118024269E+00  0.36911687205E+02  0.00000000000E+00 0.  1.
         14    1    3    3    0    0  0.31601630019E+02  0.52402181583E+01 -0.81742359580E+02  0.87794853243E+02  0.00000000000E+00 0. -1.
        -13    1    4    4    0    0 -0.20227859007E+02  0.42988276093E+02  0.24292348796E+02  0.53359876044E+02  0.00000000000E+00 0. -1.
         13    1    4    4    0    0  0.71415105743E+01 -0.24704141207E+02 -0.60276294649E+02  0.65532644252E+02  0.00000000000E+00 0.  1.
         -2    1    1    2    0  502 -0.13476068636E+02 -0.60079089204E+02  0.43181982893E+03  0.43618742077E+03  0.00000000000E+00 0.  1.
<scales pt_clust_5="13000.00000" pt_clust_6="13000.00000" pt_clust_7="13000.00000" pt_clust_8="13000.00000" pt_clust_9="61.57192"></scales>
<clustering>
<clus scale="   61.572">  1  9  2 -1</clus>
<clus scale="   81.029">  5  6 -1 -1</clus>
<clus scale="   86.524">  2  5  1 -1</clus>
<clus scale="  111.063">  7  8 -1 -1</clus>
<clus scale="   61.572">  1  5  2 -1</clus>
</clustering>
</event>
<event>
 9    2  0.3745229E-005  0.9360434E+02  0.7546771E-02  0.1300714E+00
         -1   -1    0    0    0  501 -0.00000000000E+00  0.00000000000E+00  0.15154155802E+03  0.15154155802E+03  0.00000000000E+00 0.  1.
         21   -1    0    0  501  502  0.00000000000E+00 -0.00000000000E+00 -0.34520487276E+03  0.34520487276E+03  0.00000000000E+00 0.  1.
         23    2    1    2    0    0 -0.10313773447E+02  0.37035161329E+02  0.93270395846E+02  0.13612945029E+03  0.91399580942E+02 0.  0.
         24    2    1    2    0    0 -0.19080550753E+02  0.26717126495E+02 -0.26784658629E+02  0.91162142482E+02  0.80717073900E+02 0.  0.
        -13    1    4    4    0    0 -0.42087912780E+02  0.34247685905E+02  0.10517703736E+01  0.54271563575E+02  0.00000000000E+00 0.  1.
         14    1    4    4    0    0  0.23007362027E+02 -0.75305594103E+01 -0.27836429002E+02  0.36890578907E+02  0.00000000000E+00 0. -1.
        -11    1    3    3    0    0  0.35197739926E+02 -0.57517999175E+01  0.43558073214E+02  0.56296268440E+02  0.00000000000E+00 0.  1.
         11    1    3    3    0    0 -0.45511513372E+02  0.42786961246E+02  0.49712322631E+02  0.79833181845E+02  0.00000000000E+00 0. -1.
         -2    1    1    2    0  502  0.29394324199E+02 -0.63752287823E+02 -0.26014905195E+03  0.26945483801E+03  0.00000000000E+00 0.  1.
<scales pt_clust_5="13000.00000" pt_clust_6="13000.00000" pt_clust_7="13000.00000" pt_clust_8="13000.00000" pt_clust_9="70.20243"></scales>
<clustering>
<clus scale="   70.202">  2  9  1 -1</clus>
<clus scale="   80.717">  5  6 -1 -1</clus>
<clus scale="   83.205">  2  5  1 -1</clus>
<clus scale="   91.400">  7  8 -1 -1</clus>
<clus scale="   70.202">  2  5  1 -1</clus>
</clustering>
</event>
<event>
 9    2  0.3745229E-005  0.9362973E+02  0.7546771E-02  0.1306657E+00
          2   -1    0    0  502    0 -0.00000000000E+00  0.00000000000E+00  0.78092755052E+02  0.78092755052E+02  0.00000000000E+00 0. -1.
         21   -1    0    0  501  502  0.00000000000E+00 -0.00000000000E+00 -0.16222771180E+03  0.16222771180E+03  0.00000000000E+00 0.  1.
         24    2    1    2    0    0  0.12552947417E+02  0.78492195263E+01 -0.12075318999E+02  0.76256391330E+02  0.73824366938E+02 0.  0.
         23    2    1    2    0    0 -0.49954722001E+01  0.17382334288E+02 -0.91173989749E+02  0.13152017914E+03  0.93047089301E+02 0.  0.
        -13    1    3    3    0    0  0.41131234176E+02  0.11071384563E+02 -0.19053551887E+02  0.46662531226E+02  0.00000000000E+00 0.  1.
         14    1    3    3    0    0 -0.28578286759E+02 -0.32221650368E+01  0.69782328883E+01  0.29593860104E+02  0.00000000000E+00 0. -1.
        -11    1    4    4    0    0 -0.16977110216E+01  0.42096655678E+02 -0.97140058913E+02  0.10588296222E+03  0.00000000000E+00 0.  1.
         11    1    4    4    0    0 -0.32977611785E+01 -0.24714321390E+02  0.59660691639E+01  0.25637216928E+02  0.00000000000E+00 0. -1.
          1    1    1    2  501    0 -0.75574752166E+01 -0.25231553815E+02  0.19114351996E+02  0.32543896383E+02  0.00000000000E+00 0. -1.
<scales pt_clust_5="13000.00000" pt_clust_6="13000.00000" pt_clust_7="13000.00000" pt_clust_8="13000.00000" pt_clust_9="26.33909"></scales>
<clustering>
<clus scale="   26.339">  2  9  1 -1</clus>
<clus scale="   73.824">  5  6 -1 -1</clus>
<clus scale="   74.557">  1  5  2 -1</clus>
<clus scale="   93.047">  7  8 -1 -1</clus>
<clus scale="   26.339">  2  5  1 -1</clus>
</clustering>
</event>
<event>
 9    2  0.3745229E-005  0.1191436E+03  0.7546771E-02  0.1247205E+00
          2   -1    0    0  502    0 -0.00000000000E+00  0.00000000000E+00  0.32340703235E+03  0.32340703235E+03  0.00000000000E+00 0. -1.
         21   -1    0    0  501  502  0.00000000000E+00 -0.00000000000E+00 -0.21734832926E+03  0.21734832926E+03  0.00000000000E+00 0. -1.
         23    2    1    2    0    0 -0.74311119695E+02  0.12781296779E+01  0.28159256803E+03  0.30535513309E+03  0.91780209261E+02 0.  0.
         24    2    1    2    0    0  0.99565590190E+02 -0.95145801111E+01 -0.14650528069E+03  0.19605196173E+03  0.83478982039E+02 0.  0.
        -11    1    4    4    0    0  0.72078059968E+02  0.20011615496E+02 -0.13460252708E+03  0.15399205103E+03  0.00000000000E+00 0.  1.
         12    1    4    4    0    0  0.27487530222E+02 -0.29526195607E+02 -0.11902753616E+02  0.42059910704E+02  0.00000000000E+00 0. -1.
        -13    1    3    3    0    0  0.10497045162E+02 -0.24255117307E+02  0.39100665777E+02  0.47194922787E+02  0.00000000000E+00 0.  1.
         13    1    3    3    0    0 -0.84808164857E+02  0.25533246984E+02  0.24249190225E+03  0.25816021030E+03  0.00000000000E+00 0. -1.
          1    1    1    2  501    0 -0.25254470495E+02  0.82364504332E+01 -0.29028584241E+02  0.39348266782E+02  0.00000000000E+00 0. -1.
<scales pt_clust_5="13000.00000" pt_clust_6="13000.00000" pt_clust_7="13000.00000" pt_clust_8="13000.00000" pt_clust_9="26.56365"></scales>
<clustering>
<clus scale="   26.564">  2  9  1 -1</clus>
<clus scale="   83.479">  5  6 -1 -1</clus>
<clus scale="   91.780">  7  8 -1 -1</clus>
<clus scale="  112.873">  2  5  1 -1</clus>
<clus scale="   26.564">  2  5  1 -1</clus>
</clustering>
</event>
<event>
 9    2  0.3745229E-005  0.9976528E+02  0.7546771E-02  0.1288618E+00
          2   -1    0    0  502    0 -0.00000000000E+00  0.00000000000E+00  0.11215758821E+04  0.11215758821E+04  0.00000000000E+00 0. -1.
         21   -1    0    0  501  502  0.00000000000E+00 -0.00000000000E+00 -0.17047598657E+02  0.17047598657E+02  0.00000000000E+00 0. -1.
         24    2    1    2    0    0 -0.15616075817E+02 -0.27017778067E+02  0.52805947066E+03  0.53494201228E+03  0.79638745531E+02 0.  0.
         23    2    1    2    0    0 -0.45228742964E+02  0.47300998806E+02  0.35292432549E+03  0.37111827531E+03  0.94287703717E+02 0.  0.
        -11    1    3    3    0    0  0.18577126906E+02  0.14084820250E+02  0.70163619481E+02  0.73935277806E+02  0.00000000000E+00 0.  1.
         12    1    3    3    0    0 -0.34193202722E+02 -0.41102598318E+02  0.45789585118E+03  0.46100673447E+03  0.00000000000E+00 0. -1.
        -11    1    4    4    0    0 -0.31301703423E+02  0.72578076211E+02  0.19210408376E+03  0.20772903693E+03  0.00000000000E+00 0. -1.
         11    1    4    4    0    0 -0.13927039541E+02 -0.25277077404E+02  0.16082024172E+03  0.16338923838E+03  0.00000000000E+00 0.  1.
          1    1    1    2  501    0  0.60844818781E+02 -0.20283220739E+02  0.22354448733E+03  0.23256319320E+03  0.00000000000E+00 0. -1.
<scales pt_clust_5="13000.00000" pt_clust_6="13000.00000" pt_clust_7="13000.00000" pt_clust_8="13000.00000" pt_clust_9="64.13658"></scales>
<clustering>
<clus scale="   64.137">  2  9  1 -1</clus>
<clus scale="   79.639">  5  6 -1 -1</clus>
<clus scale="   86.054">  1  5  2 -1</clus>
<clus scale="   94.288">  7  8 -1 -1</clus>
<clus scale="   64.137">  2  5  1 -1</clus>
</clustering>
</event>
<event>
 9    2  0.3745229E-005  0.1170946E+03  0.7546771E-02  0.1250539E+00
          2   -1    0    0  502    0 -0.00000000000E+00  0.00000000000E+00  0.10929140626E+04  0.10929140626E+04  0.00000000000E+00 0. -1.
         21   -1    0    0  501  502  0.00000000000E+00 -0.00000000000E+00 -0.21431225637E+02  0.21431225637E+02  0.00000000000E+00 0.  1.
         24    2    1    2    0    0  0.74607281869E+00  0.79471476547E+02  0.78368450990E+03  0.79212316323E+03  0.83554906847E+02 0.  0.
         23    2    1    2    0    0  0.24217926914E+02 -0.53373655123E+02  0.20557732719E+03  0.23241906055E+03  0.91221308958E+02 0.  0.
        -11    1    3    3    0    0 -0.20463919596E+01  0.77615072578E+02  0.35352426849E+03  0.36194985236E+03  0.00000000000E+00 0.  1.
         12    1    3    3    0    0  0.27924647783E+01  0.18564039691E+01  0.43016024141E+03  0.43017331087E+03  0.00000000000E+00 0. -1.
        -13    1    4    4    0    0 -0.13590957640E+02 -0.38615694516E+02  0.26421933145E+02  0.48723757487E+02  0.00000000000E+00 0.  1.
         13    1    4    4    0    0  0.37808884554E+02 -0.14757960607E+02  0.17915539405E+03  0.18369530307E+03  0.00000000000E+00 0. -1.
          1    1    1    2  501    0 -0.24963999732E+02 -0.26097821425E+02  0.82220999887E+02  0.89803064470E+02  0.00000000000E+00 0. -1.
<scales pt_clust_5="13000.00000" pt_clust_6="13000.00000" pt_clust_7="13000.00000" pt_clust_8="13000.00000" pt_clust_9="36.11506"></scales>
<clustering>
<clus scale="   36.115">  2  9  1 -1</clus>
<clus scale="   83.555">  5  6 -1 -1</clus>
<clus scale="   91.221">  7  8 -1 -1</clus>
<clus scale="  111.226">  1  5  2 -1</clus>
<clus scale="   36.115">  2  5  1 -1</clus>
</clustering>
</event>
<event>
 9    2  0.3745229E-005  0.1094128E+03  0.7546771E-02  0.1266873E+00
         -1   -1    0    0    0  501 -0.00000000000E+00  0.00000000000E+00  0.42780806862E+03  0.42780806862E+03  0.00000000000E+00 0.  1.
         21   -1    0    0  501  502  0.00000000000E+00 -0.00000000000E+00 -0.14728039745E+03  0.14728039745E+03  0.00000000000E+00 0.  1.
         24    2    1    2    0    0  0.66553673152E+02  0.52787659638E+02  0.31033091611E+03  0.33115983953E+03  0.78394090375E+02 0.  0.
         23    2    1    2    0    0 -0.58122992019E+01 -0.38254643914E+01  0.71379897750E+02  0.11615993147E+03  0.91376270861E+02 0.  0.
        -13    1    3    3    0    0  0.48961379466E+02  0.30847938210E+02  0.29179668777E+03  0.29747961100E+03  0.00000000000E+00 0.  1.
         14    1    3    3    0    0  0.17592293686E+02  0.21939721429E+02  0.18534228342E+02  0.33680228528E+02  0.00000000000E+00 0. -1.
        -11    1    4    4    0    0  0.25743201972E+02 -0.14323590741E+02 -0.76339192404E+01  0.30432785322E+02  0.00000000000E+00 0.  1.
         11    1    4    4    0    0 -0.31555501174E+02  0.10498126350E+02  0.79013816990E+02  0.85727146147E+02  0.00000000000E+00 0. -1.
         -2    1    1    2    0  502 -0.60741373950E+02 -0.48962195247E+02 -0.10118314269E+03  0.12776869506E+03  0.00000000000E+00 0.  1.
<scales pt_clust_5="13000.00000" pt_clust_6="13000.00000" pt_clust_7="13000.00000" pt_clust_8="13000.00000" pt_clust_9="78.01802"></scales>
<clustering>
<clus scale="   78.018">  2  9  1 -1</clus>
<clus scale="   78.394">  5  6 -1 -1</clus>
<clus scale="   91.376">  7  8 -1 -1</clus>
<clus scale="   98.829">  1  5  2 -1</clus>
<clus scale="   78.018">  2  5  1 -1</clus>
</clustering>
</event>
<event>
 9    2  0.3745229E-005  0.1576556E+03  0.7546771E-02  0.1219549E+00
          2   -1    0    0  502    0 -0.00000000000E+00  0.00000000000E+00  0.12577873397E+03  0.12577873397E+03  0.00000000000E+00 0. -1.
         21   -1    0    0  501  502  0.00000000000E+00 -0.00000000000E+00 -0.56771906864E+03  0.56771906864E+03  0.00000000000E+00 0. -1.
         24    2    1    2    0    0  0.23139242365E+02 -0.15885958993E+02 -0.14312664297E+03  0.16695931469E+03  0.81255083558E+02 0.  0.
         23    2    1    2    0    0 -0.11364056356E+03 -0.62649446113E+02 -0.35882369258E+03  0.39252543184E+03  0.92101256796E+02 0.  0.
        -11    1    3    3    0    0 -0.11175338871E+02 -0.30461167191E+02 -0.11704764618E+03  0.12146160867E+03  0.00000000000E+00 0.  1.
         12    1    3    3    0    0  0.34314581236E+02  0.14575208198E+02 -0.26078996797E+02  0.45497706023E+02  0.00000000000E+00 0. -1.
        -13    1    4    4    0    0 -0.57058195942E+02 -0.33728563187E+02 -0.68457777038E+02  0.95287569681E+02  0.00000000000E+00 0.  1.
         13    1    4    4    0    0 -0.56582367616E+02 -0.28920882926E+02 -0.29036591554E+03  0.29723786216E+03  0.00000000000E+00 0. -1.
          1    1    1    2  501    0  0.90501321193E+02  0.78535405106E+02  0.60010000874E+02  0.13401305607E+03  0.00000000000E+00 0. -1.
<scales pt_clust_5="13000.00000" pt_clust_6="13000.00000" pt_clust_7="13000.00000" pt_clust_8="13000.00000" pt_clust_9="127.95572"></scales>
<clustering>
<clus scale="   81.255">  5  6 -1 -1</clus>
<clus scale="   85.966">  1  5  2 -1</clus>
<clus scale="   92.101">  7  8 -1 -1</clus>
<clus scale="  127.956">  2  9  1 -1</clus>
<clus scale="  127.956">  2  5  1 -1</clus>
</clustering>
</event>
<event>
 9    2  0.3745229E-005  0.1037669E+03  0.7546771E-02  0.1277286E+00
         21   -1    0    0  501  502  0.00000000000E+00  0.00000000000E+00  0.31707246311E+03  0.31707246311E+03  0.00000000000E+00 0. -1.
         -1   -1    0    0    0  501 -0.00000000000E+00 -0.00000000000E+00 -0.81359333000E+02  0.81359333000E+02  0.00000000000E+00 0.  1.
         23    2    1    2    0    0 -0.37122524997E+02  0.39630459537E+02  0.11294043451E+02  0.10612379842E+03  0.90476792536E+02 0.  0.
         24    2    1    2    0    0  0.12989320945E+02 -0.36255603730E+02  0.24488239359E+03  0.26048743642E+03  0.80019538721E+02 0.  0.
        -11    1    4    4    0    0  0.24714154476E+02  0.48161791106E+01  0.21654571244E+02  0.33210020603E+02  0.00000000000E+00 0.  1.
         12    1    4    4    0    0 -0.11724833530E+02 -0.41071782841E+02  0.22322782235E+03  0.22727741581E+03  0.00000000000E+00 0. -1.
        -13    1    3    3    0    0 -0.42133523616E+02  0.18389308828E+02 -0.33104871380E+02  0.56650975283E+02  0.00000000000E+00 0. -1.
         13    1    3    3    0    0  0.50109986190E+01  0.21241150709E+02  0.44398914831E+02  0.49472823133E+02  0.00000000000E+00 0.  1.
         -2    1    1    2    0  502  0.24133204052E+02 -0.33748558065E+01 -0.20463306934E+02  0.31820561280E+02  0.00000000000E+00 0.  1.
<scales pt_clust_5="13000.00000" pt_clust_6="13000.00000" pt_clust_7="13000.00000" pt_clust_8="13000.00000" pt_clust_9="24.36805"></scales>
<clustering>
<clus scale="   24.368">  1  9  2 -1</clus>
<clus scale="   80.020">  5  6 -1 -1</clus>
<clus scale="   90.477">  7  8 -1 -1</clus>
<clus scale="   94.787">  1  5  2 -1</clus>
<clus scale="   24.368">  1  5  2 -1</clus>
</clustering>
</event>
<event>
 9    2  0.3745229E-005  0.1249984E+03  0.7546771E-02  0.1256189E+00
          2   -1    0    0  502    0 -0.00000000000E+00  0.00000000000E+00  0.67844381190E+03  0.67844381190E+03  0.00000000000E+00 0. -1.
         21   -1    0    0  501  502  0.00000000000E+00 -0.00000000000E+00 -0.44773984222E+02  0.44773984222E+02  0.00000000000E+00 0. -1.
         24    2    1    2    0    0  0.17176631661E+02  0.38264270977E+01  0.16704947278E+03  0.18596863899E+03  0.79806829999E+02 0.  0.
         23    2    1    2    0    0 -0.33443329991E+02 -0.88099233756E+02  0.41968835180E+03  0.43942725604E+03  0.89878080789E+02 0.  0.
        -11    1    3    3    0    0  0.39617412356E+02 -0.50171088791E+01  0.15284670179E+03  0.15797729264E+03  0.00000000000E+00 0.  1.
         12    1    3    3    0    0 -0.22440780696E+02  0.88435359768E+01  0.14202770991E+02  0.27991346353E+02  0.00000000000E+00 0. -1.
        -11    1    4    4    0    0 -0.41330161377E+02 -0.11859687768E+02  0.24382440450E+03  0.24758670130E+03  0.00000000000E+00 0.  1.
         11    1    4    4    0    0  0.78868313855E+01 -0.76239545987E+02  0.17586394730E+03  0.19184055474E+03  0.00000000000E+00 0. -1.
          1    1    1    2  501    0  0.16266698331E+02  0.84272806658E+02  0.46932003094E+02  0.97821901081E+02  0.00000000000E+00 0. -1.
<scales pt_clust_5="13000.00000" pt_clust_6="13000.00000" pt_clust_7="13000.00000" pt_clust_8="13000.00000" pt_clust_9="86.87074"></scales>
<clustering>
<clus scale="   79.807">  5  6 -1 -1</clus>
<clus scale="   81.724">  1  5  2 -1</clus>
<clus scale="   86.871">  2  9  1 -1</clus>
<clus scale="   89.878">  7  8 -1 -1</clus>
<clus scale="   86.871">  2  5  1 -1</clus>
</clustering>
</event>
<event>
 9    2  0.3745229E-005  0.1287701E+03  0.7546771E-02  0.1232197E+00
         21   -1    0    0  501  502  0.00000000000E+00  0.00000000000E+00  0.22365663384E+03  0.22365663384E+03  0.00000000000E+00 0.  1.
         -1   -1    0    0    0  501 -0.00000000000E+00 -0.00000000000E+00 -0.43023127708E+03  0.43023127708E+03  0.00000000000E+00 0.  1.
         24    2    1    2    0    0 -0.70134815455E+02 -0.53775831064E+02 -0.35816945266E+03  0.37739657502E+03  0.79574403384E+02 0.  0.
         23    2    1    2    0    0  0.11690938373E+03  0.56404974856E+02  0.52301159287E+02  0.16670061866E+03  0.90577921181E+02 0.  0.
        -13    1    3    3    0    0 -0.64291789266E+02 -0.47206896516E+02 -0.15759805768E+03  0.17663259334E+03  0.00000000000E+00 0.  1.
         14    1    3    3    0    0 -0.58430261883E+01 -0.65689345481E+01 -0.20057139498E+03  0.20076398168E+03  0.00000000000E+00 0. -1.
        -13    1    4    4    0    0  0.11003385594E+03  0.90247517165E+01  0.35954518720E+02  0.11611039149E+03  0.00000000000E+00 0.  1.
         13    1    4    4    0    0  0.68755277981E+01  0.47380223139E+02  0.16346640568E+02  0.50590227170E+02  0.00000000000E+00 0. -1.
         -2    1    1    2    0  502 -0.46774568280E+02 -0.26291437919E+01  0.99293650131E+02  0.10979071724E+03  0.00000000000E+00 0.  1.
<scales pt_clust_5="13000.00000" pt_clust_6="13000.00000" pt_clust_7="13000.00000" pt_clust_8="13000.00000" pt_clust_9="46.84840"></scales>
<clustering>
<clus scale="   46.848">  1  9  2 -1</clus>
<clus scale="   79.574">  5  6 -1 -1</clus>
<clus scale="   90.578">  7  8 -1 -1</clus>
<clus scale="  121.283">  2  5  1 -1</clus>
<clus scale="   46.848">  1  5  2 -1</clus>
</clustering>
</event>
<event>
 9    2  0.3745229E-005  0.3529524E+03  0.7546771E-02  0.1073730E+00
          2   -1    0    0  502    0 -0.00000000000E+00  0.00000000000E+00  0.68154751789E+03  0.68154751789E+03  0.00000000000E+00 0. -1.
         21   -1    0    0  501  502  0.00000000000E+00 -0.00000000000E+00 -0.40473533837E+03  0.40473533837E+03  0.00000000000E+00 0. -1.
         23    2    1    2    0    0 -0.23215412145E+03  0.44254485780E+02  0.23542555592E+03  0.34432369259E+03  0.85320673227E+02 0.  0.
         24    2    1    2    0    0  0.41615658673E+03  0.16823800248E+03 -0.94886192867E+01  0.45630508067E+03  0.81449141143E+02 0.  0.
        -13    1    4    4    0    0  0.11505374202E+03  0.12622404530E+02  0.13820565081E+02  0.11656627586E+03  0.00000000000E+00 0.  1.
         14    1    4    4    0    0  0.30110284471E+03  0.15561559795E+03 -0.23309184368E+02  0.33973880481E+03  0.00000000000E+00 0. -1.
        -13    1    3    3    0    0 -0.89463202228E+02 -0.24647775797E+02  0.85339063179E+02  0.12607114305E+03  0.00000000000E+00 0.  1.
         13    1    3    3    0    0 -0.14269091922E+03  0.68902261577E+02  0.15008649274E+03  0.21825254954E+03  0.00000000000E+00 0. -1.
          1    1    1    2  501    0 -0.18400246528E+03 -0.21249248826E+03  0.50875242885E+02  0.28565408300E+03  0.00000000000E+00 0. -1.
<scales pt_clust_5="13000.00000" pt_clust_6="13000.00000" pt_clust_7="13000.00000" pt_clust_8="13000.00000" pt_clust_9="343.42602"></scales>
<clustering>
<clus scale="   81.449">  5  6 -1 -1</clus>
<clus scale="   85.321">  7  8 -1 -1</clus>
<clus scale="  251.264">  1  7  2 -1</clus>
<clus scale="  343.426">  2  9  1 -1</clus>
<clus scale="  343.426">  2  5  1 -1</clus>
</clustering>
</event>
<event>
 9    2  0.3745229E-005  0.1226654E+03  0.7546771E-02  0.1241804E+00
         -1   -1    0    0    0  501 -0.00000000000E+00  0.00000000000E+00  0.45005520343E+03  0.45005520343E+03  0.00000000000E+00 0.  1.
         21   -1    0    0  501  502  0.00000000000E+00 -0.00000000000E+00 -0.73590179764E+02  0.73590179764E+02  0.00000000000E+00 0. -1.
         23    2    1    2    0    0  0.94715096998E+02 -0.17935006810E+00  0.30338186055E+03  0.33043703107E+03  0.90427299138E+02 0.  0.
         24    2    1    2    0    0 -0.54061224240E+02 -0.46893562032E+02  0.74870161950E+02  0.13098464452E+03  0.80186119887E+02 0.  0.
        -11    1    4    4    0    0  0.20581057053E+02 -0.17043406365E+02  0.23485167388E+02  0.35575422656E+02  0.00000000000E+00 0.  1.
         12    1    4    4    0    0 -0.74642281293E+02 -0.29850155667E+02  0.51384994563E+02  0.95409221861E+02  0.00000000000E+00 0. -1.
        -13    1    3    3    0    0  0.10091721576E+03  0.25004392108E+02  0.25809477924E+03  0.27824884390E+03  0.00000000000E+00 0.  1.
         13    1    3    3    0    0 -0.62021187590E+01 -0.25183742176E+02  0.45287081310E+02  0.52188187175E+02  0.00000000000E+00 0. -1.
         -2    1    1    2    0  502 -0.40653872758E+02  0.47072912100E+02 -0.17869988269E+01  0.62223707609E+02  0.00000000000E+00 0.  1.
<scales pt_clust_5="13000.00000" pt_clust_6="13000.00000" pt_clust_7="13000.00000" pt_clust_8="13000.00000" pt_clust_9="62.19804"></scales>
<clustering>
<clus scale="   62.198">  2  9  1 -1</clus>
<clus scale="   80.186">  5  6 -1 -1</clus>
<clus scale="   90.427">  7  8 -1 -1</clus>
<clus scale="  115.324">  2  5  1 -1</clus>
<clus scale="   62.198">  2  5  1 -1</clus>
</clustering>
</event>
<event>
 9    2  0.3745229E-005  0.1693148E+03  0.7546771E-02  0.1198153E+00
         21   -1    0    0  501  502  0.00000000000E+00  0.00000000000E+00  0.31655274919E+03  0.31655274919E+03  0.00000000000E+00 0.  1.
         -1   -1    0    0    0  501 -0.00000000000E+00 -0.00000000000E+00 -0.17133945653E+03  0.17133945653E+03  0.00000000000E+00 0.  1.
         23    2    1    2    0    0  0.44567071152E+02  0.43615333235E+02 -0.27751824789E+02  0.11315169217E+03  0.90247551422E+02 0.  0.
         24    2    1    2    0    0 -0.15099692038E+03  0.49393117658E+02  0.14680124804E+03  0.23099618215E+03  0.81048625571E+02 0.  0.
        -13    1    4    4    0    0 -0.14575231484E+03  0.65064877833E+02  0.14237565296E+03  0.21388782612E+03  0.00000000000E+00 0.  1.
         14    1    4    4    0    0 -0.52446055484E+01 -0.15671760175E+02  0.44255950778E+01  0.17108356032E+02  0.00000000000E+00 0. -1.
        -13    1    3    3    0    0 -0.27795366630E+02  0.16926596348E+02 -0.93354732049E+01  0.33856212576E+02  0.00000000000E+00 0.  1.
         13    1    3    3    0    0  0.72362437782E+02  0.26688736887E+02 -0.18416351585E+02  0.79295479594E+02  0.00000000000E+00 0. -1.
         -2    1    1    2    0  502  0.10642984923E+03 -0.93008450893E+02  0.26163869407E+02  0.14374433139E+03  0.00000000000E+00 0.  1.
<scales pt_clust_5="13000.00000" pt_clust_6="13000.00000" pt_clust_7="13000.00000" pt_clust_8="13000.00000" pt_clust_9="148.65609"></scales>
<clustering>
<clus scale="   81.049">  5  6 -1 -1</clus>
<clus scale="   90.248">  7  8 -1 -1</clus>
<clus scale="  109.696">  2  7  1 -1</clus>
<clus scale="  148.656">  1  9  2 -1</clus>
<clus scale="  148.656">  1  5  2 -1</clus>
</clustering>
</event>
<event>
 9    2  0.3745229E-005  0.9835888E+02  0.7546771E-02  0.1286489E+00
          2   -1    0    0  502    0 -0.00000000000E+00  0.00000000000E+00  0.18056263438E+04  0.18056263438E+04  0.00000000000E+00 0. -1.
         21   -1    0    0  501  502  0.00000000000E+00 -0.00000000000E+00 -0.12946190397E+02  0.12946190397E+02  0.00000000000E+00 0. -1.
         24    2    1    2    0    0 -0.52857609650E+02 -0.11322824104E+02  0.15091221567E+04  0.15121495959E+04  0.78896027540E+02 0.  0.
         23    2    1    2    0    0  0.28772058407E+02  0.47156189665E+01  0.24085473045E+03  0.25695236237E+03  0.84637148686E+02 0.  0.
        -11    1    3    3    0    0 -0.24056026586E+02  0.64530504332E+01  0.11725755823E+03  0.11987355521E+03  0.00000000000E+00 0.  1.
         12    1    3    3    0    0 -0.28801583064E+02 -0.17775874537E+02  0.13918645985E+04  0.13922760407E+04  0.00000000000E+00 0. -1.
        -13    1    4    4    0    0 -0.17054656283E+02  0.31546829037E+02  0.83386056901E+02  0.90770580083E+02  0.00000000000E+00 0.  1.
         13    1    4    4    0    0  0.45826714690E+02 -0.26831210070E+02  0.15746867355E+03  0.16618178228E+03  0.00000000000E+00 0. -1.
          1    1    1    2  501    0  0.24085551243E+02  0.66072051376E+01  0.42703266236E+02  0.49470575958E+02  0.00000000000E+00 0. -1.
<scales pt_clust_5="13000.00000" pt_clust_6="13000.00000" pt_clust_7="13000.00000" pt_clust_8="13000.00000" pt_clust_9="24.97537"></scales>
<clustering>
<clus scale="   24.975">  2  9  1 -1</clus>
<clus scale="   78.896">  5  6 -1 -1</clus>
<clus scale="   84.637">  7  8 -1 -1</clus>
<clus scale="   93.464">  1  5  2 -1</clus>
<clus scale="   24.975">  2  5  1 -1</clus>
</clustering>
</event>
<event>
 9    2  0.3745229E-005  0.9462616E+02  0.7546771E-02  0.1297814E+00
         -1   -1    0    0    0  501 -0.00000000000E+00  0.00000000000E+00  0.25599037733E+03  0.25599037733E+03  0.00000000000E+00 0.  1.
         21   -1    0    0  501  502  0.00000000000E+00 -0.00000000000E+00 -0.13742081054E+03  0.13742081054E+03  0.00000000000E+00 0. -1.
         23    2    1    2    0    0 -0.23254836358E+02 -0.10008373052E+02  0.21890429995E+03  0.23829052644E+03  0.90677050630E+02 0.  0.
         24    2    1    2    0    0  0.33041386885E+02  0.30886031056E+02 -0.65094863942E+02  0.11300769957E+03  0.80546376010E+02 0.  0.
        -13    1    4    4    0    0 -0.18266056602E+01 -0.25396289871E+02 -0.24561523051E+02  0.35377626291E+02  0.00000000000E+00 0.  1.
         14    1    4    4    0    0  0.34867992545E+02  0.56282320927E+02 -0.40533340892E+02  0.77630073276E+02  0.00000000000E+00 0. -1.
        -13    1    3    3    0    0 -0.19225533699E+02 -0.47530344176E+02  0.85916298249E+02  0.10005181192E+03  0.00000000000E+00 0.  1.
         13    1    3    3    0    0 -0.40293026598E+01  0.37521971124E+02  0.13298800170E+03  0.13823871452E+03  0.00000000000E+00 0. -1.
         -2    1    1    2    0  502 -0.97865505270E+01 -0.20877658004E+02 -0.35239869210E+02  0.42112961863E+02  0.00000000000E+00 0.  1.
<scales pt_clust_5="13000.00000" pt_clust_6="13000.00000" pt_clust_7="13000.00000" pt_clust_8="13000.00000" pt_clust_9="23.05761"></scales>
<clustering>
<clus scale="   23.058">  2  9  1 -1</clus>
<clus scale="   80.546">  5  6 -1 -1</clus>
<clus scale="   84.968">  2  5  1 -1</clus>
<clus scale="   90.677">  7  8 -1 -1</clus>
<clus scale="   23.058">  2  5  1 -1</clus>
</clustering>
</event>
<event>
 9    2  0.3745229E-005  0.1024821E+03  0.7546771E-02  0.1281407E+00
         21   -1    0    0  501  502  0.00000000000E+00  0.00000000000E+00  0.34011633770E+03  0.34011633770E+03  0.00000000000E+00 0.  1.
          2   -1    0    0  502    0 -0.00000000000E+00 -0.00000000000E+00 -0.76761587637E+02  0.76761587637E+02  0.00000000000E+00 0. -1.
         24    2    1    2    0    0 -0.47198196675E+02 -0.26273657489E+02  0.18264795743E+01  0.94399962387E+02  0.77395361772E+02 0.  0.
         23    2    1    2    0    0  0.40216044087E+02  0.13335448429E+01  0.53202695788E+02  0.11254867784E+03  0.90650810807E+02 0.  0.
        -11    1    3    3    0    0 -0.47064904920E+02 -0.37456535118E+02  0.27692956103E+02  0.66219310748E+02  0.00000000000E+00 0.  1.
         12    1    3    3    0    0 -0.13329175503E+00  0.11182877629E+02 -0.25866476529E+02  0.28180651639E+02  0.00000000000E+00 0. -1.
        -11    1    4    4    0    0  0.15385635252E+02  0.26125615524E+02 -0.16495665217E+02  0.34516264711E+02  0.00000000000E+00 0. -1.
         11    1    4    4    0    0  0.24830408835E+02 -0.24792070681E+02  0.69698361005E+02  0.78032413127E+02  0.00000000000E+00 0.  1.
          1    1    1    2  501    0  0.69821525883E+01  0.24940112646E+02  0.20832557470E+03  0.20992928511E+03  0.00000000000E+00 0. -1.
<scales pt_clust_5="13000.00000" pt_clust_6="13000.00000" pt_clust_7="13000.00000" pt_clust_8="13000.00000" pt_clust_9="25.89903"></scales>
<clustering>
<clus scale="   25.899">  1  9  2 -1</clus>
<clus scale="   77.395">  5  6 -1 -1</clus>
<clus scale="   90.651">  7  8 -1 -1</clus>
<clus scale="   90.967">  2  5  1 -1</clus>
<clus scale="   25.899">  1  5  2 -1</clus>
</clustering>
</event>
<event>
 9    2  0.3745229E-005  0.1609578E+03  0.7546771E-02  0.1208578E+00
         21   -1    0    0  501  502  0.00000000000E+00  0.00000000000E+00  0.47223490061E+03  0.47223490061E+03  0.00000000000E+00 0.  1.
         -1   -1    0    0    0  501 -0.00000000000E+00 -0.00000000000E+00 -0.40812498092E+03  0.40812498092E+03  0.00000000000E+00 0.  1.
         23    2    1    2    0    0  0.47640058975E+02  0.62106789523E+01 -0.35065456103E+03  0.36517293158E+03  0.89913853406E+02 0.  0.
         24    2    1    2    0    0 -0.12155311499E+03  0.98698906570E+02  0.22859735034E+03  0.28907334704E+03  0.82401562280E+02 0.  0.
        -13    1    4    4    0    0 -0.13116187173E+03  0.77712591164E+02  0.20958969748E+03  0.25917277000E+03  0.00000000000E+00 0.  1.
         14    1    4    4    0    0  0.96087567328E+01  0.20986315407E+02  0.19007652860E+02  0.29900577044E+02  0.00000000000E+00 0. -1.
        -11    1    3    3    0    0  0.90823883298E+01 -0.34899956466E+02 -0.68176802051E+02  0.77126993180E+02  0.00000000000E+00 0. -1.
         11    1    3    3    0    0  0.38557670646E+02  0.41110635418E+02 -0.28247775898E+03  0.28804593840E+03  0.00000000000E+00 0.  1.
         -2    1    1    2    0  502  0.73913056018E+02 -0.10490958552E+03  0.18616713038E+03  0.22611360291E+03  0.00000000000E+00 0.  1.
<scales pt_clust_5="13000.00000" pt_clust_6="13000.00000" pt_clust_7="13000.00000" pt_clust_8="13000.00000" pt_clust_9="138.26568"></scales>
<clustering>
<clus scale="   82.402">  5  6 -1 -1</clus>
<clus scale="   89.914">  7  8 -1 -1</clus>
<clus scale="  101.944">  2  7  1 -1</clus>
<clus scale="  138.266">  1  9  2 -1</clus>
<clus scale="  138.266">  1  5  2 -1</clus>
</clustering>
</event>
<event>
 9    2  0.3745229E-005  0.1000312E+03  0.7546771E-02  0.1285199E+00
          2   -1    0    0  502    0 -0.00000000000E+00  0.00000000000E+00  0.84357936628E+02  0.84357936628E+02  0.00000000000E+00 0. -1.
         21   -1    0    0  501  502  0.00000000000E+00 -0.00000000000E+00 -0.22139116224E+03  0.22139116224E+03  0.00000000000E+00 0. -1.
         24    2    1    2    0    0  0.36713335944E+02 -0.25297174297E+02  0.19714133985E+02  0.94186230301E+02  0.80588974655E+02 0.  0.
         23    2    1    2    0    0 -0.42640236457E+02 -0.13578212937E+01 -0.74294064930E+02  0.12470572873E+03  0.90619408794E+02 0.  0.
        -11    1    3    3    0    0  0.58757850711E+02 -0.26902855492E+02  0.82799323987E-01  0.64623954611E+02  0.00000000000E+00 0.  1.
         12    1    3    3    0    0 -0.22044514767E+02  0.16056811953E+01  0.19631334661E+02  0.29562275690E+02  0.00000000000E+00 0. -1.
        -13    1    4    4    0    0 -0.31672753941E+02 -0.45027075422E+02 -0.43388887734E+02  0.70094196921E+02  0.00000000000E+00 0. -1.
         13    1    4    4    0    0 -0.10967482516E+02  0.43669254128E+02 -0.30905177197E+02  0.54611531808E+02  0.00000000000E+00 0.  1.
          1    1    1    2  501    0  0.59269005131E+01  0.26654995590E+02 -0.82453294670E+02  0.86857139842E+02  0.00000000000E+00 0. -1.
<scales pt_clust_5="13000.00000" pt_clust_6="13000.00000" pt_clust_7="13000.00000" pt_clust_8="13000.00000" pt_clust_9="27.30599"></scales>
<clustering>
<clus scale="   27.306">  2  9  1 -1</clus>
<clus scale="   80.589">  5  6 -1 -1</clus>
<clus scale="   90.619">  7  8 -1 -1</clus>
<clus scale="   91.044">  1  5  2 -1</clus>
<clus scale="   27.306">  2  5  1 -1</clus>
</clustering>
</event>
<event>
 9    2  0.3745229E-005  0.1443886E+03  0.7546771E-02  0.1211036E+00
          2   -1    0    0  502    0 -0.00000000000E+00  0.00000000000E+00  0.20966388548E+03  0.20966388548E+03  0.00000000000E+00 0. -1.
         21   -1    0    0  501  502  0.00000000000E+00 -0.00000000000E+00 -0.13127184060E+03  0.13127184060E+03  0.00000000000E+00 0.  1.
         23    2    1    2    0    0 -0.88751673500E+02  0.21170945736E+02  0.80184644958E+02  0.15112436369E+03  0.89910664111E+02 0.  0.
         24    2    1    2    0    0  0.10921165750E+03 -0.45367337828E+02  0.10635192182E+01  0.15799574118E+03  0.10476708301E+03 0.  0.
        -13    1    4    4    0    0  0.92234137027E+02 -0.70245790768E+01 -0.38640842261E+02  0.10024767047E+03  0.00000000000E+00 0.  1.
         14    1    4    4    0    0  0.16977520475E+02 -0.38342758751E+02  0.39704361479E+02  0.57748070709E+02  0.00000000000E+00 0. -1.
        -11    1    3    3    0    0 -0.53483025135E+02  0.54614893520E+01  0.95496821937E+02  0.10958971139E+03  0.00000000000E+00 0. -1.
         11    1    3    3    0    0 -0.35268648365E+02  0.15709456384E+02 -0.15312176979E+02  0.41534652295E+02  0.00000000000E+00 0.  1.
          1    1    1    2  501    0 -0.20459984003E+02  0.24196392091E+02 -0.28561192923E+01  0.31815621211E+02  0.00000000000E+00 0. -1.
<scales pt_clust_5="13000.00000" pt_clust_6="13000.00000" pt_clust_7="13000.00000" pt_clust_8="13000.00000" pt_clust_9="31.68716"></scales>
<clustering>
<clus scale="   31.687">  2  9  1 -1</clus>
<clus scale="   89.911">  7  8 -1 -1</clus>
<clus scale="  104.767">  5  6 -1 -1</clus>
<clus scale="  133.999">  1  7  2 -1</clus>
<clus scale="   31.687">  2  5  1 -1</clus>
</clustering>
</event>
<event>
 9    2  0.3745229E-005  0.2308211E+03  0.7546771E-02  0.1126456E+00
         21   -1    0    0  501  502  0.00000000000E+00  0.00000000000E+00  0.80113367620E+03  0.80113367620E+03  0.00000000000E+00 0. -1.
         -1   -1    0    0    0  501 -0.00000000000E+00 -0.00000000000E+00 -0.24532550024E+03  0.24532550024E+03  0.00000000000E+00 0.  1.
         24    2    1    2    0    0 -0.16412034234E+03  0.11195391126E+03 -0.12102725536E+02  0.21521699707E+03  0.81870109617E+02 0.  0.
         23    2    1    2    0    0  0.16136909801E+03 -0.28654361645E+03  0.56136265823E+03  0.65650805564E+03  0.87906559123E+02 0.  0.
        -13    1    3    3    0    0 -0.14279713506E+03  0.10267353580E+03  0.18425774314E+02  0.17684000084E+03  0.00000000000E+00 0.  1.
         14    1    3    3    0    0 -0.21323207272E+02  0.92803754538E+01 -0.30528499850E+02  0.38376996235E+02  0.00000000000E+00 0. -1.
        -11    1    4    4    0    0  0.19870059463E+02 -0.43707113473E+02  0.15616316672E+03  0.16337706593E+03  0.00000000000E+00 0.  1.
         11    1    4    4    0    0  0.14149903855E+03 -0.24283650298E+03  0.40519949151E+03  0.49313098971E+03  0.00000000000E+00 0. -1.
         -2    1    1    2    0  502  0.27512443222E+01  0.17458970520E+03  0.65482432693E+01  0.17473412373E+03  0.00000000000E+00 0.  1.
<scales pt_clust_5="13000.00000" pt_clust_6="13000.00000" pt_clust_7="13000.00000" pt_clust_8="13000.00000" pt_clust_9="174.61147"></scales>
<clustering>
<clus scale="   81.870">  5  6 -1 -1</clus>
<clus scale="   87.907">  7  8 -1 -1</clus>
<clus scale="  174.611">  1  9  2 -1</clus>
<clus scale="  228.590">  2  5  1 -1</clus>
<clus scale="  174.611">  1  5  2 -1</clus>
</clustering>
</event>
<event>
 9    2  0.3745229E-005  0.1777199E+03  0.7546771E-02  0.1172364E+00
         21   -1    0    0  501  502  0.00000000000E+00  0.00000000000E+00  0.14600792610E+03  0.14600792610E+03  0.00000000000E+00 0. -1.
          2   -1    0    0  502    0 -0.00000000000E+00 -0.00000000000E+00 -0.79474423892E+03  0.79474423892E+03  0.00000000000E+00 0. -1.
         23    2    1    2    0    0 -0.12467317486E+03 -0.98093320816E+02 -0.70347318525E+03  0.72786876996E+03  0.98755879842E+02 0.  0.
         24    2    1    2    0    0  0.87790647811E+02  0.27278726779E+02  0.14189978285E+02  0.12333408934E+03  0.80985278486E+02 0.  0.
        -13    1    4    4    0    0  0.16419874092E+02 -0.13153622440E+02  0.33038583518E+02  0.39168584980E+02  0.00000000000E+00 0.  1.
         14    1    4    4    0    0  0.71370773719E+02  0.40432349218E+02 -0.18848605233E+02  0.84165504358E+02  0.00000000000E+00 0. -1.
        -11    1    3    3    0    0 -0.91852137366E+02 -0.11407647751E+03 -0.49457913805E+03  0.51580886155E+03  0.00000000000E+00 0. -1.
         11    1    3    3    0    0 -0.32821037493E+02  0.15983156695E+02 -0.20889404721E+03  0.21205990842E+03  0.00000000000E+00 0.  1.
          1    1    1    2  501    0  0.36882527049E+02  0.70814594037E+02  0.40546894142E+02  0.89549305719E+02  0.00000000000E+00 0. -1.
<scales pt_clust_5="13000.00000" pt_clust_6="13000.00000" pt_clust_7="13000.00000" pt_clust_8="13000.00000" pt_clust_9="79.84377"></scales>
<clustering>
<clus scale="   79.844">  1  9  2 -1</clus>
<clus scale="   80.985">  5  6 -1 -1</clus>
<clus scale="   98.756">  7  8 -1 -1</clus>
<clus scale="  168.494">  1  5  2 -1</clus>
<clus scale="   79.844">  1  5  2 -1</clus>
</clustering>
</event>
<event>
 9    2  0.3745229E-005  0.9137730E+02  0.7546771E-02  0.1308047E+00
         21   -1    0    0  501  502  0.00000000000E+00  0.00000000000E+00  0.24230902575E+03  0.24230902575E+03  0.00000000000E+00 0. -1.
          2   -1    0    0  502    0 -0.00000000000E+00 -0.00000000000E+00 -0.12695760606E+03  0.12695760606E+03  0.00000000000E+00 0. -1.
         23    2    1    2    0    0 -0.53266590001E+01 -0.74894806156E+01 -0.68439335906E+02  0.11434165678E+03  0.91135098392E+02 0.  0.
         24    2    1    2    0    0 -0.32476084675E+02 -0.74344489107E+01  0.21230680342E+02  0.87361407483E+02  0.77918589716E+02 0.  0.
        -11    1    4    4    0    0  0.21547359255E+02  0.18099574312E+01 -0.10492040922E+02  0.24034299646E+02  0.00000000000E+00 0.  1.
         12    1    4    4    0    0 -0.54023443930E+02 -0.92444063419E+01  0.31722721264E+02  0.63327107838E+02  0.00000000000E+00 0. -1.
        -11    1    3    3    0    0  0.37396815024E+02  0.12050971639E+02 -0.50658142609E+02  0.64109243514E+02  0.00000000000E+00 0.  1.
         11    1    3    3    0    0 -0.42723474024E+02 -0.19540452254E+02 -0.17781193297E+02  0.50232413261E+02  0.00000000000E+00 0. -1.
          1    1    1    2  501    0  0.37802743675E+02  0.14923929526E+02  0.16256007525E+03  0.16756356754E+03  0.00000000000E+00 0. -1.
<scales pt_clust_5="13000.00000" pt_clust_6="13000.00000" pt_clust_7="13000.00000" pt_clust_8="13000.00000" pt_clust_9="40.64199"></scales>
<clustering>
<clus scale="   40.642">  1  9  2 -1</clus>
<clus scale="   77.919">  5  6 -1 -1</clus>
<clus scale="   78.202">  1  5  2 -1</clus>
<clus scale="   91.135">  7  8 -1 -1</clus>
<clus scale="   40.642">  1  5  2 -1</clus>
</clustering>
</event>
<event>
 9    2  0.3745229E-005  0.1324942E+03  0.7546771E-02  0.1235911E+00
         21   -1    0    0  501  502  0.00000000000E+00  0.00000000000E+00  0.43808770283E+03  0.43808770283E+03  0.00000000000E+00 0.  1.
         -1   -1    0    0    0  501 -0.00000000000E+00 -0.00000000000E+00 -0.85501843327E+02  0.85501843327E+02  0.00000000000E+00 0.  1.
         23    2    1    2    0    0 -0.14676341617E+02  0.48899324628E+02  0.23660493141E+02  0.10585198058E+03  0.89656477204E+02 0.  0.
         24    2    1    2    0    0  0.11122939636E+03 -0.32340027762E+01  0.25081339608E+03  0.28541487704E+03  0.78561154459E+02 0.  0.
        -11    1    4    4    0    0  0.64643324595E+02  0.10006794790E+02  0.21621898131E+03  0.22589719616E+03  0.00000000000E+00 0.  1.
         12    1    4    4    0    0  0.46586071769E+02 -0.13240797567E+02  0.34594414778E+02  0.59517680876E+02  0.00000000000E+00 0. -1.
        -13    1    3    3    0    0 -0.49377129757E+02  0.12071904714E+02  0.21540642161E+02  0.55207165216E+02  0.00000000000E+00 0. -1.
         13    1    3    3    0    0  0.34700788140E+02  0.36827419914E+02  0.21198509800E+01  0.50644815364E+02  0.00000000000E+00 0.  1.
         -2    1    1    2    0  502 -0.96553054748E+02 -0.45665321852E+02  0.78111970275E+02  0.13232268854E+03  0.00000000000E+00 0.  1.
<scales pt_clust_5="13000.00000" pt_clust_6="13000.00000" pt_clust_7="13000.00000" pt_clust_8="13000.00000" pt_clust_9="106.69051"></scales>
<clustering>
<clus scale="   78.561">  5  6 -1 -1</clus>
<clus scale="   89.656">  7  8 -1 -1</clus>
<clus scale="  103.174">  2  7  1 -1</clus>
<clus scale="  106.691">  1  9  2 -1</clus>
<clus scale="  106.691">  1  5  2 -1</clus>
</clustering>
</event>
<event>
 9    2  0.3745229E-005  0.9172123E+02  0.7546771E-02  0.1302944E+00
         21   -1    0    0  501  502  0.00000000000E+00  0.00000000000E+00  0.59433475869E+02  0.59433475869E+02  0.00000000000E+00 0. -1.
          2   -1    0    0  502    0 -0.00000000000E+00 -0.00000000000E+00 -0.44376493869E+03  0.44376493869E+03  0.00000000000E+00 0. -1.
         24    2    1    2    0    0  0.27424787425E+02 -0.18461514501E+02 -0.32266805840E+03  0.33397540294E+03  0.79573534362E+02 0.  0.
         23    2    1    2    0    0  0.42221149986E+01  0.37397439579E+01  0.11877525086E+02  0.87819539502E+02  0.86829626144E+02 0.  0.
        -13    1    3    3    0    0  0.33279076046E+01  0.30361073858E+02 -0.90739247875E+02  0.95741740531E+02  0.00000000000E+00 0.  1.
         14    1    3    3    0    0  0.24096879820E+02 -0.48822588359E+02 -0.23192881053E+03  0.23823366241E+03  0.00000000000E+00 0. -1.
        -13    1    4    4    0    0 -0.21477785383E+02  0.32209111391E+02  0.26346054236E+02  0.46827734254E+02  0.00000000000E+00 0.  1.
         13    1    4    4    0    0  0.25699900382E+02 -0.28469367433E+02 -0.14468529151E+02  0.40991805248E+02  0.00000000000E+00 0. -1.
          1    1    1    2  501    0 -0.31646902424E+02  0.14721770543E+02 -0.73540929503E+02  0.81403472119E+02  0.00000000000E+00 0. -1.
<scales pt_clust_5="13000.00000" pt_clust_6="13000.00000" pt_clust_7="13000.00000" pt_clust_8="13000.00000" pt_clust_9="34.90356"></scales>
<clustering>
<clus scale="   34.904">  1  9  2 -1</clus>
<clus scale="   79.574">  5  6 -1 -1</clus>
<clus scale="   84.884">  2  5  1 -1</clus>
<clus scale="   86.830">  7  8 -1 -1</clus>
<clus scale="   34.904">  1  5  2 -1</clus>
</clustering>
</event>
<event>
 9    2  0.3745229E-005  0.9363039E+02  0.7546771E-02  0.1295039E+00
          2   -1    0    0  502    0 -0.00000000000E+00  0.00000000000E+00  0.12283793661E+04  0.12283793661E+04  0.00000000000E+00 0. -1.
         21   -1    0    0  501  502  0.00000000000E+00 -0.00000000000E+00 -0.34181113288E+02  0.34181113288E+02  0.00000000000E+00 0. -1.
         24    2    1    2    0    0 -0.12298328908E+02 -0.11487705551E+02  0.10100604763E+04  0.10143488861E+04  0.91642134394E+02 0.  0.
         23    2    1    2    0    0 -0.55469552538E+01  0.47843826025E+02  0.18055776607E+03  0.20755402156E+03  0.90320344199E+02 0.  0.
        -13    1    3    3    0    0 -0.14835689241E+02  0.28018921222E+02  0.14695780169E+03  0.15033879439E+03  0.00000000000E+00 0.  1.
         14    1    3    3    0    0  0.25373603336E+01 -0.39506626774E+02  0.86310267458E+03  0.86401009174E+03  0.00000000000E+00 0. -1.
        -13    1    4    4    0    0 -0.34826034825E+02  0.22767882239E+02  0.15690161692E+03  0.16232481805E+03  0.00000000000E+00 0. -1.
         13    1    4    4    0    0  0.29279079571E+02  0.25075943786E+02  0.23656149146E+02  0.45229203505E+02  0.00000000000E+00 0.  1.
          1    1    1    2  501    0  0.17845284161E+02 -0.36356120474E+02  0.35800104901E+01  0.40657571716E+02  0.00000000000E+00 0. -1.
<scales pt_clust_5="13000.00000" pt_clust_6="13000.00000" pt_clust_7="13000.00000" pt_clust_8="13000.00000" pt_clust_9="40.49965"></scales>
<clustering>
<clus scale="   40.500">  2  9  1 -1</clus>
<clus scale="   90.320">  7  8 -1 -1</clus>
<clus scale="   91.642">  5  6 -1 -1</clus>
<clus scale="   92.337">  2  7  1 -1</clus>
<clus scale="   40.500">  2  5  1 -1</clus>
</clustering>
</event>
<event>
 9    2  0.3745229E-005  0.1491768E+03  0.7546771E-02  0.1203069E+00
         21   -1    0    0  501  502  0.00000000000E+00  0.00000000000E+00  0.39975675538E+02  0.39975675538E+02  0.00000000000E+00 0. -1.
          2   -1    0    0  502    0 -0.00000000000E+00 -0.00000000000E+00 -0.11148049413E+04  0.11148049413E+04  0.00000000000E+00 0. -1.
         24    2    1    2    0    0 -0.13384066591E+03  0.48981799369E+02 -0.61955502792E+03  0.64108634775E+03  0.82648243368E+02 0.  0.
         23    2    1    2    0    0  0.78237910122E+02  0.27101094862E+02 -0.14917612631E+03  0.19341887645E+03  0.91113693712E+02 0.  0.
        -11    1    3    3    0    0 -0.30418599589E+02  0.11897762054E+02 -0.42165850624E+02  0.53336731262E+02  0.00000000000E+00 0.  1.
         12    1    3    3    0    0 -0.10342206633E+03  0.37084037315E+02 -0.57738917729E+03  0.58774961649E+03  0.00000000000E+00 0. -1.
        -11    1    4    4    0    0  0.14476343664E+02  0.52511036273E+02 -0.67032085978E+02  0.86372877727E+02  0.00000000000E+00 0.  1.
         11    1    4    4    0    0  0.63761566457E+02 -0.25409941411E+02 -0.82144040334E+02  0.10704599872E+03  0.00000000000E+00 0. -1.
          1    1    1    2  501    0  0.55602755793E+02 -0.76082894231E+02 -0.30609811150E+03  0.32027539261E+03  0.00000000000E+00 0. -1.
<scales pt_clust_5="13000.00000" pt_clust_6="13000.00000" pt_clust_7="13000.00000" pt_clust_8="13000.00000" pt_clust_9="94.23525"></scales>
<clustering>
<clus scale="   82.648">  5  6 -1 -1</clus>
<clus scale="   91.114">  7  8 -1 -1</clus>
<clus scale="   94.235">  1  9  2 -1</clus>
<clus scale="  144.162">  2  5  1 -1</clus>
<clus scale="   94.235">  1  5  2 -1</clus>
</clustering>
</event>
<event>
 9    2  0.3745229E-005  0.2953146E+03  0.7546771E-02  0.1115934E+00
          2   -1    0    0  502    0 -0.00000000000E+00  0.00000000000E+00  0.10935921392E+04  0.10935921392E+04  0.00000000000E+00 0. -1.
         21   -1    0    0  501  502  0.00000000000E+00 -0.00000000000E+00 -0.15684779989E+03  0.15684779989E+03  0.00000000000E+00 0. -1.
         23    2    1    2    0    0  0.10406418775E+03 -0.32385604350E+02  0.51584078216E+02  0.15101146101E+03  0.90914034607E+02 0.  0.
         24    2    1    2    0    0 -0.32473906564E+03 -0.11303799819E+03  0.67512417790E+03  0.76184799559E+03  0.79916600323E+02 0.  0.
        -13    1    4    4    0    0 -0.17964031370E+02 -0.15844823382E+02  0.17357026621E+02  0.29580926696E+02  0.00000000000E+00 0.  1.
         14    1    4    4    0    0 -0.30677503427E+03 -0.97193174805E+02  0.65776715128E+03  0.73226706889E+03  0.00000000000E+00 0. -1.
        -11    1    3    3    0    0  0.19301706619E+02  0.25144887120E+02  0.35024816887E+02  0.47239380020E+02  0.00000000000E+00 0.  1.
         11    1    3    3    0    0  0.84762481132E+02 -0.57530491470E+02  0.16559261329E+02  0.10377208099E+03  0.00000000000E+00 0. -1.
          1    1    1    2  501    0  0.22067487789E+03  0.14542360254E+03  0.21003608316E+03  0.33758048246E+03  0.00000000000E+00 0. -1.
<scales pt_clust_5="13000.00000" pt_clust_6="13000.00000" pt_clust_7="13000.00000" pt_clust_8="13000.00000" pt_clust_9="284.29570"></scales>
<clustering>
<clus scale="   79.917">  5  6 -1 -1</clus>
<clus scale="   90.914">  7  8 -1 -1</clus>
<clus scale="  141.928">  1  7  2 -1</clus>
<clus scale="  284.296">  2  9  1 -1</clus>
<clus scale="  284.296">  2  5  1 -1</clus>
</clustering>
</event>
<event>
 9    2  0.3745229E-005  0.2254937E+03  0.7546771E-02  0.1130137E+00
         21   -1    0    0  501  502  0.00000000000E+00  0.00000000000E+00  0.11577847112E+04  0.11577847112E+04  0.00000000000E+00 0. -1.
          2   -1    0    0  502    0 -0.00000000000E+00 -0.00000000000E+00 -0.37330520698E+03  0.37330520698E+03  0.00000000000E+00 0. -1.
         23    2    1    2    0    0 -0.13635377498E+03  0.17026879593E+03 -0.31455276434E+03  0.39209117016E+03  0.84901291782E+02 0.  0.
         24    2    1    2    0    0  0.12296174952E+03 -0.39978793217E+02  0.40505631264E+03  0.43277112285E+03  0.80637042444E+02 0.  0.
        -11    1    4    4    0    0  0.10761807566E+03 -0.54243374636E+02  0.38626239213E+03  0.40462653086E+03  0.00000000000E+00 0.  1.
         12    1    4    4    0    0  0.15343673855E+02  0.14264581419E+02  0.18793920516E+02  0.28144591999E+02  0.00000000000E+00 0. -1.
        -11    1    3    3    0    0 -0.61375832423E+02  0.72028487345E+02 -0.68746622990E+02  0.11696663613E+03  0.00000000000E+00 0.  1.
         11    1    3    3    0    0 -0.74977942555E+02  0.98240308581E+02 -0.24580614135E+03  0.27512453403E+03  0.00000000000E+00 0. -1.
          1    1    1    2  501    0  0.13392025459E+02 -0.13029000271E+03  0.69397595597E+03  0.70622762521E+03  0.00000000000E+00 0. -1.
<scales pt_clust_5="13000.00000" pt_clust_6="13000.00000" pt_clust_7="13000.00000" pt_clust_8="13000.00000" pt_clust_9="130.97645"></scales>
<clustering>
<clus scale="   80.637">  5  6 -1 -1</clus>
<clus scale="   84.901">  7  8 -1 -1</clus>
<clus scale="  130.976">  1  9  2 -1</clus>
<clus scale="  223.923">  1  5  2 -1</clus>
<clus scale="  130.976">  1  5  2 -1</clus>
</clustering>
</event>
<event>
 9    2  0.3745229E-005  0.1250922E+03  0.7546771E-02  0.1251346E+00
         -1   -1    0    0    0  501 -0.00000000000E+00  0.00000000000E+00  0.65777198257E+03  0.65777198257E+03  0.00000000000E+00 0.  1.
         21   -1    0    0  501  502  0.00000000000E+00 -0.00000000000E+00 -0.38198348760E+02  0.38198348760E+02  0.00000000000E+00 0.  1.
         24    2    1    2    0    0  0.39667389030E+02  0.76641261253E+01  0.16246387262E+03  0.18561566737E+03  0.80164989147E+02 0.  0.
         23    2    1    2    0    0  0.83987793774E+01 -0.85892622408E+02  0.18594132708E+03  0.22406394837E+03  0.90456584966E+02 0.  0.
        -11    1    3    3    0    0  0.51037952038E+02 -0.23319386836E+02  0.91193324058E+02  0.10707422054E+03  0.00000000000E+00 0.  1.
         12    1    3    3    0    0 -0.11370563008E+02  0.30983512961E+02  0.71270548563E+02  0.78541446836E+02  0.00000000000E+00 0. -1.
        -13    1    4    4    0    0 -0.41442567872E+01 -0.28329256128E+02  0.15480062300E+03  0.15742602865E+03  0.00000000000E+00 0. -1.
         13    1    4    4    0    0  0.12543036165E+02 -0.57563366280E+02  0.31140704088E+02  0.66637919722E+02  0.00000000000E+00 0.  1.
         -2    1    1    2    0  502 -0.48066168407E+02  0.78228496283E+02  0.27116843411E+03  0.28629071559E+03  0.00000000000E+00 0.  1.
<scales pt_clust_5="13000.00000" pt_clust_6="13000.00000" pt_clust_7="13000.00000" pt_clust_8="13000.00000" pt_clust_9="86.40406"></scales>
<clustering>
<clus scale="   80.165">  5  6 -1 -1</clus>
<clus scale="   89.770">  1  5  2 -1</clus>
<clus scale="   86.404">  2  9  1 -1</clus>
<clus scale="   90.457">  7  8 -1 -1</clus>
<clus scale="   86.404">  2  5  1 -1</clus>
</clustering>
</event>
<event>
 9    2  0.3745229E-005  0.1642863E+03  0.7546771E-02  0.1186658E+00
          2   -1    0    0  502    0 -0.00000000000E+00  0.00000000000E+00  0.18000470844E+03  0.18000470844E+03  0.00000000000E+00 0. -1.
         21   -1    0    0  501  502  0.00000000000E+00 -0.00000000000E+00 -0.22328908292E+03  0.22328908292E+03  0.00000000000E+00 0. -1.
         23    2    1    2    0    0 -0.98899341792E+02 -0.74301558056E+02  0.83663268592E+02  0.18390578150E+03  0.10733122854E+03 0.  0.
         24    2    1    2    0    0  0.11309307240E+03  0.59112743314E+02 -0.10456776948E+03  0.18884262030E+03  0.91884478457E+02 0.  0.
        -11    1    4    4    0    0  0.18000080010E+02  0.26996319214E+02  0.12380698693E+02  0.34728746473E+02  0.00000000000E+00 0.  1.
         12    1    4    4    0    0  0.95092992391E+02  0.32116424100E+02 -0.11694846817E+03  0.15411387383E+03  0.00000000000E+00 0. -1.
        -13    1    3    3    0    0 -0.12089071160E+03 -0.72169287608E+02  0.65408981230E+02  0.15524595019E+03  0.00000000000E+00 0. -1.
         13    1    3    3    0    0  0.21991369809E+02 -0.21322704480E+01  0.18254287362E+02  0.28659831305E+02  0.00000000000E+00 0.  1.
          1    1    1    2  501    0 -0.14193730609E+02  0.15188814742E+02 -0.22379873598E+02  0.30545389572E+02  0.00000000000E+00 0. -1.
<scales pt_clust_5="13000.00000" pt_clust_6="13000.00000" pt_clust_7="13000.00000" pt_clust_8="13000.00000" pt_clust_9="20.78851"></scales>
<clustering>
<clus scale="   20.789">  2  9  1 -1</clus>
<clus scale="   91.884">  5  6 -1 -1</clus>
<clus scale="  107.331">  7  8 -1 -1</clus>
<clus scale="  154.637">  2  5  1 -1</clus>
<clus scale="   20.789">  2  5  1 -1</clus>
</clustering>
</event>
<event>
 9    2  0.3745229E-005  0.3333459E+03  0.7546771E-02  0.1069916E+00
         21   -1    0    0  501  502  0.00000000000E+00  0.00000000000E+00  0.23352236128E+03  0.23352236128E+03  0.00000000000E+00 0. -1.
          2   -1    0    0  502    0 -0.00000000000E+00 -0.00000000000E+00 -0.21409889311E+04  0.21409889311E+04  0.00000000000E+00 0. -1.
         24    2    1    2    0    0 -0.19470201643E+03 -0.24461495544E+03 -0.17218276288E+04  0.17519604836E+04  0.83245428071E+02 0.  0.
         23    2    1    2    0    0  0.33227675364E+03  0.26652248779E+03 -0.69675245321E+02  0.44129318265E+03  0.91885557806E+02 0.  0.
        -11    1    3    3    0    0 -0.69810688600E+02 -0.14929597909E+03 -0.79394239192E+03  0.81086826507E+03  0.00000000000E+00 0.  1.
         12    1    3    3    0    0 -0.12489132783E+03 -0.95318976355E+02 -0.92788523687E+03  0.94109221855E+03  0.00000000000E+00 0. -1.
        -11    1    4    4    0    0  0.21719479422E+03  0.15039902804E+03 -0.83899737492E+02  0.27718696258E+03  0.00000000000E+00 0. -1.
         11    1    4    4    0    0  0.11508195942E+03  0.11612345975E+03  0.14224492171E+02  0.16410622007E+03  0.00000000000E+00 0.  1.
          1    1    1    2  501    0 -0.13757473721E+03 -0.21907532346E+02 -0.11596369567E+03  0.18125762607E+03  0.00000000000E+00 0. -1.
<scales pt_clust_5="13000.00000" pt_clust_6="13000.00000" pt_clust_7="13000.00000" pt_clust_8="13000.00000" pt_clust_9="139.30811"></scales>
<clustering>
<clus scale="   83.245">  5  6 -1 -1</clus>
<clus scale="   91.886">  7  8 -1 -1</clus>
<clus scale="  139.308">  1  9  2 -1</clus>
<clus scale="  331.068">  2  5  1 -1</clus>
<clus scale="  139.308">  1  5  2 -1</clus>
</clustering>
</event>
<event>
 9    2  0.3745229E-005  0.1075710E+03  0.7546771E-02  0.1270128E+00
         21   -1    0    0  501  502  0.00000000000E+00  0.00000000000E+00  0.43989330801E+02  0.43989330801E+02  0.00000000000E+00 0.  1.
          2   -1    0    0  502    0 -0.00000000000E+00 -0.00000000000E+00 -0.76740787886E+03  0.76740787886E+03  0.00000000000E+00 0. -1.
         24    2    1    2    0    0  0.94356188244E+01  0.59276632050E+02 -0.63826676512E+03  0.64604144828E+03  0.79889545193E+02 0.  0.
         23    2    1    2    0    0  0.22038368809E+02 -0.32498756705E+02 -0.67020054578E+02  0.12022898353E+03  0.91768523356E+02 0.  0.
        -11    1    3    3    0    0  0.62326664734E+01  0.38117763850E+02 -0.97791683863E+02  0.10514287177E+03  0.00000000000E+00 0.  1.
         12    1    3    3    0    0  0.32029523511E+01  0.21158868200E+02 -0.54047508126E+03  0.54089857651E+03  0.00000000000E+00 0. -1.
        -13    1    4    4    0    0  0.48965934078E+02 -0.46553144412E+01 -0.82969469000E+01  0.49881599619E+02  0.00000000000E+00 0.  1.
         13    1    4    4    0    0 -0.26927565269E+02 -0.27843442263E+02 -0.58723107678E+02  0.70347383916E+02  0.00000000000E+00 0. -1.
          1    1    1    2  501    0 -0.31473987633E+02 -0.26777875345E+02 -0.18131728366E+02  0.45126777850E+02  0.00000000000E+00 0. -1.
<scales pt_clust_5="13000.00000" pt_clust_6="13000.00000" pt_clust_7="13000.00000" pt_clust_8="13000.00000" pt_clust_9="41.32392"></scales>
<clustering>
<clus scale="   41.324">  1  9  2 -1</clus>
<clus scale="   79.890">  5  6 -1 -1</clus>
<clus scale="   91.769">  7  8 -1 -1</clus>
<clus scale="   97.634">  2  5  1 -1</clus>
<clus scale="   41.324">  1  5  2 -1</clus>
</clustering>
</event>
<event>
 9    2  0.3745229E-005  0.9701919E+02  0.7546771E-02  0.1292540E+00
         21   -1    0    0  501  502  0.00000000000E+00  0.00000000000E+00  0.60402189820E+03  0.60402189820E+03  0.00000000000E+00 0. -1.
         -1   -1    0    0    0  501 -0.00000000000E+00 -0.00000000000E+00 -0.39950699945E+02  0.39950699945E+02  0.00000000000E+00 0.  1.
         24    2    1    2    0    0 -0.24032969249E+02  0.99480218259E+01  0.32635815842E+02  0.91198860377E+02  0.81090004989E+02 0.  0.
         23    2    1    2    0    0  0.52613316882E+02 -0.35497292833E+02  0.35124454205E+03  0.36855012237E+03  0.91805476238E+02 0.  0.
        -11    1    3    3    0    0 -0.20899832210E+02  0.22271459105E+02 -0.20355204896E+02  0.36703613492E+02  0.00000000000E+00 0.  1.
         12    1    3    3    0    0 -0.31331370397E+01 -0.12323437279E+02  0.52991020739E+02  0.54495246884E+02  0.00000000000E+00 0. -1.
        -11    1    4    4    0    0  0.96734175189E+01 -0.58545115861E+02  0.23758509609E+03  0.24488320375E+03  0.00000000000E+00 0. -1.
         11    1    4    4    0    0  0.42939899363E+02  0.23047823029E+02  0.11365944597E+03  0.12366691862E+03  0.00000000000E+00 0.  1.
         -2    1    1    2    0  502 -0.28580347633E+02  0.25549271007E+02  0.18019084036E+03  0.18422361540E+03  0.00000000000E+00 0.  1.
<scales pt_clust_5="13000.00000" pt_clust_6="13000.00000" pt_clust_7="13000.00000" pt_clust_8="13000.00000" pt_clust_9="38.33538"></scales>
<clustering>
<clus scale="   38.335">  1  9  2 -1</clus>
<clus scale="   81.090">  5  6 -1 -1</clus>
<clus scale="   86.949">  2  5  1 -1</clus>
<clus scale="   91.805">  7  8 -1 -1</clus>
<clus scale="   38.335">  1  5  2 -1</clus>
</clustering>
</event>
<event>
 9    2  0.3745229E-005  0.1424979E+03  0.7546771E-02  0.1219338E+00
         21   -1    0    0  501  502  0.00000000000E+00  0.00000000000E+00  0.29194213667E+03  0.29194213667E+03  0.00000000000E+00 0.  1.
         -1   -1    0    0    0  501 -0.00000000000E+00 -0.00000000000E+00 -0.14118219822E+03  0.14118219822E+03  0.00000000000E+00 0.  1.
         24    2    1    2    0    0 -0.84179450109E+02  0.12897602867E+02  0.11557647582E+03  0.16441458544E+03  0.80135548684E+02 0.  0.
         23    2    1    2    0    0 -0.29785024023E+02  0.71639914650E+02 -0.99882552460E+01  0.11979709945E+03  0.90731222670E+02 0.  0.
        -13    1    3    3    0    0 -0.98190241365E+02  0.11453720884E+02  0.11292557930E+03  0.15008230303E+03  0.00000000000E+00 0.  1.
         14    1    3    3    0    0  0.14010791256E+02  0.14438819827E+01  0.26508965135E+01  0.14332282412E+02  0.00000000000E+00 0. -1.
        -11    1    4    4    0    0  0.60295613785E+01  0.42625473212E+02 -0.44727567518E+02  0.62079319206E+02  0.00000000000E+00 0.  1.
         11    1    4    4    0    0 -0.35814585402E+02  0.29014441438E+02  0.34739312272E+02  0.57717780247E+02  0.00000000000E+00 0. -1.
         -2    1    1    2    0  502  0.11396447413E+03 -0.84537517517E+02  0.45171717885E+02  0.14891265000E+03  0.00000000000E+00 0.  1.
<scales pt_clust_5="13000.00000" pt_clust_6="13000.00000" pt_clust_7="13000.00000" pt_clust_8="13000.00000" pt_clust_9="109.87946"></scales>
<clustering>
<clus scale="   80.136">  5  6 -1 -1</clus>
<clus scale="   90.731">  7  8 -1 -1</clus>
<clus scale="  116.937">  2  5  1 -1</clus>
<clus scale="  109.879">  1  9  2 -1</clus>
<clus scale="  109.879">  1  5  2 -1</clus>
</clustering>
</event>
<event>
 9    2  0.3745229E-005  0.1076908E+03  0.7546771E-02  0.1270025E+00
         21   -1    0    0  501  502  0.00000000000E+00  0.00000000000E+00  0.18158156996E+03  0.18158156996E+03  0.00000000000E+00 0.  1.
          2   -1    0    0  502    0 -0.00000000000E+00 -0.00000000000E+00 -0.85059583842E+02  0.85059583842E+02  0.00000000000E+00 0. -1.
         24    2    1    2    0    0  0.50623250215E+02  0.40387460443E+02  0.34031332101E+02  0.10776343494E+03  0.79126265691E+02 0.  0.
         23    2    1    2    0    0 -0.51219489809E+02 -0.58270817344E+01  0.66280206252E+02  0.12410508617E+03  0.91387174450E+02 0.  0.
        -11    1    3    3    0    0 -0.69239102711E+01  0.40393820787E+02  0.15033317655E+00  0.40983214750E+02  0.00000000000E+00 0.  1.
         12    1    3    3    0    0  0.57547160487E+02 -0.63603436065E-02  0.33880998925E+02  0.66780220190E+02  0.00000000000E+00 0. -1.
        -11    1    4    4    0    0 -0.58552848800E+02  0.28150737877E+02  0.60676293954E+02  0.88896078618E+02  0.00000000000E+00 0.  1.
         11    1    4    4    0    0  0.73333589913E+01 -0.33977819611E+02  0.56039122987E+01  0.35209007550E+02  0.00000000000E+00 0. -1.
          1    1    1    2  501    0  0.59623959370E+00 -0.34560378709E+02 -0.37895522376E+01  0.34772632692E+02  0.00000000000E+00 0. -1.
<scales pt_clust_5="13000.00000" pt_clust_6="13000.00000" pt_clust_7="13000.00000" pt_clust_8="13000.00000" pt_clust_9="34.56554"></scales>
<clustering>
<clus scale="   34.566">  1  9  2 -1</clus>
<clus scale="   79.126">  5  6 -1 -1</clus>
<clus scale="   91.387">  7  8 -1 -1</clus>
<clus scale="   97.502">  2  5  1 -1</clus>
<clus scale="   34.566">  1  5  2 -1</clus>
</clustering>
</event>
<event>
 9    2  0.3745229E-005  0.9134180E+02  0.7546771E-02  0.1306079E+00
          2   -1    0    0  502    0 -0.00000000000E+00  0.00000000000E+00  0.83442731471E+03  0.83442731471E+03  0.00000000000E+00 0. -1.
         21   -1    0    0  501  502  0.00000000000E+00 -0.00000000000E+00 -0.18075240088E+02  0.18075240088E+02  0.00000000000E+00 0. -1.
         24    2    1    2    0    0 -0.22390315346E+01 -0.63936885736E+01  0.62437101875E+03  0.62964802507E+03  0.81065244730E+02 0.  0.
         23    2    1    2    0    0  0.31844806641E+01 -0.14224698989E+02  0.15304797665E+03  0.17878871035E+03  0.91264652598E+02 0.  0.
        -11    1    3    3    0    0 -0.13355393819E+02  0.29964960368E+02  0.14022814593E+03  0.14401457671E+03  0.00000000000E+00 0.  1.
         12    1    3    3    0    0  0.11116362284E+02 -0.36358648942E+02  0.48414287282E+03  0.48563344836E+03  0.00000000000E+00 0. -1.
        -13    1    4    4    0    0 -0.35925328641E+02  0.12323141032E+02  0.10378295283E+03  0.11051420877E+03  0.00000000000E+00 0.  1.
         13    1    4    4    0    0  0.39109809305E+02 -0.26547840021E+02  0.49265023823E+02  0.68274501580E+02  0.00000000000E+00 0. -1.
          1    1    1    2  501    0 -0.94544912951E+00  0.20618387562E+02  0.38933079220E+02  0.44065819376E+02  0.00000000000E+00 0. -1.
<scales pt_clust_5="13000.00000" pt_clust_6="13000.00000" pt_clust_7="13000.00000" pt_clust_8="13000.00000" pt_clust_9="20.64005"></scales>
<clustering>
<clus scale="   20.640">  2  9  1 -1</clus>
<clus scale="   81.065">  5  6 -1 -1</clus>
<clus scale="   81.152">  1  5  2 -1</clus>
<clus scale="   91.265">  7  8 -1 -1</clus>
<clus scale="   20.640">  2  5  1 -1</clus>
</clustering>
</event>
<event>
 9    2  0.3745229E-005  0.1249699E+03  0.7546771E-02  0.1236016E+00
         -3   -1    0    0    0  501 -0.00000000000E+00  0.00000000000E+00  0.22359370853E+03  0.22359370853E+03  0.00000000000E+00 0.  1.
         21   -1    0    0  501  502  0.00000000000E+00 -0.00000000000E+00 -0.15327349375E+03  0.15327349375E+03  0.00000000000E+00 0.  1.
         24    2    1    2    0    0 -0.91979957826E+02 -0.28255208040E+02  0.12569355718E+03  0.17738704906E+03  0.80053890801E+02 0.  0.
         23    2    1    2    0    0  0.98038131928E+02  0.15436167944E+01  0.13788047498E+02  0.12509259759E+03  0.76447299836E+02 0.  0.
        -13    1    3    3    0    0 -0.49707904563E+02  0.33860426808E+01  0.11238416277E+03  0.12293307570E+03  0.00000000000E+00 0.  1.
         14    1    3    3    0    0 -0.42272053263E+02 -0.31641250721E+02  0.13309394418E+02  0.54453973354E+02  0.00000000000E+00 0. -1.
        -13    1    4    4    0    0  0.31597148615E+02 -0.35899421267E+02  0.15305588192E+01  0.47848624413E+02  0.00000000000E+00 0.  1.
         13    1    4    4    0    0  0.66440983313E+02  0.37443038061E+02  0.12257488679E+02  0.77243973173E+02  0.00000000000E+00 0. -1.
         -4    1    1    2    0  502 -0.60581741021E+01  0.26711591246E+02 -0.69161389904E+02  0.74387555638E+02  0.00000000000E+00 0.  1.
<scales pt_clust_5="13000.00000" pt_clust_6="13000.00000" pt_clust_7="13000.00000" pt_clust_8="13000.00000" pt_clust_9="27.38997"></scales>
<clustering>
<clus scale="   27.390">  2  9  1 -1</clus>
<clus scale="   76.447">  7  8 -1 -1</clus>
<clus scale="   80.054">  5  6 -1 -1</clus>
<clus scale="  122.691">  2  7  1 -1</clus>
<clus scale="   27.390">  2  5  1 -1</clus>
</clustering>
</event>
<event>
 9    2  0.3745229E-005  0.1561142E+03  0.7546771E-02  0.1214175E+00
         21   -1    0    0  501  502  0.00000000000E+00  0.00000000000E+00  0.95401268095E+02  0.95401268095E+02  0.00000000000E+00 0.  1.
          2   -1    0    0  502    0 -0.00000000000E+00 -0.00000000000E+00 -0.13122454482E+04  0.13122454482E+04  0.00000000000E+00 0. -1.
         23    2    1    2    0    0  0.45069158939E+01  0.55351830748E+02 -0.45885385886E+02  0.10927201292E+03  0.82163049548E+02 0.  0.
         24    2    1    2    0    0  0.13003307055E+03  0.26628245039E+02 -0.44852539955E+02  0.16130081103E+03  0.79928333062E+02 0.  0.
        -11    1    4    4    0    0  0.10812238524E+03 -0.30640174062E+01 -0.69302250453E+01  0.10838757499E+03  0.00000000000E+00 0.  1.
         12    1    4    4    0    0  0.21910685314E+02  0.29692262445E+02 -0.37922314910E+02  0.52913236040E+02  0.00000000000E+00 0. -1.
        -11    1    3    3    0    0 -0.11146855016E+02  0.73491114930E+02 -0.40746865830E+02  0.84767348816E+02  0.00000000000E+00 0. -1.
         11    1    3    3    0    0  0.15653770910E+02 -0.18139284182E+02 -0.51385200560E+01  0.24504664101E+02  0.00000000000E+00 0.  1.
          1    1    1    2  501    0 -0.13453998645E+03 -0.81980075787E+02 -0.11261062542E+04  0.11370738923E+04  0.00000000000E+00 0. -1.
<scales pt_clust_5="13000.00000" pt_clust_6="13000.00000" pt_clust_7="13000.00000" pt_clust_8="13000.00000" pt_clust_9="134.10120"></scales>
<clustering>
<clus scale="   79.928">  5  6 -1 -1</clus>
<clus scale="   82.163">  7  8 -1 -1</clus>
<clus scale="   99.171">  2  7  1 -1</clus>
<clus scale="  134.101">  1  9  2 -1</clus>
<clus scale="  134.101">  1  5  2 -1</clus>
</clustering>
</event>
<event>
 9    2  0.3745229E-005  0.1553201E+03  0.7546771E-02  0.1214710E+00
         -3   -1    0    0    0  501 -0.00000000000E+00  0.00000000000E+00  0.10055970731E+03  0.10055970731E+03  0.00000000000E+00 0.  1.
         21   -1    0    0  501  502  0.00000000000E+00 -0.00000000000E+00 -0.42355630965E+03  0.42355630965E+03  0.00000000000E+00 0.  1.
         23    2    1    2    0    0 -0.28783374508E+02  0.27396050645E+02 -0.80404958642E+02  0.12797710668E+03  0.91291599951E+02 0.  0.
         24    2    1    2    0    0  0.40017522461E+02 -0.13953274618E+03 -0.22908584928E+03  0.28263450045E+03  0.79568493434E+02 0.  0.
        -11    1    4    4    0    0  0.62853462856E+02 -0.10565310301E+03 -0.15297936061E+03  0.19625447955E+03  0.00000000000E+00 0.  1.
         12    1    4    4    0    0 -0.22835940395E+02 -0.33879643167E+02 -0.76106488663E+02  0.86380020904E+02  0.00000000000E+00 0. -1.
        -11    1    3    3    0    0  0.22848059220E+02  0.21729244401E+02 -0.67432547971E+02  0.74440193432E+02  0.00000000000E+00 0. -1.
         11    1    3    3    0    0 -0.51631433728E+02  0.56668062437E+01 -0.12972410671E+02  0.53536913250E+02  0.00000000000E+00 0.  1.
         -4    1    1    2    0  502 -0.11234147953E+02  0.11213669554E+03 -0.13505794422E+02  0.11350440982E+03  0.00000000000E+00 0.  1.
<scales pt_clust_5="13000.00000" pt_clust_6="13000.00000" pt_clust_7="13000.00000" pt_clust_8="13000.00000" pt_clust_9="133.39119"></scales>
<clustering>
<clus scale="   79.568">  5  6 -1 -1</clus>
<clus scale="   91.292">  7  8 -1 -1</clus>
<clus scale="   99.565">  1  7  2 -1</clus>
<clus scale="  133.391">  2  9  1 -1</clus>
<clus scale="  133.391">  2  5  1 -1</clus>
</clustering>
</event>
<event>
 9    2  0.3745229E-005  0.1150352E+03  0.7546771E-02  0.1255261E+00
          2   -1    0    0  502    0 -0.00000000000E+00  0.00000000000E+00  0.85069158113E+03  0.85069158113E+03  0.00000000000E+00 0. -1.
         21   -1    0    0  501  502  0.00000000000E+00 -0.00000000000E+00 -0.69579317440E+02  0.69579317440E+02  0.00000000000E+00 0. -1.
         24    2    1    2    0    0  0.14784682421E+02  0.74531064494E+02  0.76530243986E+03  0.77314244013E+03  0.79296543890E+02 0.  0.
         23    2    1    2    0    0  0.67295072622E+01 -0.29035450487E+02  0.18713912588E+02  0.96718687722E+02  0.90088569626E+02 0.  0.
        -13    1    3    3    0    0  0.44408114114E+02  0.26932187569E+02  0.29840747769E+03  0.30289345663E+03  0.00000000000E+00 0.  1.
         14    1    3    3    0    0 -0.29623431694E+02  0.47598876925E+02  0.46689496217E+03  0.47024898351E+03  0.00000000000E+00 0. -1.
        -11    1    4    4    0    0 -0.41812877424E+01 -0.55282368128E+02  0.33400626096E+02  0.64724224342E+02  0.00000000000E+00 0.  1.
         11    1    4    4    0    0  0.10910795005E+02  0.26246917641E+02 -0.14686713508E+02  0.31994463380E+02  0.00000000000E+00 0. -1.
          1    1    1    2  501    0 -0.21514189683E+02 -0.45495614007E+02 -0.29040887601E+01  0.50409770711E+02  0.00000000000E+00 0. -1.
<scales pt_clust_5="13000.00000" pt_clust_6="13000.00000" pt_clust_7="13000.00000" pt_clust_8="13000.00000" pt_clust_9="50.32605"></scales>
<clustering>
<clus scale="   50.326">  2  9  1 -1</clus>
<clus scale="   79.297">  5  6 -1 -1</clus>
<clus scale="   90.089">  7  8 -1 -1</clus>
<clus scale="  106.795">  1  5  2 -1</clus>
<clus scale="   50.326">  2  5  1 -1</clus>
</clustering>
</event>
<event>
 9    2  0.3745229E-005  0.1141848E+03  0.7546771E-02  0.1258732E+00
         21   -1    0    0  501  502  0.00000000000E+00  0.00000000000E+00  0.25289171947E+03  0.25289171947E+03  0.00000000000E+00 0. -1.
         -1   -1    0    0    0  501 -0.00000000000E+00 -0.00000000000E+00 -0.66477124082E+02  0.66477124082E+02  0.00000000000E+00 0.  1.
         23    2    1    2    0    0 -0.52099190905E+02  0.16104824926E+02  0.34132220957E+02  0.11531185329E+03  0.95698087355E+02 0.  0.
         24    2    1    2    0    0  0.74283068355E+02 -0.23622587901E+02  0.12991697712E+03  0.17167100292E+03  0.80724911875E+02 0.  0.
        -11    1    4    4    0    0  0.41926012517E+02 -0.23359872642E+02  0.12107000836E+02  0.49498016573E+02  0.00000000000E+00 0.  1.
         12    1    4    4    0    0  0.32357055838E+02 -0.26271525864E+00  0.11780997628E+03  0.12217298635E+03  0.00000000000E+00 0. -1.
        -11    1    3    3    0    0 -0.59882483869E+02 -0.27136925017E+02  0.15251732096E+02  0.67490294900E+02  0.00000000000E+00 0.  1.
         11    1    3    3    0    0  0.77832929643E+01  0.43241749943E+02  0.18880488861E+02  0.47821558393E+02  0.00000000000E+00 0. -1.
         -2    1    1    2    0  502 -0.22183877450E+02  0.75177629747E+01  0.22365397311E+02  0.32385987336E+02  0.00000000000E+00 0.  1.
<scales pt_clust_5="13000.00000" pt_clust_6="13000.00000" pt_clust_7="13000.00000" pt_clust_8="13000.00000" pt_clust_9="23.42309"></scales>
<clustering>
<clus scale="   23.423">  1  9  2 -1</clus>
<clus scale="   80.725">  5  6 -1 -1</clus>
<clus scale="   95.698">  7  8 -1 -1</clus>
<clus scale="  101.964">  1  5  2 -1</clus>
<clus scale="   23.423">  1  5  2 -1</clus>
</clustering>
</event>
<event>
 9    2  0.3745229E-005  0.1736025E+03  0.7546771E-02  0.1185913E+00
         21   -1    0    0  501  502  0.00000000000E+00  0.00000000000E+00  0.10562881281E+03  0.10562881281E+03  0.00000000000E+00 0. -1.
          2   -1    0    0  502    0 -0.00000000000E+00 -0.00000000000E+00 -0.65872147826E+03  0.65872147826E+03  0.00000000000E+00 0. -1.
         23    2    1    2    0    0 -0.38707125851E+02  0.76672070902E+02 -0.54041278300E+02  0.14378601709E+03  0.10186810542E+03 0.  0.
         24    2    1    2    0    0 -0.12264859502E+03 -0.86980168648E+02 -0.38987029982E+03  0.42546830947E+03  0.80101211505E+02 0.  0.
        -13    1    4    4    0    0  0.49770908761E+01 -0.26818472506E+02 -0.42076998106E+02  0.50144547766E+02  0.00000000000E+00 0.  1.
         14    1    4    4    0    0 -0.12762568589E+03 -0.60161696142E+02 -0.34779330171E+03  0.37532376170E+03  0.00000000000E+00 0. -1.
        -11    1    3    3    0    0 -0.61940262727E+02  0.56963694342E+02 -0.28318116061E+01  0.84199036673E+02  0.00000000000E+00 0. -1.
         11    1    3    3    0    0  0.23233136876E+02  0.19708376560E+02 -0.51209466694E+02  0.59586980414E+02  0.00000000000E+00 0.  1.
          1    1    1    2  501    0  0.16135572087E+03  0.10308097746E+02 -0.10918108734E+03  0.19509596451E+03  0.00000000000E+00 0. -1.
<scales pt_clust_5="13000.00000" pt_clust_6="13000.00000" pt_clust_7="13000.00000" pt_clust_8="13000.00000" pt_clust_9="154.01824"></scales>
<clustering>
<clus scale="   80.101">  5  6 -1 -1</clus>
<clus scale="  101.868">  7  8 -1 -1</clus>
<clus scale="  133.244">  2  7  1 -1</clus>
<clus scale="  154.018">  1  9  2 -1</clus>
<clus scale="  154.018">  1  5  2 -1</clus>
</clustering>
</event>
<event>
 9    2  0.3745229E-005  0.9322293E+02  0.7546771E-02  0.1299696E+00
         21   -1    0    0  501  502  0.00000000000E+00  0.00000000000E+00  0.22678443944E+03  0.22678443944E+03  0.00000000000E+00 0.  1.
         -1   -1    0    0    0  501 -0.00000000000E+00 -0.00000000000E+00 -0.29634947107E+03  0.29634947107E+03  0.00000000000E+00 0.  1.
         23    2    1    2    0    0 -0.10936022502E+02  0.35251290580E+02 -0.24622217877E+03  0.26433036901E+03  0.88785880567E+02 0.  0.
         24    2    1    2    0    0 -0.41808896262E+00  0.14843694675E+02  0.82604793141E+01  0.82747126884E+02  0.80983587344E+02 0.  0.
        -13    1    4    4    0    0 -0.33599515087E+02  0.30062436245E+02 -0.96074012196E+00  0.45095459956E+02  0.00000000000E+00 0.  1.
         14    1    4    4    0    0  0.33181426124E+02 -0.15218741570E+02  0.92212194360E+01  0.37651666928E+02  0.00000000000E+00 0. -1.
        -13    1    3    3    0    0 -0.15335996893E+02  0.63555635278E+02 -0.19465864125E+03  0.20534482753E+03  0.00000000000E+00 0.  1.
         13    1    3    3    0    0  0.43999743904E+01 -0.28304344697E+02 -0.51563537511E+02  0.58985541483E+02  0.00000000000E+00 0. -1.
         -2    1    1    2    0  502  0.11354111465E+02 -0.50094985255E+02  0.16839666782E+03  0.17605641462E+03  0.00000000000E+00 0.  1.
<scales pt_clust_5="13000.00000" pt_clust_6="13000.00000" pt_clust_7="13000.00000" pt_clust_8="13000.00000" pt_clust_9="51.36559"></scales>
<clustering>
<clus scale="   51.366">  1  9  2 -1</clus>
<clus scale="   80.984">  5  6 -1 -1</clus>
<clus scale="   85.825">  1  5  2 -1</clus>
<clus scale="   88.786">  7  8 -1 -1</clus>
<clus scale="   51.366">  1  5  2 -1</clus>
</clustering>
</event>
<event>
 9    2  0.3745229E-005  0.1010386E+03  0.7546771E-02  0.1280028E+00
         21   -1    0    0  501  502  0.00000000000E+00  0.00000000000E+00  0.53728920258E+02  0.53728920258E+02  0.00000000000E+00 0.  1.
         -3   -1    0    0    0  501 -0.00000000000E+00 -0.00000000000E+00 -0.51334346258E+03  0.51334346258E+03  0.00000000000E+00 0.  1.
         23    2    1    2    0    0  0.43562288722E+02 -0.64187313199E+02 -0.28872730357E+03  0.31092911929E+03  0.85415321937E+02 0.  0.
         24    2    1    2    0    0  0.10635284392E+02  0.38683889366E+02 -0.17403389977E+03  0.19616240798E+03  0.81131618146E+02 0.  0.
        -13    1    4    4    0    0 -0.71975938391E+01 -0.19413383165E+02 -0.14042359289E+02  0.25017447060E+02  0.00000000000E+00 0.  1.
         14    1    4    4    0    0  0.17832878231E+02  0.58097272530E+02 -0.15999154048E+03  0.17114496092E+03  0.00000000000E+00 0. -1.
        -11    1    3    3    0    0 -0.17766195286E+02 -0.40408558713E+02 -0.72135415271E+02  0.84569542085E+02  0.00000000000E+00 0. -1.
         11    1    3    3    0    0  0.61328484008E+02 -0.23778754486E+02 -0.21659188830E+03  0.22635957721E+03  0.00000000000E+00 0.  1.
         -4    1    1    2    0  502 -0.54197573115E+02  0.25503423833E+02  0.31466610250E+01  0.59980855565E+02  0.00000000000E+00 0.  1.
<scales pt_clust_5="13000.00000" pt_clust_6="13000.00000" pt_clust_7="13000.00000" pt_clust_8="13000.00000" pt_clust_9="59.89826"></scales>
<clustering>
<clus scale="   59.898">  1  9  2 -1</clus>
<clus scale="   81.132">  5  6 -1 -1</clus>
<clus scale="   85.415">  7  8 -1 -1</clus>
<clus scale="   97.444">  1  5  2 -1</clus>
<clus scale="   59.898">  1  5  2 -1</clus>
</clustering>
</event>
<event>
 9    2  0.3745229E-005  0.9239055E+02  0.7546771E-02  0.1301204E+00
         21   -1    0    0  501  502  0.00000000000E+00  0.00000000000E+00  0.17138408201E+03  0.17138408201E+03  0.00000000000E+00 0. -1.
          2   -1    0    0  502    0 -0.00000000000E+00 -0.00000000000E+00 -0.14152131111E+03  0.14152131111E+03  0.00000000000E+00 0. -1.
         23    2    1    2    0    0  0.56295248937E+01 -0.88887136070E+01 -0.42201495024E+02  0.10154161182E+03  0.91755283053E+02 0.  0.
         24    2    1    2    0    0 -0.24188346134E+02 -0.66509591320E+01  0.12493617296E+03  0.15321440618E+03  0.85066418772E+02 0.  0.
        -13    1    4    4    0    0 -0.32595077783E+02 -0.33617185267E+02  0.33659920309E+02  0.57667533987E+02  0.00000000000E+00 0.  1.
         14    1    4    4    0    0  0.84067316489E+01  0.26966226135E+02  0.91276252646E+02  0.95546872194E+02  0.00000000000E+00 0. -1.
        -11    1    3    3    0    0  0.25648561387E+02  0.34535966294E+02 -0.29186820426E+02  0.51985114751E+02  0.00000000000E+00 0.  1.
         11    1    3    3    0    0 -0.20019036494E+02 -0.43424679901E+02 -0.13014674598E+02  0.49556497066E+02  0.00000000000E+00 0. -1.
          1    1    1    2  501    0  0.18558821241E+02  0.15539672739E+02 -0.52871907031E+02  0.58149375128E+02  0.00000000000E+00 0. -1.
<scales pt_clust_5="13000.00000" pt_clust_6="13000.00000" pt_clust_7="13000.00000" pt_clust_8="13000.00000" pt_clust_9="24.20562"></scales>
<clustering>
<clus scale="   24.206">  1  9  2 -1</clus>
<clus scale="   85.066">  5  6 -1 -1</clus>
<clus scale="   85.751">  1  5  2 -1</clus>
<clus scale="   91.755">  7  8 -1 -1</clus>
<clus scale="   24.206">  1  5  2 -1</clus>
</clustering>
</event>
<event>
 9    2  0.3745229E-005  0.9723386E+02  0.7546771E-02  0.1290675E+00
         21   -1    0    0  501  502  0.00000000000E+00  0.00000000000E+00  0.19602451083E+03  0.19602451083E+03  0.00000000000E+00 0. -1.
          2   -1    0    0  502    0 -0.00000000000E+00 -0.00000000000E+00 -0.23862218525E+03  0.23862218525E+03  0.00000000000E+00 0. -1.
         24    2    1    2    0    0 -0.11972146238E-01 -0.44737140738E+02 -0.18617261227E+03  0.20757224158E+03  0.80153490327E+02 0.  0.
         23    2    1    2    0    0  0.16399966102E+02  0.14090973148E+02  0.13403713312E+02  0.92343976764E+02  0.88770693935E+02 0.  0.
        -11    1    3    3    0    0 -0.26987034266E+02 -0.56252786927E+02 -0.13041139661E+03  0.14456766036E+03  0.00000000000E+00 0.  1.
         12    1    3    3    0    0  0.26975062120E+02  0.11515646189E+02 -0.55761215656E+02  0.63004581222E+02  0.00000000000E+00 0. -1.
        -13    1    4    4    0    0  0.35673060877E+01 -0.33145891376E+02 -0.14100887537E+02  0.36196834353E+02  0.00000000000E+00 0. -1.
         13    1    4    4    0    0  0.12832660014E+02  0.47236864524E+02  0.27504600849E+02  0.56147142411E+02  0.00000000000E+00 0.  1.
          1    1    1    2  501    0 -0.16387993955E+02  0.30646167590E+02  0.13017122453E+03  0.13473047773E+03  0.00000000000E+00 0. -1.
<scales pt_clust_5="13000.00000" pt_clust_6="13000.00000" pt_clust_7="13000.00000" pt_clust_8="13000.00000" pt_clust_9="34.75275"></scales>
<clustering>
<clus scale="   34.753">  1  9  2 -1</clus>
<clus scale="   80.153">  5  6 -1 -1</clus>
<clus scale="   88.771">  7  8 -1 -1</clus>
<clus scale="   89.436">  2  5  1 -1</clus>
<clus scale="   34.753">  1  5  2 -1</clus>
</clustering>
</event>
<event>
 9    2  0.3745229E-005  0.1246332E+03  0.7546771E-02  0.1245277E+00
         21   -1    0    0  501  502  0.00000000000E+00  0.00000000000E+00  0.16188880076E+03  0.16188880076E+03  0.00000000000E+00 0.  1.
         -1   -1    0    0    0  501 -0.00000000000E+00 -0.00000000000E+00 -0.26819058619E+03  0.26819058619E+03  0.00000000000E+00 0.  1.
         23    2    1    2    0    0  0.49356871396E+02  0.98649189932E+01 -0.16825033140E+03  0.19701444122E+03  0.89292209372E+02 0.  0.
         24    2    1    2    0    0 -0.48639698060E+01  0.86058815347E+02  0.29850044341E+02  0.12256021773E+03  0.81854773364E+02 0.  0.
        -11    1    4    4    0    0  0.35666396133E+02  0.19324297977E+02  0.66369173333E+01  0.41104366886E+02  0.00000000000E+00 0.  1.
         12    1    4    4    0    0 -0.40530365939E+02  0.66734517370E+02  0.23213127008E+02  0.81455850847E+02  0.00000000000E+00 0. -1.
        -11    1    3    3    0    0 -0.11224049451E+02  0.28475527241E+02 -0.96721303211E+02  0.10144873303E+03  0.00000000000E+00 0.  1.
         11    1    3    3    0    0  0.60580920847E+02 -0.18610608248E+02 -0.71529028187E+02  0.95565708198E+02  0.00000000000E+00 0. -1.
         -2    1    1    2    0  502 -0.44492901590E+02 -0.95923734341E+02  0.32098501634E+02  0.11050472799E+03  0.00000000000E+00 0.  1.
<scales pt_clust_5="13000.00000" pt_clust_6="13000.00000" pt_clust_7="13000.00000" pt_clust_8="13000.00000" pt_clust_9="93.98534"></scales>
<clustering>
<clus scale="   81.855">  5  6 -1 -1</clus>
<clus scale="   89.292">  7  8 -1 -1</clus>
<clus scale="  102.501">  2  7  1 -1</clus>
<clus scale="   93.985">  1  9  2 -1</clus>
<clus scale="   93.985">  1  5  2 -1</clus>
</clustering>
</event>
<event>
 9    2  0.3745229E-005  0.9208085E+02  0.7546771E-02  0.1306706E+00
         21   -1    0    0  501  502  0.00000000000E+00  0.00000000000E+00  0.27193580943E+02  0.27193580943E+02  0.00000000000E+00 0.  1.
         -3   -1    0    0    0  501 -0.00000000000E+00 -0.00000000000E+00 -0.34763950393E+03  0.34763950393E+03  0.00000000000E+00 0.  1.
         24    2    1    2    0    0  0.16485974723E+02  0.89011047817E+01 -0.15919776813E+03  0.17806488318E+03  0.77538095252E+02 0.  0.
         23    2    1    2    0    0  0.80597667392E+00  0.19120390579E+01 -0.12122601408E+03  0.15184930349E+03  0.91422967522E+02 0.  0.
        -11    1    3    3    0    0  0.32468699485E+02  0.14034456405E+02 -0.15723391197E+03  0.16116353647E+03  0.00000000000E+00 0.  1.
         12    1    3    3    0    0 -0.15982724761E+02 -0.51333516234E+01 -0.19638561590E+01  0.16901346713E+02  0.00000000000E+00 0. -1.
        -11    1    4    4    0    0  0.45192733009E+02 -0.81794166009E+01 -0.60986012456E+02  0.76345135327E+02  0.00000000000E+00 0.  1.
         11    1    4    4    0    0 -0.44386756335E+02  0.10091455659E+02 -0.60240001619E+02  0.75504168165E+02  0.00000000000E+00 0. -1.
         -4    1    1    2    0  502 -0.17291951397E+02 -0.10813143840E+02 -0.40022140779E+02  0.44918898198E+02  0.00000000000E+00 0.  1.
<scales pt_clust_5="13000.00000" pt_clust_6="13000.00000" pt_clust_7="13000.00000" pt_clust_8="13000.00000" pt_clust_9="20.39451"></scales>
<clustering>
<clus scale="   20.395">  1  9  2 -1</clus>
<clus scale="   77.538">  5  6 -1 -1</clus>
<clus scale="   78.313">  2  5  1 -1</clus>
<clus scale="   91.423">  7  8 -1 -1</clus>
<clus scale="   20.395">  1  5  2 -1</clus>
</clustering>
</event>
<event>
 9    2  0.3745229E-005  0.1980843E+03  0.7546771E-02  0.1178770E+00
         -1   -1    0    0    0  501 -0.00000000000E+00  0.00000000000E+00  0.66682891480E+03  0.66682891480E+03  0.00000000000E+00 0.  1.
         21   -1    0    0  501  502  0.00000000000E+00 -0.00000000000E+00 -0.12784622823E+03  0.12784622823E+03  0.00000000000E+00 0. -1.
         23    2    1    2    0    0 -0.53769780636E+02 -0.15563436935E+02  0.34285203981E+03  0.35864300420E+03  0.89128409512E+02 0.  0.
         24    2    1    2    0    0 -0.37219062436E+02 -0.16272920603E+03  0.69287607650E+02  0.19905873806E+03  0.83411962682E+02 0.  0.
        -11    1    4    4    0    0 -0.32016412515E+02 -0.18241864660E+02  0.34216284560E+02  0.50284892619E+02  0.00000000000E+00 0.  1.
         12    1    4    4    0    0 -0.52026499212E+01 -0.14448734137E+03  0.35071323090E+02  0.14877384544E+03  0.00000000000E+00 0. -1.
        -13    1    3    3    0    0 -0.51805489496E+01  0.33592160331E+02  0.81443829548E+02  0.88251734796E+02  0.00000000000E+00 0.  1.
         13    1    3    3    0    0 -0.48589231686E+02 -0.49155597266E+02  0.26140821026E+03  0.27039126941E+03  0.00000000000E+00 0. -1.
         -2    1    1    2    0  502  0.90988843072E+02  0.17829264297E+03  0.12684303911E+03  0.23697340076E+03  0.00000000000E+00 0.  1.
<scales pt_clust_5="13000.00000" pt_clust_6="13000.00000" pt_clust_7="13000.00000" pt_clust_8="13000.00000" pt_clust_9="179.66600"></scales>
<clustering>
<clus scale="   83.412">  5  6 -1 -1</clus>
<clus scale="   89.128">  7  8 -1 -1</clus>
<clus scale="  105.249">  1  7  2 -1</clus>
<clus scale="  179.666">  2  9  1 -1</clus>
<clus scale="  179.666">  2  5  1 -1</clus>
</clustering>
</event>
<event>
 9    2  0.3745229E-005  0.1786850E+03  0.7546771E-02  0.1170666E+00
         21   -1    0    0  501  502  0.00000000000E+00  0.00000000000E+00  0.43687634414E+02  0.43687634414E+02  0.00000000000E+00 0.  1.
         -1   -1    0    0    0  501 -0.00000000000E+00 -0.00000000000E+00 -0.98195745368E+03  0.98195745368E+03  0.00000000000E+00 0.  1.
         23    2    1    2    0    0 -0.57293832970E+02 -0.13074565075E+03 -0.34226579273E+03  0.38205327067E+03  0.91879378912E+02 0.  0.
         24    2    1    2    0    0  0.28984915836E+02  0.16443939294E+03 -0.37193507450E+03  0.41524217692E+03  0.78803087193E+02 0.  0.
        -11    1    4    4    0    0  0.51873964537E+02  0.12201654173E+03 -0.30668513814E+03  0.33411782145E+03  0.00000000000E+00 0.  1.
         12    1    4    4    0    0 -0.22889048701E+02  0.42422851218E+02 -0.65249936358E+02  0.81124355471E+02  0.00000000000E+00 0. -1.
        -13    1    3    3    0    0  0.21262661733E+02 -0.68288329098E+01 -0.34391067627E+02  0.41005844406E+02  0.00000000000E+00 0. -1.
         13    1    3    3    0    0 -0.78556494703E+02 -0.12391681784E+03 -0.30787472510E+03  0.34104742627E+03  0.00000000000E+00 0.  1.
         -2    1    1    2    0  502  0.28308917134E+02 -0.33693742189E+02 -0.22406895204E+03  0.22834964050E+03  0.00000000000E+00 0.  1.
<scales pt_clust_5="13000.00000" pt_clust_6="13000.00000" pt_clust_7="13000.00000" pt_clust_8="13000.00000" pt_clust_9="44.00756"></scales>
<clustering>
<clus scale="   44.008">  1  9  2 -1</clus>
<clus scale="   78.803">  5  6 -1 -1</clus>
<clus scale="   91.879">  7  8 -1 -1</clus>
<clus scale="  172.327">  1  5  2 -1</clus>
<clus scale="   44.008">  1  5  2 -1</clus>
</clustering>
</event>
<event>
 9    2  0.3745229E-005  0.1699130E+03  0.7546771E-02  0.1206117E+00
         -3   -1    0    0    0  501 -0.00000000000E+00  0.00000000000E+00  0.13049820996E+04  0.13049820996E+04  0.00000000000E+00 0.  1.
         21   -1    0    0  501  502  0.00000000000E+00 -0.00000000000E+00 -0.45543894190E+02  0.45543894190E+02  0.00000000000E+00 0.  1.
         24    2    1    2    0    0 -0.17999467321E+02  0.24761170761E+02  0.39292740492E+03  0.40340836504E+03  0.86077099429E+02 0.  0.
         23    2    1    2    0    0 -0.13393376739E+03  0.24739345892E+02  0.18950393389E+03  0.25150832290E+03  0.93778495644E+02 0.  0.
        -11    1    3    3    0    0 -0.39493660126E+02 -0.16952894107E+02  0.15230244661E+03  0.15825038721E+03  0.00000000000E+00 0.  1.
         12    1    3    3    0    0  0.21494192806E+02  0.41714064868E+02  0.24062495831E+03  0.24515797783E+03  0.00000000000E+00 0. -1.
        -13    1    4    4    0    0 -0.29782546269E+02  0.19621310229E+01 -0.44569254761E+01  0.30178041771E+02  0.00000000000E+00 0.  1.
         13    1    4    4    0    0 -0.10415122112E+03  0.22777214869E+02  0.19396085937E+03  0.22133028113E+03  0.00000000000E+00 0. -1.
         -4    1    1    2    0  502  0.15193323471E+03 -0.49500516653E+02  0.67700686658E+03  0.69560930583E+03  0.00000000000E+00 0.  1.
<scales pt_clust_5="13000.00000" pt_clust_6="13000.00000" pt_clust_7="13000.00000" pt_clust_8="13000.00000" pt_clust_9="141.68998"></scales>
<clustering>
<clus scale="   86.077">  5  6 -1 -1</clus>
<clus scale="   91.358">  1  5  2 -1</clus>
<clus scale="   93.778">  7  8 -1 -1</clus>
<clus scale="  141.690">  2  9  1 -1</clus>
<clus scale="  141.690">  2  5  1 -1</clus>
</clustering>
</event>
<event>
 9    2  0.3745229E-005  0.9384673E+02  0.7546771E-02  0.1294441E+00
         -1   -1    0    0    0  501 -0.00000000000E+00  0.00000000000E+00  0.21541103316E+03  0.21541103316E+03  0.00000000000E+00 0.  1.
         21   -1    0    0  501  502  0.00000000000E+00 -0.00000000000E+00 -0.65434264463E+02  0.65434264463E+02  0.00000000000E+00 0.  1.
         24    2    1    2    0    0 -0.40258032735E+02 -0.36325740583E+02  0.11845829269E+03  0.15320079301E+03  0.80609225555E+02 0.  0.
         23    2    1    2    0    0  0.71755217209E+01  0.40754219550E+02  0.16135179236E+02  0.90892500847E+02  0.79301375638E+02 0.  0.
        -11    1    3    3    0    0 -0.35677288000E+02 -0.18654556929E+01  0.11236454358E+03  0.11790733420E+03  0.00000000000E+00 0.  1.
         12    1    3    3    0    0 -0.45807447350E+01 -0.34460284890E+02  0.60937491111E+01  0.35293458817E+02  0.00000000000E+00 0. -1.
        -13    1    4    4    0    0 -0.36207876047E+02  0.19118787512E+02  0.84449778651E+01  0.41807367471E+02  0.00000000000E+00 0.  1.
         13    1    4    4    0    0  0.43383397768E+02  0.21635432038E+02  0.76902013711E+01  0.49085133375E+02  0.00000000000E+00 0. -1.
         -2    1    1    2    0  502  0.33082511014E+02 -0.44284789675E+01  0.15383296770E+02  0.36752003761E+02  0.00000000000E+00 0.  1.
<scales pt_clust_5="13000.00000" pt_clust_6="13000.00000" pt_clust_7="13000.00000" pt_clust_8="13000.00000" pt_clust_9="33.37760"></scales>
<clustering>
<clus scale="   33.378">  2  9  1 -1</clus>
<clus scale="   79.301">  7  8 -1 -1</clus>
<clus scale="   80.609">  5  6 -1 -1</clus>
<clus scale="   92.726">  2  7  1 -1</clus>
<clus scale="   33.378">  2  5  1 -1</clus>
</clustering>
</event>
<event>
 9    2  0.3745229E-005  0.9959558E+02  0.7546771E-02  0.1288008E+00
         21   -1    0    0  501  502  0.00000000000E+00  0.00000000000E+00  0.12615245858E+03  0.12615245858E+03  0.00000000000E+00 0.  1.
         -3   -1    0    0    0  501 -0.00000000000E+00 -0.00000000000E+00 -0.29208689136E+03  0.29208689136E+03  0.00000000000E+00 0.  1.
         23    2    1    2    0    0  0.42796731805E+02  0.10029754446E+02 -0.20462001622E+03  0.22877678637E+03  0.92397568776E+02 0.  0.
         24    2    1    2    0    0 -0.10936150934E+02  0.64026032733E+02  0.64253388603E+01  0.10262893179E+03  0.79198992387E+02 0.  0.
        -11    1    4    4    0    0  0.26192992302E+02  0.29313259115E+02  0.27110271464E+02  0.47752558303E+02  0.00000000000E+00 0.  1.
         12    1    4    4    0    0 -0.37129143236E+02  0.34712773618E+02 -0.20684932603E+02  0.54876373482E+02  0.00000000000E+00 0. -1.
        -11    1    3    3    0    0  0.32642043491E+02 -0.31402933142E+02 -0.46145382331E+02  0.64660989195E+02  0.00000000000E+00 0. -1.
         11    1    3    3    0    0  0.10154688313E+02  0.41432687588E+02 -0.15847463389E+03  0.16411579717E+03  0.00000000000E+00 0.  1.
         -4    1    1    2    0  502 -0.31860580870E+02 -0.74055787179E+02  0.32260244577E+02  0.86833631781E+02  0.00000000000E+00 0.  1.
<scales pt_clust_5="13000.00000" pt_clust_6="13000.00000" pt_clust_7="13000.00000" pt_clust_8="13000.00000" pt_clust_9="80.61858"></scales>
<clustering>
<clus scale="   79.199">  5  6 -1 -1</clus>
<clus scale="   80.619">  1  9  2 -1</clus>
<clus scale="   87.490">  1  5  2 -1</clus>
<clus scale="   92.398">  7  8 -1 -1</clus>
<clus scale="   80.619">  1  5  2 -1</clus>
</clustering>
</event>
<event>
 9    2  0.3745229E-005  0.1225969E+03  0.7546771E-02  0.1243533E+00
          2   -1    0    0  502    0 -0.00000000000E+00  0.00000000000E+00  0.58805383717E+03  0.58805383717E+03  0.00000000000E+00 0. -1.
         21   -1    0    0  501  502  0.00000000000E+00 -0.00000000000E+00 -0.53760852501E+02  0.53760852501E+02  0.00000000000E+00 0.  1.
         23    2    1    2    0    0 -0.78253074126E+02  0.27648075210E+02  0.47079871355E+03  0.48671359456E+03  0.91382354842E+02 0.  0.
         24    2    1    2    0    0  0.80549376891E+02  0.11808577452E+01  0.60168133876E+02  0.12599021105E+03  0.75919249226E+02 0.  0.
        -13    1    4    4    0    0  0.93286682187E+02 -0.98516009834E+01  0.49798705131E+02  0.10620437914E+03  0.00000000000E+00 0.  1.
         14    1    4    4    0    0 -0.12737305296E+02  0.11032458729E+02  0.10369428745E+02  0.19785831908E+02  0.00000000000E+00 0. -1.
        -11    1    3    3    0    0 -0.11146065502E+02  0.47666995595E+02  0.13276903163E+03  0.14150615890E+03  0.00000000000E+00 0.  1.
         11    1    3    3    0    0 -0.67107008624E+02 -0.20018920384E+02  0.33802968192E+03  0.34520743567E+03  0.00000000000E+00 0. -1.
          1    1    1    2  501    0 -0.22963027655E+01 -0.28828932956E+02  0.33261372378E+01  0.29110884059E+02  0.00000000000E+00 0. -1.
<scales pt_clust_5="13000.00000" pt_clust_6="13000.00000" pt_clust_7="13000.00000" pt_clust_8="13000.00000" pt_clust_9="28.92024"></scales>
<clustering>
<clus scale="   28.920">  2  9  1 -1</clus>
<clus scale="   75.919">  5  6 -1 -1</clus>
<clus scale="   91.382">  7  8 -1 -1</clus>
<clus scale="  111.548">  2  5  1 -1</clus>
<clus scale="   28.920">  2  5  1 -1</clus>
</clustering>
</event>
<event>
 9    2  0.3745229E-005  0.1274999E+03  0.7546771E-02  0.1233153E+00
         21   -1    0    0  501  502  0.00000000000E+00  0.00000000000E+00  0.57010906045E+02  0.57010906045E+02  0.00000000000E+00 0. -1.
          2   -1    0    0  502    0 -0.00000000000E+00 -0.00000000000E+00 -0.89615141584E+03  0.89615141584E+03  0.00000000000E+00 0. -1.
         23    2    1    2    0    0 -0.87019297469E+01 -0.80543849320E+02 -0.45438644767E+03  0.47061287579E+03  0.91904296907E+02 0.  0.
         24    2    1    2    0    0  0.94238974246E+02 -0.16038894572E+02 -0.71959816921E+02  0.14419304785E+03  0.80468561507E+02 0.  0.
        -11    1    4    4    0    0  0.34085774038E+02 -0.40058622208E+02 -0.57305062114E+02  0.77784338712E+02  0.00000000000E+00 0.  1.
         12    1    4    4    0    0  0.60153200208E+02  0.24019727636E+02 -0.14654754807E+02  0.66408709138E+02  0.00000000000E+00 0. -1.
        -11    1    3    3    0    0 -0.50108703276E+02 -0.47952739817E+02 -0.27820030652E+03  0.28671546514E+03  0.00000000000E+00 0. -1.
         11    1    3    3    0    0  0.41406773529E+02 -0.32591109502E+02 -0.17618614115E+03  0.18389741065E+03  0.00000000000E+00 0.  1.
          1    1    1    2  501    0 -0.85537044499E+02  0.96582743892E+02 -0.31279424521E+03  0.33835639824E+03  0.00000000000E+00 0. -1.
<scales pt_clust_5="13000.00000" pt_clust_6="13000.00000" pt_clust_7="13000.00000" pt_clust_8="13000.00000" pt_clust_9="98.89915"></scales>
<clustering>
<clus scale="   80.469">  5  6 -1 -1</clus>
<clus scale="   91.904">  7  8 -1 -1</clus>
<clus scale="  122.513">  2  7  1 -1</clus>
<clus scale="   98.899">  1  9  2 -1</clus>
<clus scale="   98.899">  1  5  2 -1</clus>
</clustering>
</event>
<event>
 9    2  0.3745229E-005  0.9317440E+02  0.7546771E-02  0.1302035E+00
         21   -1    0    0  501  502  0.00000000000E+00  0.00000000000E+00  0.51459802925E+02  0.51459802925E+02  0.00000000000E+00 0. -1.
         -3   -1    0    0    0  501 -0.00000000000E+00 -0.00000000000E+00 -0.29053779057E+03  0.29053779057E+03  0.00000000000E+00 0.  1.
         23    2    1    2    0    0  0.19994591827E+02  0.58408418020E+01 -0.15802770242E+03  0.18326202136E+03  0.90434034570E+02 0.  0.
         24    2    1    2    0    0 -0.14444259115E+02 -0.31987085165E+02 -0.15606030706E+02  0.88043403643E+02  0.79222992192E+02 0.  0.
        -13    1    4    4    0    0 -0.31066163588E+02  0.14823880698E+01 -0.34264317124E+02  0.46274695271E+02  0.00000000000E+00 0.  1.
         14    1    4    4    0    0  0.16621904473E+02 -0.33469473235E+02  0.18658286418E+02  0.41768708372E+02  0.00000000000E+00 0. -1.
        -13    1    3    3    0    0  0.54196401053E+02 -0.90786686084E+01 -0.10360040792E+03  0.11727197718E+03  0.00000000000E+00 0.  1.
         13    1    3    3    0    0 -0.34201809226E+02  0.14919510410E+02 -0.54427294494E+02  0.65990044182E+02  0.00000000000E+00 0. -1.
         -4    1    1    2    0  502 -0.55503327120E+01  0.26146243363E+02 -0.65444254524E+02  0.70692168488E+02  0.00000000000E+00 0.  1.
<scales pt_clust_5="13000.00000" pt_clust_6="13000.00000" pt_clust_7="13000.00000" pt_clust_8="13000.00000" pt_clust_9="26.72888"></scales>
<clustering>
<clus scale="   26.729">  1  9  2 -1</clus>
<clus scale="   79.223">  5  6 -1 -1</clus>
<clus scale="   82.337">  1  5  2 -1</clus>
<clus scale="   90.434">  7  8 -1 -1</clus>
<clus scale="   26.729">  1  5  2 -1</clus>
</clustering>
</event>
<event>
 9    2  0.3745229E-005  0.1007263E+03  0.7546771E-02  0.1289762E+00
         21   -1    0    0  501  502  0.00000000000E+00  0.00000000000E+00  0.50086262846E+02  0.50086262846E+02  0.00000000000E+00 0.  1.
         -1   -1    0    0    0  501 -0.00000000000E+00 -0.00000000000E+00 -0.38553096124E+03  0.38553096124E+03  0.00000000000E+00 0.  1.
         24    2    1    2    0    0  0.48376858042E+02 -0.40916254861E-02 -0.19815404657E+03  0.21574999573E+03  0.70304438507E+02 0.  0.
         23    2    1    2    0    0 -0.12499615328E+02 -0.45209790126E+02 -0.48027125567E+02  0.11356836304E+03  0.91602416928E+02 0.  0.
        -11    1    3    3    0    0  0.10994505533E+02  0.32736292395E+02 -0.98809309908E+02  0.10467007078E+03  0.00000000000E+00 0.  1.
         12    1    3    3    0    0  0.37382352509E+02 -0.32740384021E+02 -0.99344736661E+02  0.11107992495E+03  0.00000000000E+00 0. -1.
        -13    1    4    4    0    0  0.27516604995E+02  0.13721894275E+02 -0.76442911455E+01  0.31684209317E+02  0.00000000000E+00 0. -1.
         13    1    4    4    0    0 -0.40016220322E+02 -0.58931684401E+02 -0.40382834422E+02  0.81884153724E+02  0.00000000000E+00 0.  1.
         -2    1    1    2    0  502 -0.35877242714E+02  0.45213881751E+02 -0.89263526257E+02  0.10629886532E+03  0.00000000000E+00 0.  1.
<scales pt_clust_5="13000.00000" pt_clust_6="13000.00000" pt_clust_7="13000.00000" pt_clust_8="13000.00000" pt_clust_9="57.71893"></scales>
<clustering>
<clus scale="   57.719">  1  9  2 -1</clus>
<clus scale="   70.304">  5  6 -1 -1</clus>
<clus scale="   81.838">  2  5  1 -1</clus>
<clus scale="   91.602">  7  8 -1 -1</clus>
<clus scale="   57.719">  1  5  2 -1</clus>
</clustering>
</event>
<event>
 9    2  0.3745229E-005  0.9441368E+02  0.7546771E-02  0.1294798E+00
         21   -1    0    0  501  502  0.00000000000E+00  0.00000000000E+00  0.12055937826E+03  0.12055937826E+03  0.00000000000E+00 0. -1.
         -1   -1    0    0    0  501 -0.00000000000E+00 -0.00000000000E+00 -0.34763189961E+03  0.34763189961E+03  0.00000000000E+00 0.  1.
         23    2    1    2    0    0  0.38594090816E+02 -0.13063723591E+02 -0.27692008013E+03  0.29199074197E+03  0.83148649407E+02 0.  0.
         24    2    1    2    0    0 -0.83890415953E+02  0.31583837105E+02  0.43148818165E+02  0.12680797775E+03  0.78633975201E+02 0.  0.
        -13    1    4    4    0    0  0.56165480319E+01  0.28861753704E+02  0.69054442404E+01  0.30203172000E+02  0.00000000000E+00 0.  1.
         14    1    4    4    0    0 -0.89506963985E+02  0.27220834006E+01  0.36243373925E+02  0.96604805747E+02  0.00000000000E+00 0. -1.
        -13    1    3    3    0    0  0.36674805499E+02  0.31138545928E+02 -0.15473206738E+03  0.16203907885E+03  0.00000000000E+00 0. -1.
         13    1    3    3    0    0  0.19192853172E+01 -0.44202269519E+02 -0.12218801275E+03  0.12995166312E+03  0.00000000000E+00 0.  1.
         -2    1    1    2    0  502  0.45296325137E+02 -0.18520113514E+02  0.66987406162E+01  0.49392558157E+02  0.00000000000E+00 0.  1.
<scales pt_clust_5="13000.00000" pt_clust_6="13000.00000" pt_clust_7="13000.00000" pt_clust_8="13000.00000" pt_clust_9="48.93620"></scales>
<clustering>
<clus scale="   48.936">  1  9  2 -1</clus>
<clus scale="   78.634">  5  6 -1 -1</clus>
<clus scale="   83.149">  7  8 -1 -1</clus>
<clus scale="   90.463">  1  5  2 -1</clus>
<clus scale="   48.936">  1  5  2 -1</clus>
</clustering>
</event>
<event>
 9    2  0.3745229E-005  0.8423098E+02  0.7546771E-02  0.1322861E+00
          2   -1    0    0  502    0 -0.00000000000E+00  0.00000000000E+00  0.56386865388E+03  0.56386865388E+03  0.00000000000E+00 0. -1.
         21   -1    0    0  501  502  0.00000000000E+00 -0.00000000000E+00 -0.25088767725E+02  0.25088767725E+02  0.00000000000E+00 0.  1.
         24    2    1    2    0    0 -0.11422773931E+02  0.77369506465E+00  0.41041081427E+03  0.41883622759E+03  0.82798977672E+02 0.  0.
         23    2    1    2    0    0  0.26056565816E+02 -0.24658845721E+02  0.88147410331E+02  0.12110660083E+03  0.74898861955E+02 0.  0.
        -13    1    3    3    0    0  0.40229777475E+01 -0.35715524477E+02  0.10760061123E+03  0.11344458813E+03  0.00000000000E+00 0.  1.
         14    1    3    3    0    0 -0.15445751679E+02  0.36489219541E+02  0.30281020304E+03  0.30539163946E+03  0.00000000000E+00 0. -1.
        -13    1    4    4    0    0  0.39346786960E+02 -0.44235502026E+02  0.59263443483E+02  0.83768162311E+02  0.00000000000E+00 0.  1.
         13    1    4    4    0    0 -0.13290221144E+02  0.19576656305E+02  0.28883966848E+02  0.37338438519E+02  0.00000000000E+00 0. -1.
          1    1    1    2  501    0 -0.14633791885E+02  0.23885150656E+02  0.40221661551E+02  0.49014593181E+02  0.00000000000E+00 0. -1.
<scales pt_clust_5="13000.00000" pt_clust_6="13000.00000" pt_clust_7="13000.00000" pt_clust_8="13000.00000" pt_clust_9="28.01157"></scales>
<clustering>
<clus scale="   28.012">  2  9  1 -1</clus>
<clus scale="   74.899">  7  8 -1 -1</clus>
<clus scale="   76.479">  2  7  1 -1</clus>
<clus scale="   82.799">  5  6 -1 -1</clus>
<clus scale="   28.012">  2  5  1 -1</clus>
</clustering>
</event>
<event>
 9    2  0.3745229E-005  0.1200332E+03  0.7546771E-02  0.1243737E+00
         21   -1    0    0  501  502  0.00000000000E+00  0.00000000000E+00  0.15479622486E+03  0.15479622486E+03  0.00000000000E+00 0.  1.
          2   -1    0    0  502    0 -0.00000000000E+00 -0.00000000000E+00 -0.41939148691E+03  0.41939148691E+03  0.00000000000E+00 0. -1.
         23    2    1    2    0    0  0.60433636819E+02  0.43718493956E+02 -0.35744229899E+03  0.37677432545E+03  0.92899752620E+02 0.  0.
         24    2    1    2    0    0 -0.87544110695E+02 -0.29620948482E+02  0.38580401547E+02  0.13513508915E+03  0.90728567875E+02 0.  0.
        -13    1    4    4    0    0 -0.93832325679E+02 -0.30198946724E+01  0.48979440472E+02  0.10588961562E+03  0.00000000000E+00 0.  1.
         14    1    4    4    0    0  0.62882149840E+01 -0.26601053810E+02 -0.10399038926E+02  0.29245473531E+02  0.00000000000E+00 0. -1.
        -13    1    3    3    0    0  0.84299234408E+02  0.32083975098E+02 -0.30401892584E+03  0.31711709138E+03  0.00000000000E+00 0. -1.
         13    1    3    3    0    0 -0.23865597589E+02  0.11634518859E+02 -0.53423373151E+02  0.59657234064E+02  0.00000000000E+00 0.  1.
          1    1    1    2  501    0  0.27110473876E+02 -0.14097545474E+02  0.54266635393E+02  0.62278297175E+02  0.00000000000E+00 0. -1.
<scales pt_clust_5="13000.00000" pt_clust_6="13000.00000" pt_clust_7="13000.00000" pt_clust_8="13000.00000" pt_clust_9="30.55681"></scales>
<clustering>
<clus scale="   30.557">  1  9  2 -1</clus>
<clus scale="   90.729">  5  6 -1 -1</clus>
<clus scale="   92.900">  7  8 -1 -1</clus>
<clus scale="  118.361">  1  5  2 -1</clus>
<clus scale="   30.557">  1  5  2 -1</clus>
</clustering>
</event>
<event>
 9    2  0.3745229E-005  0.1138068E+03  0.7546771E-02  0.1259679E+00
          2   -1    0    0  502    0 -0.00000000000E+00  0.00000000000E+00  0.58416104990E+03  0.58416104990E+03  0.00000000000E+00 0. -1.
         21   -1    0    0  501  502  0.00000000000E+00 -0.00000000000E+00 -0.28134664116E+02  0.28134664116E+02  0.00000000000E+00 0.  1.
         24    2    1    2    0    0  0.59290414956E+02  0.32549909589E+02  0.32022087812E+03  0.33759164852E+03  0.82775965388E+02 0.  0.
         23    2    1    2    0    0 -0.42769627138E+02 -0.42529336427E+01  0.16406616977E+03  0.19583589778E+03  0.97911502623E+02 0.  0.
        -11    1    3    3    0    0  0.61346366175E+02  0.54107449669E+02  0.21216756142E+03  0.22738968066E+03  0.00000000000E+00 0.  1.
         12    1    3    3    0    0 -0.20559512189E+01 -0.21557540080E+02  0.10805331670E+03  0.11020196786E+03  0.00000000000E+00 0. -1.
        -13    1    4    4    0    0  0.16402041165E+01  0.37674077932E+02  0.28894908494E+02  0.47507285277E+02  0.00000000000E+00 0.  1.
         13    1    4    4    0    0 -0.44409831255E+02 -0.41927011575E+02  0.13517126128E+03  0.14832861250E+03  0.00000000000E+00 0. -1.
          1    1    1    2  501    0 -0.16520787818E+02 -0.28296975946E+02  0.71739337897E+02  0.78868167721E+02  0.00000000000E+00 0. -1.
<scales pt_clust_5="13000.00000" pt_clust_6="13000.00000" pt_clust_7="13000.00000" pt_clust_8="13000.00000" pt_clust_9="32.76670"></scales>
<clustering>
<clus scale="   32.767">  2  9  1 -1</clus>
<clus scale="   82.776">  5  6 -1 -1</clus>
<clus scale="   97.912">  7  8 -1 -1</clus>
<clus scale="  101.080">  1  5  2 -1</clus>
<clus scale="   32.767">  2  5  1 -1</clus>
</clustering>
</event>
<event>
 9    2  0.3745229E-005  0.2655490E+03  0.7546771E-02  0.1103916E+00
         21   -1    0    0  501  502  0.00000000000E+00  0.00000000000E+00  0.80911699618E+02  0.80911699618E+02  0.00000000000E+00 0.  1.
          2   -1    0    0  502    0 -0.00000000000E+00 -0.00000000000E+00 -0.25342640049E+04  0.25342640049E+04  0.00000000000E+00 0. -1.
         24    2    1    2    0    0  0.15085384630E+03 -0.21058400151E+03 -0.16388407158E+04  0.16611886498E+04  0.81525050093E+02 0.  0.
         23    2    1    2    0    0  0.27971730743E+02  0.28109991481E+03 -0.39179688881E+03  0.48961780596E+03  0.80132477864E+02 0.  0.
        -11    1    3    3    0    0  0.57405735289E+02 -0.45257310050E+02 -0.29131313069E+03  0.30034477300E+03  0.00000000000E+00 0.  1.
         12    1    3    3    0    0  0.93448111011E+02 -0.16532669146E+03 -0.13475275851E+04  0.13608438768E+04  0.00000000000E+00 0. -1.
        -13    1    4    4    0    0  0.56162934696E+02  0.18689877960E+03 -0.25308007399E+03  0.31958559558E+03  0.00000000000E+00 0.  1.
         13    1    4    4    0    0 -0.28191203953E+02  0.94201135208E+02 -0.13871681481E+03  0.17003221038E+03  0.00000000000E+00 0. -1.
          1    1    1    2  501    0 -0.17882557704E+03 -0.70515913297E+02 -0.42271470066E+03  0.46436924875E+03  0.00000000000E+00 0. -1.
<scales pt_clust_5="13000.00000" pt_clust_6="13000.00000" pt_clust_7="13000.00000" pt_clust_8="13000.00000" pt_clust_9="192.22664"></scales>
<clustering>
<clus scale="   80.132">  7  8 -1 -1</clus>
<clus scale="   81.525">  5  6 -1 -1</clus>
<clus scale="  192.227">  1  9  2 -1</clus>
<clus scale="  265.125">  1  7  2 -1</clus>
<clus scale="  192.227">  1  5  2 -1</clus>
</clustering>
</event>
<event>
 9    2  0.6293465E-005  0.1114924E+03  0.7546771E-02  0.1258425E+00
         21   -1    0    0  501  502  0.00000000000E+00  0.00000000000E+00  0.44036562001E+03  0.44036562001E+03  0.00000000000E+00 0.  1.
          2   -1    0    0  502    0 -0.00000000000E+00 -0.00000000000E+00 -0.26330920487E+03  0.26330920487E+03  0.00000000000E+00 0. -1.
         24    2    1    2    0    0  0.44647065774E+02  0.51051957030E+02  0.75325680101E+01  0.10585214726E+03  0.80921410644E+02 0.  0.
         23    2    1    2    0    0 -0.11513232557E+03 -0.57594662528E+02  0.36185877158E+03  0.39287463053E+03  0.82680754729E+02 0.  0.
        -11    1    3    3    0    0  0.15451866732E+02 -0.21075077750E+02  0.10052766976E+02  0.27999593060E+02  0.00000000000E+00 0.  1.
         12    1    3    3    0    0  0.29195199043E+02  0.72127034779E+02 -0.25201989659E+01  0.77852554204E+02  0.00000000000E+00 0. -1.
        -11    1    4    4    0    0 -0.39477534873E+02 -0.39970518062E+02  0.25287279112E+03  0.25903815658E+03  0.00000000000E+00 0.  1.
         11    1    4    4    0    0 -0.75654790698E+02 -0.17624144465E+02  0.10898598046E+03  0.13383647395E+03  0.00000000000E+00 0. -1.
          1    1    1    2  501    0  0.70485259797E+02  0.65427054981E+01 -0.19233492445E+03  0.20494804709E+03  0.00000000000E+00 0. -1.
<scales pt_clust_5="13000.00000" pt_clust_6="13000.00000" pt_clust_7="13000.00000" pt_clust_8="13000.00000" pt_clust_9="70.78830"></scales>
<clustering>
<clus scale="   70.788">  1  9  2 -1</clus>
<clus scale="   80.921">  5  6 -1 -1</clus>
<clus scale="   82.681">  7  8 -1 -1</clus>
<clus scale="  110.194">  2  5  1 -1</clus>
<clus scale="   70.788">  1  5  2 -1</clus>
</clustering>
</event>
<event>
 9    2  0.3745229E-005  0.1028662E+03  0.7546771E-02  0.1280144E+00
         21   -1    0    0  501  502  0.00000000000E+00  0.00000000000E+00  0.74223729625E+02  0.74223729625E+02  0.00000000000E+00 0.  1.
         -3   -1    0    0    0  501 -0.00000000000E+00 -0.00000000000E+00 -0.29321799346E+03  0.29321799346E+03  0.00000000000E+00 0.  1.
         23    2    1    2    0    0 -0.83197249647E+01 -0.66804085520E+02 -0.18684958023E+03  0.21895312738E+03  0.92172136197E+02 0.  0.
         24    2    1    2    0    0  0.13531904710E+02  0.57385622589E+01 -0.31360139363E+02  0.87196014927E+02  0.80022766363E+02 0.  0.
        -11    1    4    4    0    0 -0.64559372751E+01 -0.33571010072E+02 -0.25627865464E+02  0.42725628510E+02  0.00000000000E+00 0.  1.
         12    1    4    4    0    0  0.19987841985E+02  0.39309572331E+02 -0.57322738990E+01  0.44470386417E+02  0.00000000000E+00 0. -1.
        -13    1    3    3    0    0 -0.32530141737E+02  0.25511084999E+01 -0.10007386032E+03  0.10525918390E+03  0.00000000000E+00 0.  1.
         13    1    3    3    0    0  0.24210416772E+02 -0.69355194020E+02 -0.86775719913E+02  0.11369394348E+03  0.00000000000E+00 0. -1.
         -4    1    1    2    0  502 -0.52121797455E+01  0.61065523261E+02 -0.78454424148E+00  0.61292580778E+02  0.00000000000E+00 0.  1.
<scales pt_clust_5="13000.00000" pt_clust_6="13000.00000" pt_clust_7="13000.00000" pt_clust_8="13000.00000" pt_clust_9="61.28756"></scales>
<clustering>
<clus scale="   61.288">  1  9  2 -1</clus>
<clus scale="   80.023">  5  6 -1 -1</clus>
<clus scale="   92.138">  1  5  2 -1</clus>
<clus scale="   92.172">  7  8 -1 -1</clus>
<clus scale="   61.288">  1  5  2 -1</clus>
</clustering>
</event>
<event>
 9    2  0.3745229E-005  0.1087171E+03  0.7546771E-02  0.1268166E+00
         21   -1    0    0  501  502  0.00000000000E+00  0.00000000000E+00  0.24505238664E+02  0.24505238664E+02  0.00000000000E+00 0. -1.
          2   -1    0    0  502    0 -0.00000000000E+00 -0.00000000000E+00 -0.10140193203E+04  0.10140193203E+04  0.00000000000E+00 0. -1.
         24    2    1    2    0    0  0.66502472142E+02 -0.40609674840E+02 -0.66828417871E+03  0.67762172639E+03  0.80596129437E+02 0.  0.
         23    2    1    2    0    0 -0.14837031822E+02  0.95900755446E+00 -0.23213611628E+03  0.25054343805E+03  0.93079431990E+02 0.  0.
        -13    1    3    3    0    0  0.73152117126E+02 -0.13991631859E+02 -0.33349715443E+03  0.34171237908E+03  0.00000000000E+00 0.  1.
         14    1    3    3    0    0 -0.66496449839E+01 -0.26618042980E+02 -0.33478702427E+03  0.33590934731E+03  0.00000000000E+00 0. -1.
        -11    1    4    4    0    0 -0.33118053418E+02  0.38822338019E+02 -0.10728265765E+03  0.11880045465E+03  0.00000000000E+00 0.  1.
         11    1    4    4    0    0  0.18281021596E+02 -0.37863330465E+02 -0.12485345862E+03  0.13174298340E+03  0.00000000000E+00 0. -1.
          1    1    1    2  501    0 -0.51665440320E+02  0.39650667285E+02 -0.89093786664E+02  0.11035939453E+03  0.00000000000E+00 0. -1.
<scales pt_clust_5="13000.00000" pt_clust_6="13000.00000" pt_clust_7="13000.00000" pt_clust_8="13000.00000" pt_clust_9="65.12675"></scales>
<clustering>
<clus scale="   65.127">  1  9  2 -1</clus>
<clus scale="   80.596">  5  6 -1 -1</clus>
<clus scale="   93.079">  7  8 -1 -1</clus>
<clus scale="   98.241">  2  5  1 -1</clus>
<clus scale="   65.127">  1  5  2 -1</clus>
</clustering>
</event>
<event>
 9    2  0.3745229E-005  0.9615676E+02  0.7546771E-02  0.1296628E+00
         -1   -1    0    0    0  501 -0.00000000000E+00  0.00000000000E+00  0.25356172374E+03  0.25356172374E+03  0.00000000000E+00 0.  1.
         21   -1    0    0  501  502  0.00000000000E+00 -0.00000000000E+00 -0.88110631958E+02  0.88110631958E+02  0.00000000000E+00 0.  1.
         23    2    1    2    0    0 -0.23292573765E+02 -0.10237448541E+02  0.19414702156E+03  0.21619351896E+03  0.91647271184E+02 0.  0.
         24    2    1    2    0    0  0.33603080136E+02  0.36880349993E+02 -0.13571507782E+02  0.93153941068E+02  0.77486409794E+02 0.  0.
        -11    1    4    4    0    0 -0.81486877202E+01  0.26880942970E+02 -0.35238612818E+02  0.45063799660E+02  0.00000000000E+00 0.  1.
         12    1    4    4    0    0  0.41751767856E+02  0.99994070233E+01  0.21667105036E+02  0.48090141407E+02  0.00000000000E+00 0. -1.
        -13    1    3    3    0    0 -0.24804110943E+02 -0.49624561174E+02  0.12065603749E+03  0.13279954961E+03  0.00000000000E+00 0.  1.
         13    1    3    3    0    0  0.15115371775E+01  0.39387112634E+02  0.73490984068E+02  0.83393969359E+02  0.00000000000E+00 0. -1.
         -2    1    1    2    0  502 -0.10310506371E+02 -0.26642901452E+02 -0.15124421994E+02  0.32324895670E+02  0.00000000000E+00 0.  1.
<scales pt_clust_5="13000.00000" pt_clust_6="13000.00000" pt_clust_7="13000.00000" pt_clust_8="13000.00000" pt_clust_9="28.56835"></scales>
<clustering>
<clus scale="   28.568">  2  9  1 -1</clus>
<clus scale="   77.486">  5  6 -1 -1</clus>
<clus scale="   82.771">  2  5  1 -1</clus>
<clus scale="   91.647">  7  8 -1 -1</clus>
<clus scale="   28.568">  2  5  1 -1</clus>
</clustering>
</event>
<event>
 9    2  0.3745229E-005  0.9531371E+02  0.7546771E-02  0.1290753E+00
         21   -1    0    0  501  502  0.00000000000E+00  0.00000000000E+00  0.27565099400E+03  0.27565099400E+03  0.00000000000E+00 0. -1.
         -1   -1    0    0    0  501 -0.00000000000E+00 -0.00000000000E+00 -0.15572688457E+03  0.15572688457E+03  0.00000000000E+00 0.  1.
         23    2    1    2    0    0  0.17672246638E+02 -0.15852677070E+02 -0.10825767175E+03  0.14424157214E+03  0.92316260582E+02 0.  0.
         24    2    1    2    0    0 -0.48687841899E+02 -0.25740550446E+02  0.20292497714E+03  0.22943128175E+03  0.91799154735E+02 0.  0.
        -11    1    4    4    0    0  0.21868430088E+02  0.59551329466E+01  0.17871699092E+02  0.28863289337E+02  0.00000000000E+00 0.  1.
         12    1    4    4    0    0 -0.70556271987E+02 -0.31695683393E+02  0.18505327805E+03  0.20056799241E+03  0.00000000000E+00 0. -1.
        -11    1    3    3    0    0  0.26671827917E+02  0.34641370928E+02 -0.44045363756E+02  0.62059689434E+02  0.00000000000E+00 0.  1.
         11    1    3    3    0    0 -0.89995812795E+01 -0.50494047998E+02 -0.64212307998E+02  0.82181882705E+02  0.00000000000E+00 0. -1.
         -2    1    1    2    0  502  0.31015595262E+02  0.41593227516E+02  0.25256804044E+02  0.57705024696E+02  0.00000000000E+00 0.  1.
<scales pt_clust_5="13000.00000" pt_clust_6="13000.00000" pt_clust_7="13000.00000" pt_clust_8="13000.00000" pt_clust_9="51.88414"></scales>
<clustering>
<clus scale="   51.884">  1  9  2 -1</clus>
<clus scale="   91.799">  5  6 -1 -1</clus>
<clus scale="   92.316">  7  8 -1 -1</clus>
<clus scale="   94.813">  1  5  2 -1</clus>
<clus scale="   51.884">  1  5  2 -1</clus>
</clustering>
</event>
<event>
 9    2  0.3745229E-005  0.1838585E+03  0.7546771E-02  0.1164731E+00
          2   -1    0    0  502    0 -0.00000000000E+00  0.00000000000E+00  0.75186532346E+03  0.75186532346E+03  0.00000000000E+00 0. -1.
         21   -1    0    0  501  502  0.00000000000E+00 -0.00000000000E+00 -0.86762428274E+02  0.86762428274E+02  0.00000000000E+00 0.  1.
         23    2    1    2    0    0  0.14689546360E+03 -0.57090234666E+02  0.58172104273E+03  0.60962577790E+03  0.91687760421E+02 0.  0.
         24    2    1    2    0    0 -0.15020995435E+03  0.77036074099E+02  0.61863959435E+02  0.19947500176E+03  0.86403354983E+02 0.  0.
        -13    1    4    4    0    0 -0.14475738847E+03  0.88820546469E+02  0.40696874044E+02  0.17464256798E+03  0.00000000000E+00 0.  1.
         14    1    4    4    0    0 -0.54525658764E+01 -0.11784472370E+02  0.21167085391E+02  0.24832433784E+02  0.00000000000E+00 0. -1.
        -11    1    3    3    0    0  0.40498986897E+02 -0.10458306980E+02  0.49179526829E+02  0.64561366030E+02  0.00000000000E+00 0.  1.
         11    1    3    3    0    0  0.10639647670E+03 -0.46631927687E+02  0.53254151590E+03  0.54506441187E+03  0.00000000000E+00 0. -1.
          1    1    1    2  501    0  0.33144907499E+01 -0.19945839433E+02  0.21517893029E+02  0.29526972077E+02  0.00000000000E+00 0. -1.
<scales pt_clust_5="13000.00000" pt_clust_6="13000.00000" pt_clust_7="13000.00000" pt_clust_8="13000.00000" pt_clust_9="20.21936"></scales>
<clustering>
<clus scale="   20.219">  2  9  1 -1</clus>
<clus scale="   86.403">  5  6 -1 -1</clus>
<clus scale="   91.688">  7  8 -1 -1</clus>
<clus scale="  181.281">  2  5  1 -1</clus>
<clus scale="   20.219">  2  5  1 -1</clus>
</clustering>
</event>
<event>
 9    2  0.3745229E-005  0.1006986E+03  0.7546771E-02  0.1280386E+00
         21   -1    0    0  501  502  0.00000000000E+00  0.00000000000E+00  0.65064580397E+03  0.65064580397E+03  0.00000000000E+00 0.  1.
         -1   -1    0    0    0  501 -0.00000000000E+00 -0.00000000000E+00 -0.97604688010E+02  0.97604688010E+02  0.00000000000E+00 0.  1.
         23    2    1    2    0    0  0.16553178702E+02  0.52496751547E+02 -0.48803565419E+02  0.11321218323E+03  0.86054016669E+02 0.  0.
         24    2    1    2    0    0 -0.76011702022E+02  0.98322592427E+01  0.40027633811E+03  0.41583516418E+03  0.82603176423E+02 0.  0.
        -13    1    4    4    0    0 -0.47504721479E+02  0.31056528639E+02  0.11385253511E+03  0.12721480372E+03  0.00000000000E+00 0.  1.
         14    1    4    4    0    0 -0.28506980542E+02 -0.21224269396E+02  0.28642380299E+03  0.28862036046E+03  0.00000000000E+00 0. -1.
        -11    1    3    3    0    0  0.46330851232E+02  0.54975008826E+02 -0.29966691362E+02  0.77889678151E+02  0.00000000000E+00 0.  1.
         11    1    3    3    0    0 -0.29777672530E+02 -0.24782572790E+01 -0.18836874058E+02  0.35322505074E+02  0.00000000000E+00 0. -1.
         -2    1    1    2    0  502  0.59458523320E+02 -0.62329010790E+02  0.20156834328E+03  0.21920314458E+03  0.00000000000E+00 0.  1.
<scales pt_clust_5="13000.00000" pt_clust_6="13000.00000" pt_clust_7="13000.00000" pt_clust_8="13000.00000" pt_clust_9="86.14071"></scales>
<clustering>
<clus scale="   82.603">  5  6 -1 -1</clus>
<clus scale="   86.054">  7  8 -1 -1</clus>
<clus scale="   86.141">  1  9  2 -1</clus>
<clus scale="   97.766">  1  5  2 -1</clus>
<clus scale="   86.141">  1  5  2 -1</clus>
</clustering>
</event>
<event>
 9    2  0.3745229E-005  0.1220732E+03  0.7546771E-02  0.1243175E+00
          2   -1    0    0  502    0 -0.00000000000E+00  0.00000000000E+00  0.30300816946E+03  0.30300816946E+03  0.00000000000E+00 0. -1.
         21   -1    0    0  501  502  0.00000000000E+00 -0.00000000000E+00 -0.18251027500E+03  0.18251027500E+03  0.00000000000E+00 0. -1.
         23    2    1    2    0    0 -0.89271795179E+02  0.25826042973E+02  0.21481002594E+03  0.25133483748E+03  0.91593751831E+02 0.  0.
         24    2    1    2    0    0  0.26538634966E+02 -0.64130213686E+02  0.10006370527E+02  0.10657087743E+03  0.80251112208E+02 0.  0.
        -13    1    4    4    0    0  0.19019511015E+02  0.16333616513E+02  0.52661114106E+01  0.25617586869E+02  0.00000000000E+00 0.  1.
         14    1    4    4    0    0  0.75191239517E+01 -0.80463830199E+02  0.47402591165E+01  0.80953290556E+02  0.00000000000E+00 0. -1.
        -13    1    3    3    0    0 -0.43261076090E+02  0.28614006468E+02  0.28042693713E+02  0.58963333872E+02  0.00000000000E+00 0.  1.
         13    1    3    3    0    0 -0.46010719089E+02 -0.27879634948E+01  0.18676733223E+03  0.19237150361E+03  0.00000000000E+00 0. -1.
          1    1    1    2  501    0  0.62733160212E+02  0.38304170713E+02 -0.10431850201E+03  0.12761272956E+03  0.00000000000E+00 0. -1.
<scales pt_clust_5="13000.00000" pt_clust_6="13000.00000" pt_clust_7="13000.00000" pt_clust_8="13000.00000" pt_clust_9="73.50278"></scales>
<clustering>
<clus scale="   73.503">  2  9  1 -1</clus>
<clus scale="   80.251">  5  6 -1 -1</clus>
<clus scale="   91.594">  7  8 -1 -1</clus>
<clus scale="  113.810">  2  5  1 -1</clus>
<clus scale="   73.503">  2  5  1 -1</clus>
</clustering>
</event>
<event>
 9    2  0.3745229E-005  0.1507458E+03  0.7546771E-02  0.1219430E+00
          2   -1    0    0  502    0 -0.00000000000E+00  0.00000000000E+00  0.47615661627E+03  0.47615661627E+03  0.00000000000E+00 0. -1.
         21   -1    0    0  501  502  0.00000000000E+00 -0.00000000000E+00 -0.16328090934E+03  0.16328090934E+03  0.00000000000E+00 0. -1.
         23    2    1    2    0    0  0.41258007617E+02 -0.15142994347E+01  0.33839931137E+03  0.35246657445E+03  0.89521371028E+02 0.  0.
         24    2    1    2    0    0  0.85566615997E+02 -0.61468304212E+02  0.28602632878E+02  0.13537628410E+03  0.80053916164E+02 0.  0.
        -13    1    4    4    0    0  0.62771462586E+02  0.40556908616E+01  0.11899744795E+02  0.64018037066E+02  0.00000000000E+00 0.  1.
         14    1    4    4    0    0  0.22795153411E+02 -0.65523995074E+02  0.16702888083E+02  0.71358247034E+02  0.00000000000E+00 0. -1.
        -11    1    3    3    0    0 -0.25345294959E+02 -0.12655981625E+02  0.14153490395E+03  0.14434225606E+03  0.00000000000E+00 0.  1.
         11    1    3    3    0    0  0.66603302576E+02  0.11141682190E+02  0.19686440742E+03  0.20812431839E+03  0.00000000000E+00 0. -1.
          1    1    1    2  501    0 -0.12682462361E+03  0.62982603647E+02 -0.54126237322E+02  0.15159466707E+03  0.00000000000E+00 0. -1.
<scales pt_clust_5="13000.00000" pt_clust_6="13000.00000" pt_clust_7="13000.00000" pt_clust_8="13000.00000" pt_clust_9="127.73281"></scales>
<clustering>
<clus scale="   80.054">  5  6 -1 -1</clus>
<clus scale="   89.521">  7  8 -1 -1</clus>
<clus scale="   98.583">  1  7  2 -1</clus>
<clus scale="  127.733">  2  9  1 -1</clus>
<clus scale="  127.733">  2  5  1 -1</clus>
</clustering>
</event>
<event>
 9    2  0.3745229E-005  0.2099960E+03  0.7546771E-02  0.1150380E+00
         21   -1    0    0  501  502  0.00000000000E+00  0.00000000000E+00  0.30117567536E+03  0.30117567536E+03  0.00000000000E+00 0.  1.
         -1   -1    0    0    0  501 -0.00000000000E+00 -0.00000000000E+00 -0.32326764039E+03  0.32326764039E+03  0.00000000000E+00 0.  1.
         23    2    1    2    0    0  0.14312785284E+03  0.13397216769E+02 -0.82449791319E+02  0.18909412617E+03  0.91068945245E+02 0.  0.
         24    2    1    2    0    0 -0.24226950607E+02 -0.19508386248E+03  0.40142879898E+01  0.21102340842E+03  0.76616616058E+02 0.  0.
        -13    1    4    4    0    0 -0.44341173703E+02 -0.15895202628E+03  0.20932604699E+02  0.16634320029E+03  0.00000000000E+00 0.  1.
         14    1    4    4    0    0  0.20114223096E+02 -0.36131836203E+02 -0.16918316709E+02  0.44680208129E+02  0.00000000000E+00 0. -1.
        -13    1    3    3    0    0  0.11851437826E+03 -0.28211948298E+02 -0.59469344793E+02  0.13556612722E+03  0.00000000000E+00 0.  1.
         13    1    3    3    0    0  0.24613474580E+02  0.41609165067E+02 -0.22980446526E+02  0.53527998945E+02  0.00000000000E+00 0. -1.
         -2    1    1    2    0  502 -0.11890090223E+03  0.18168664571E+03  0.56343538302E+02  0.22432578115E+03  0.00000000000E+00 0.  1.
<scales pt_clust_5="13000.00000" pt_clust_6="13000.00000" pt_clust_7="13000.00000" pt_clust_8="13000.00000" pt_clust_9="195.52036"></scales>
<clustering>
<clus scale="   76.617">  5  6 -1 -1</clus>
<clus scale="   91.069">  7  8 -1 -1</clus>
<clus scale="  170.172">  2  7  1 -1</clus>
<clus scale="  195.520">  1  9  2 -1</clus>
<clus scale="  195.520">  1  5  2 -1</clus>
</clustering>
</event>
<event>
 9    2  0.3745229E-005  0.9832271E+02  0.7546771E-02  0.1286729E+00
         21   -1    0    0  501  502  0.00000000000E+00  0.00000000000E+00  0.13188250665E+02  0.13188250665E+02  0.00000000000E+00 0. -1.
         -3   -1    0    0    0  501 -0.00000000000E+00 -0.00000000000E+00 -0.96588496295E+03  0.96588496295E+03  0.00000000000E+00 0.  1.
         24    2    1    2    0    0  0.27894564087E+02 -0.23866261623E+02 -0.44013755670E+03  0.44910128840E+03  0.81383003650E+02 0.  0.
         23    2    1    2    0    0 -0.55796045353E+02  0.23552085654E+02 -0.38400878517E+03  0.39842805763E+03  0.87259788006E+02 0.  0.
        -13    1    3    3    0    0  0.38239044112E+02 -0.48754118096E+02 -0.28730817158E+03  0.29391354849E+03  0.00000000000E+00 0.  1.
         14    1    3    3    0    0 -0.10344480025E+02  0.24887856473E+02 -0.15282938511E+03  0.15518773992E+03  0.00000000000E+00 0. -1.
        -11    1    4    4    0    0 -0.21890113418E+02 -0.27770054945E+02 -0.69695376695E+02  0.78152405912E+02  0.00000000000E+00 0. -1.
         11    1    4    4    0    0 -0.33905931935E+02  0.51322140600E+02 -0.31431340847E+03  0.32027565171E+03  0.00000000000E+00 0.  1.
         -4    1    1    2    0  502  0.27901481265E+02  0.31417596864E+00 -0.12855037043E+03  0.13154386759E+03  0.00000000000E+00 0.  1.
<scales pt_clust_5="13000.00000" pt_clust_6="13000.00000" pt_clust_7="13000.00000" pt_clust_8="13000.00000" pt_clust_9="27.90326"></scales>
<clustering>
<clus scale="   27.903">  1  9  2 -1</clus>
<clus scale="   81.383">  5  6 -1 -1</clus>
<clus scale="   87.260">  7  8 -1 -1</clus>
<clus scale="   93.147">  2  5  1 -1</clus>
<clus scale="   27.903">  1  5  2 -1</clus>
</clustering>
</event>
<event>
 9    2  0.3745229E-005  0.1111178E+03  0.7546771E-02  0.1262759E+00
          2   -1    0    0  502    0 -0.00000000000E+00  0.00000000000E+00  0.21775460412E+03  0.21775460412E+03  0.00000000000E+00 0. -1.
         21   -1    0    0  501  502  0.00000000000E+00 -0.00000000000E+00 -0.25650069337E+03  0.25650069337E+03  0.00000000000E+00 0. -1.
         24    2    1    2    0    0  0.23282571058E+02 -0.56770826451E+02  0.17613910406E+03  0.20330028560E+03  0.80876555912E+02 0.  0.
         23    2    1    2    0    0  0.41251026188E+01  0.84484405112E+02 -0.14899115917E+03  0.19439623217E+03  0.91852590552E+02 0.  0.
        -11    1    3    3    0    0  0.34590545499E+02 -0.38968315727E+02  0.40401995165E+02  0.65934487803E+02  0.00000000000E+00 0.  1.
         12    1    3    3    0    0 -0.11307974441E+02 -0.17802510723E+02  0.13573710889E+03  0.13736579780E+03  0.00000000000E+00 0. -1.
        -11    1    4    4    0    0 -0.41982665134E+02  0.47805529463E+02 -0.95908464762E+02  0.11509277315E+03  0.00000000000E+00 0.  1.
         11    1    4    4    0    0  0.46107767753E+02  0.36678875649E+02 -0.53082694409E+02  0.79303459015E+02  0.00000000000E+00 0. -1.
          1    1    1    2  501    0 -0.27407673677E+02 -0.27713578661E+02 -0.65894034134E+02  0.76558779725E+02  0.00000000000E+00 0. -1.
<scales pt_clust_5="13000.00000" pt_clust_6="13000.00000" pt_clust_7="13000.00000" pt_clust_8="13000.00000" pt_clust_9="38.97721"></scales>
<clustering>
<clus scale="   38.977">  2  9  1 -1</clus>
<clus scale="   80.877">  5  6 -1 -1</clus>
<clus scale="   91.853">  7  8 -1 -1</clus>
<clus scale="  102.232">  1  5  2 -1</clus>
<clus scale="   38.977">  2  5  1 -1</clus>
</clustering>
</event>
<event>
 9    2  0.3745229E-005  0.1890555E+03  0.7546771E-02  0.1160299E+00
          4   -1    0    0  502    0 -0.00000000000E+00  0.00000000000E+00  0.37972927266E+03  0.37972927266E+03  0.00000000000E+00 0. -1.
         21   -1    0    0  501  502  0.00000000000E+00 -0.00000000000E+00 -0.12713784244E+03  0.12713784244E+03  0.00000000000E+00 0.  1.
         24    2    1    2    0    0 -0.81048725011E+02 -0.13501810892E+03  0.72981774164E+02  0.19161064886E+03  0.81175832826E+02 0.  0.
         23    2    1    2    0    0  0.56089733467E+02  0.16798315554E+03  0.93561387702E+02  0.21978945601E+03  0.90494601816E+02 0.  0.
        -13    1    3    3    0    0 -0.60319441582E+02 -0.14035542211E+03  0.74858582455E+02  0.17012315220E+03  0.00000000000E+00 0.  1.
         14    1    3    3    0    0 -0.20729283429E+02  0.53373131842E+01 -0.18768082906E+01  0.21487496663E+02  0.00000000000E+00 0. -1.
        -11    1    4    4    0    0 -0.16245413148E+01  0.20334373273E+02  0.52067727923E+02  0.55921142352E+02  0.00000000000E+00 0. -1.
         11    1    4    4    0    0  0.57714274782E+02  0.14764878226E+03  0.41493659779E+02  0.16386831365E+03  0.00000000000E+00 0.  1.
          3    1    1    2  501    0  0.24958991544E+02 -0.32965046614E+02  0.86048268351E+02  0.95467010235E+02  0.00000000000E+00 0. -1.
<scales pt_clust_5="13000.00000" pt_clust_6="13000.00000" pt_clust_7="13000.00000" pt_clust_8="13000.00000" pt_clust_9="41.34788"></scales>
<clustering>
<clus scale="   41.348">  2  9  1 -1</clus>
<clus scale="   81.176">  5  6 -1 -1</clus>
<clus scale="   90.495">  7  8 -1 -1</clus>
<clus scale="  184.776">  1  5  2 -1</clus>
<clus scale="   41.348">  2  5  1 -1</clus>
</clustering>
</event>
<event>
 9    2  0.3745229E-005  0.1265644E+03  0.7546771E-02  0.1236555E+00
         21   -1    0    0  501  502  0.00000000000E+00  0.00000000000E+00  0.15803154338E+03  0.15803154338E+03  0.00000000000E+00 0.  1.
         -1   -1    0    0    0  501 -0.00000000000E+00 -0.00000000000E+00 -0.13996642626E+03  0.13996642626E+03  0.00000000000E+00 0.  1.
         23    2    1    2    0    0 -0.68038659808E+01  0.96610916285E+02 -0.18110329359E+02  0.13555868590E+03  0.93103230635E+02 0.  0.
         24    2    1    2    0    0  0.40712493190E+02 -0.67356057296E+02  0.14543788796E+02  0.11270428211E+03  0.79349781707E+02 0.  0.
        -11    1    4    4    0    0  0.32719556131E+02 -0.71029947283E+02 -0.16937629720E+02  0.80016911119E+02  0.00000000000E+00 0.  1.
         12    1    4    4    0    0  0.79929370585E+01  0.36738899872E+01  0.31481418516E+02  0.32687370990E+02  0.00000000000E+00 0. -1.
        -11    1    3    3    0    0 -0.43457209766E+02  0.62364660828E+02  0.12147712966E+02  0.76976924667E+02  0.00000000000E+00 0.  1.
         11    1    3    3    0    0  0.36653343785E+02  0.34246255457E+02 -0.30258042325E+02  0.58581761229E+02  0.00000000000E+00 0. -1.
         -2    1    1    2    0  502 -0.33908627209E+02 -0.29254858989E+02  0.21631657678E+02  0.49735001634E+02  0.00000000000E+00 0.  1.
<scales pt_clust_5="13000.00000" pt_clust_6="13000.00000" pt_clust_7="13000.00000" pt_clust_8="13000.00000" pt_clust_9="44.78439"></scales>
<clustering>
<clus scale="   44.784">  1  9  2 -1</clus>
<clus scale="   79.350">  5  6 -1 -1</clus>
<clus scale="   93.103">  7  8 -1 -1</clus>
<clus scale="  116.819">  1  5  2 -1</clus>
<clus scale="   44.784">  1  5  2 -1</clus>
</clustering>
</event>
<event>
 9    2  0.3745229E-005  0.1746380E+03  0.7546771E-02  0.1174510E+00
         21   -1    0    0  501  502  0.00000000000E+00  0.00000000000E+00  0.19845488110E+03  0.19845488110E+03  0.00000000000E+00 0. -1.
          2   -1    0    0  502    0 -0.00000000000E+00 -0.00000000000E+00 -0.37768377965E+03  0.37768377965E+03  0.00000000000E+00 0. -1.
         23    2    1    2    0    0  0.56156312438E+02 -0.11033462646E+03 -0.13505295033E+03  0.20457180727E+03  0.91011338391E+02 0.  0.
         24    2    1    2    0    0 -0.14590630660E+02  0.21048253549E+03 -0.10321960494E+03  0.24810243356E+03  0.79904608417E+02 0.  0.
        -13    1    4    4    0    0  0.11541927263E+02  0.77144841541E+02 -0.89633584232E+00  0.78008628236E+02  0.00000000000E+00 0.  1.
         14    1    4    4    0    0 -0.26132557924E+02  0.13333769395E+03 -0.10232326910E+03  0.17009380533E+03  0.00000000000E+00 0. -1.
        -11    1    3    3    0    0  0.31406009504E+02 -0.43142754986E+02 -0.19126240820E+01  0.53397498740E+02  0.00000000000E+00 0. -1.
         11    1    3    3    0    0  0.24750302934E+02 -0.67191871474E+02 -0.13314032625E+03  0.15117430853E+03  0.00000000000E+00 0.  1.
          1    1    1    2  501    0 -0.41565681778E+02 -0.10014790903E+03  0.59043656726E+02  0.12346441991E+03  0.00000000000E+00 0. -1.
<scales pt_clust_5="13000.00000" pt_clust_6="13000.00000" pt_clust_7="13000.00000" pt_clust_8="13000.00000" pt_clust_9="108.43113"></scales>
<clustering>
<clus scale="   79.905">  5  6 -1 -1</clus>
<clus scale="   91.011">  7  8 -1 -1</clus>
<clus scale="  108.431">  1  9  2 -1</clus>
<clus scale="  169.116">  1  5  2 -1</clus>
<clus scale="  108.431">  1  5  2 -1</clus>
</clustering>
</event>
<event>
 9    2  0.3745229E-005  0.1713820E+03  0.7546771E-02  0.1177485E+00
         -3   -1    0    0    0  501 -0.00000000000E+00  0.00000000000E+00  0.79719201336E+03  0.79719201336E+03  0.00000000000E+00 0.  1.
         21   -1    0    0  501  502  0.00000000000E+00 -0.00000000000E+00 -0.51054698206E+02  0.51054698206E+02  0.00000000000E+00 0.  1.
         23    2    1    2    0    0 -0.13548449585E+03 -0.16111567235E+02  0.34111596569E+03  0.37831314299E+03  0.90250212717E+02 0.  0.
         24    2    1    2    0    0  0.14639513449E+03  0.61795156113E+02  0.37117177078E+03  0.41203860934E+03  0.82201918706E+02 0.  0.
        -11    1    4    4    0    0  0.48860297415E+02  0.29069553729E+02  0.53292446355E+02  0.77925942124E+02  0.00000000000E+00 0.  1.
         12    1    4    4    0    0  0.97534837075E+02  0.32725602384E+02  0.31787932443E+03  0.33411266722E+03  0.00000000000E+00 0. -1.
        -13    1    3    3    0    0 -0.81152211664E+02 -0.84852422528E+01  0.29672431679E+03  0.30773852695E+03  0.00000000000E+00 0.  1.
         13    1    3    3    0    0 -0.54332284181E+02 -0.76263249820E+01  0.44391648901E+02  0.70574616040E+02  0.00000000000E+00 0. -1.
         -4    1    1    2    0  502 -0.10910638645E+02 -0.45683588879E+02  0.33849578683E+02  0.57894959240E+02  0.00000000000E+00 0.  1.
<scales pt_clust_5="13000.00000" pt_clust_6="13000.00000" pt_clust_7="13000.00000" pt_clust_8="13000.00000" pt_clust_9="46.96842"></scales>
<clustering>
<clus scale="   46.968">  2  9  1 -1</clus>
<clus scale="   82.202">  5  6 -1 -1</clus>
<clus scale="   90.250">  7  8 -1 -1</clus>
<clus scale="  167.284">  2  5  1 -1</clus>
<clus scale="   46.968">  2  5  1 -1</clus>
</clustering>
</event>
<event>
 9    2  0.3745229E-005  0.2470260E+03  0.7546771E-02  0.1115761E+00
         21   -1    0    0  501  502  0.00000000000E+00  0.00000000000E+00  0.90059912252E+02  0.90059912252E+02  0.00000000000E+00 0. -1.
          2   -1    0    0  502    0 -0.00000000000E+00 -0.00000000000E+00 -0.13679572325E+04  0.13679572325E+04  0.00000000000E+00 0. -1.
         24    2    1    2    0    0 -0.12132191923E+03 -0.21536401923E+03 -0.89849261451E+03  0.93532421442E+03  0.80260444035E+02 0.  0.
         23    2    1    2    0    0  0.14348434165E+03  0.11364372276E+03 -0.10564421080E+03  0.22980557951E+03  0.90262135356E+02 0.  0.
        -13    1    3    3    0    0 -0.33268887541E+02 -0.27822941366E+02 -0.79811435220E+02  0.90833915122E+02  0.00000000000E+00 0.  1.
         14    1    3    3    0    0 -0.88053031690E+02 -0.18754107787E+03 -0.81868117929E+03  0.84449029930E+03  0.00000000000E+00 0. -1.
        -13    1    4    4    0    0  0.60985272575E+01  0.42667835424E+02 -0.48659185287E+02  0.65003480886E+02  0.00000000000E+00 0.  1.
         13    1    4    4    0    0  0.13738581439E+03  0.70975887334E+02 -0.56985025510E+02  0.16480209863E+03  0.00000000000E+00 0. -1.
          1    1    1    2  501    0 -0.22162422421E+02  0.10172029647E+03 -0.27376049493E+03  0.29288735081E+03  0.00000000000E+00 0. -1.
<scales pt_clust_5="13000.00000" pt_clust_6="13000.00000" pt_clust_7="13000.00000" pt_clust_8="13000.00000" pt_clust_9="104.10669"></scales>
<clustering>
<clus scale="   80.260">  5  6 -1 -1</clus>
<clus scale="   90.262">  7  8 -1 -1</clus>
<clus scale="  104.107">  1  9  2 -1</clus>
<clus scale="  243.549">  2  5  1 -1</clus>
<clus scale="  104.107">  1  5  2 -1</clus>
</clustering>
</event>
<event>
 9    2  0.3745229E-005  0.9734637E+02  0.7546771E-02  0.1291417E+00
         -1   -1    0    0    0  501 -0.00000000000E+00  0.00000000000E+00  0.66703513477E+02  0.66703513477E+02  0.00000000000E+00 0.  1.
         21   -1    0    0  501  502  0.00000000000E+00 -0.00000000000E+00 -0.74960298198E+03  0.74960298198E+03  0.00000000000E+00 0. -1.
         23    2    1    2    0    0 -0.37169726127E+02  0.27292115990E+01  0.22386579048E+02  0.99923982322E+02  0.89970029373E+02 0.  0.
         24    2    1    2    0    0  0.32500204875E+02 -0.34336799809E+02 -0.48165949935E+03  0.49048502063E+03  0.79651760856E+02 0.  0.
        -13    1    4    4    0    0 -0.14601397428E+02  0.17157716032E+02 -0.13560493434E+03  0.13746376339E+03  0.00000000000E+00 0.  1.
         14    1    4    4    0    0  0.47101602304E+02 -0.51494515841E+02 -0.34605456500E+03  0.35302125724E+03  0.00000000000E+00 0. -1.
        -11    1    3    3    0    0 -0.20511009945E+02  0.28938288703E+02 -0.24909927520E+02  0.43343172139E+02  0.00000000000E+00 0. -1.
         11    1    3    3    0    0 -0.16658716181E+02 -0.26209077104E+02  0.47296506568E+02  0.56580810183E+02  0.00000000000E+00 0.  1.
         -2    1    1    2    0  502  0.46695212511E+01  0.31607588209E+02 -0.22362654821E+03  0.22589749251E+03  0.00000000000E+00 0.  1.
<scales pt_clust_5="13000.00000" pt_clust_6="13000.00000" pt_clust_7="13000.00000" pt_clust_8="13000.00000" pt_clust_9="31.95065"></scales>
<clustering>
<clus scale="   31.951">  2  9  1 -1</clus>
<clus scale="   79.652">  5  6 -1 -1</clus>
<clus scale="   87.898">  2  5  1 -1</clus>
<clus scale="   89.970">  7  8 -1 -1</clus>
<clus scale="   31.951">  2  5  1 -1</clus>
</clustering>
</event>
<event>
 9    2  0.3745229E-005  0.9495156E+02  0.7546771E-02  0.1298779E+00
         21   -1    0    0  501  502  0.00000000000E+00  0.00000000000E+00  0.95332214274E+02  0.95332214274E+02  0.00000000000E+00 0.  1.
         -1   -1    0    0    0  501 -0.00000000000E+00 -0.00000000000E+00 -0.44243361631E+03  0.44243361631E+03  0.00000000000E+00 0.  1.
         23    2    1    2    0    0  0.37081955009E+01  0.25058510132E+02 -0.22194589792E+03  0.24200223831E+03  0.93077505852E+02 0.  0.
         24    2    1    2    0    0 -0.34081324609E+02  0.23273420235E+02 -0.18936835695E+03  0.20984623119E+03  0.80447979174E+02 0.  0.
        -13    1    4    4    0    0 -0.35188314099E+02  0.36158174183E+01 -0.22725943598E+02  0.42044739233E+02  0.00000000000E+00 0.  1.
         14    1    4    4    0    0  0.11069894902E+01  0.19657602817E+02 -0.16664241336E+03  0.16780149196E+03  0.00000000000E+00 0. -1.
        -13    1    3    3    0    0 -0.89275796464E+01  0.59253725862E+02 -0.13301062009E+03  0.14588533430E+03  0.00000000000E+00 0.  1.
         13    1    3    3    0    0  0.12635775147E+02 -0.34195215730E+02 -0.88935277832E+02  0.96116904004E+02  0.00000000000E+00 0. -1.
         -2    1    1    2    0  502  0.30373129108E+02 -0.48331930367E+02  0.64212852846E+02  0.85917361083E+02  0.00000000000E+00 0.  1.
<scales pt_clust_5="13000.00000" pt_clust_6="13000.00000" pt_clust_7="13000.00000" pt_clust_8="13000.00000" pt_clust_9="57.08329"></scales>
<clustering>
<clus scale="   57.083">  1  9  2 -1</clus>
<clus scale="   80.448">  5  6 -1 -1</clus>
<clus scale="   82.609">  1  5  2 -1</clus>
<clus scale="   93.078">  7  8 -1 -1</clus>
<clus scale="   57.083">  1  5  2 -1</clus>
</clustering>
</event>
<event>
 9    2  0.3745229E-005  0.1015664E+03  0.7546771E-02  0.1280417E+00
         21   -1    0    0  501  502  0.00000000000E+00  0.00000000000E+00  0.17584902186E+03  0.17584902186E+03  0.00000000000E+00 0.  1.
          2   -1    0    0  502    0 -0.00000000000E+00 -0.00000000000E+00 -0.88851134540E+02  0.88851134540E+02  0.00000000000E+00 0. -1.
         24    2    1    2    0    0  0.39012699621E+02 -0.48334914806E+02  0.16272584942E+02  0.10513405689E+03  0.83247331345E+02 0.  0.
         23    2    1    2    0    0 -0.29991293435E+02  0.35893335292E+01  0.60080242941E+02  0.11269531859E+03  0.90433612357E+02 0.  0.
        -13    1    3    3    0    0  0.42207065643E+02  0.10651523210E+02  0.15017088306E+02  0.46047847703E+02  0.00000000000E+00 0.  1.
         14    1    3    3    0    0 -0.31943660222E+01 -0.58986438016E+02  0.12554966352E+01  0.59086209185E+02  0.00000000000E+00 0. -1.
        -11    1    4    4    0    0 -0.53047366901E+02  0.94847506168E+01  0.67671055334E+01  0.54311852727E+02  0.00000000000E+00 0. -1.
         11    1    4    4    0    0  0.23056073466E+02 -0.58954170876E+01  0.53313137408E+02  0.58383465866E+02  0.00000000000E+00 0.  1.
          1    1    1    2  501    0 -0.90214061862E+01  0.44745581277E+02  0.10645059436E+02  0.46870780917E+02  0.00000000000E+00 0. -1.
<scales pt_clust_5="13000.00000" pt_clust_6="13000.00000" pt_clust_7="13000.00000" pt_clust_8="13000.00000" pt_clust_9="45.64597"></scales>
<clustering>
<clus scale="   45.646">  1  9  2 -1</clus>
<clus scale="   83.247">  5  6 -1 -1</clus>
<clus scale="   90.434">  7  8 -1 -1</clus>
<clus scale="   95.224">  2  5  1 -1</clus>
<clus scale="   45.646">  1  5  2 -1</clus>
</clustering>
</event>
<event>
 9    2  0.3745229E-005  0.1417468E+03  0.7546771E-02  0.1230960E+00
         -1   -1    0    0    0  501 -0.00000000000E+00  0.00000000000E+00  0.27695688909E+02  0.27695688909E+02  0.00000000000E+00 0.  1.
         21   -1    0    0  501  502  0.00000000000E+00 -0.00000000000E+00 -0.12938365290E+04  0.12938365290E+04  0.00000000000E+00 0. -1.
         24    2    1    2    0    0 -0.39926792756E+02  0.44765399936E+01 -0.15641661085E+03  0.18211611907E+03  0.84178004760E+02 0.  0.
         23    2    1    2    0    0 -0.81897808006E+02 -0.28408248690E+02 -0.39734544759E+03  0.41629958778E+03  0.88925038709E+02 0.  0.
        -11    1    3    3    0    0 -0.26053875409E+02  0.28785519269E+02 -0.14782429946E+03  0.15283793395E+03  0.00000000000E+00 0.  1.
         12    1    3    3    0    0 -0.13872917347E+02 -0.24308979275E+02 -0.85923113962E+01  0.29278185126E+02  0.00000000000E+00 0. -1.
        -11    1    4    4    0    0 -0.22589849275E+02 -0.51117978858E+02 -0.24410242172E+03  0.25041833268E+03  0.00000000000E+00 0. -1.
         11    1    4    4    0    0 -0.59307958731E+02  0.22709730169E+02 -0.15324302587E+03  0.16588125509E+03  0.00000000000E+00 0.  1.
         -2    1    1    2    0  502  0.12182460076E+03  0.23931708696E+02 -0.71237878169E+03  0.72311651110E+03  0.00000000000E+00 0.  1.
<scales pt_clust_5="13000.00000" pt_clust_6="13000.00000" pt_clust_7="13000.00000" pt_clust_8="13000.00000" pt_clust_9="110.38335"></scales>
<clustering>
<clus scale="   84.178">  5  6 -1 -1</clus>
<clus scale="   88.925">  7  8 -1 -1</clus>
<clus scale="   93.274">  1  5  2 -1</clus>
<clus scale="  110.383">  2  9  1 -1</clus>
<clus scale="  110.383">  2  5  1 -1</clus>
</clustering>
</event>
<event>
 9    2  0.3745229E-005  0.1772123E+03  0.7546771E-02  0.1189406E+00
         -3   -1    0    0    0  501 -0.00000000000E+00  0.00000000000E+00  0.31435052209E+03  0.31435052209E+03  0.00000000000E+00 0.  1.
         21   -1    0    0  501  502  0.00000000000E+00 -0.00000000000E+00 -0.24040957779E+03  0.24040957779E+03  0.00000000000E+00 0.  1.
         24    2    1    2    0    0 -0.72001258105E+02  0.44462427846E+02 -0.53330411593E+02  0.12760514246E+03  0.79232890406E+02 0.  0.
         23    2    1    2    0    0 -0.84483932394E+02  0.24516733238E+02  0.20488518026E+03  0.23935281356E+03  0.87024291015E+02 0.  0.
        -11    1    3    3    0    0 -0.69460235216E+02  0.63964521007E+02 -0.52228476716E+02  0.10790735843E+03  0.00000000000E+00 0.  1.
         12    1    3    3    0    0 -0.25410228897E+01 -0.19502093161E+02 -0.11019348771E+01  0.19697784024E+02  0.00000000000E+00 0. -1.
        -11    1    4    4    0    0 -0.98572536403E+02  0.67944368131E+01  0.14625049248E+03  0.17649905341E+03  0.00000000000E+00 0.  1.
         11    1    4    4    0    0  0.14088604009E+02  0.17722296424E+02  0.58634687780E+02  0.62853760146E+02  0.00000000000E+00 0. -1.
         -4    1    1    2    0  502  0.15648519050E+03 -0.68979161084E+02 -0.77613824361E+02  0.18780214387E+03  0.00000000000E+00 0.  1.
<scales pt_clust_5="13000.00000" pt_clust_6="13000.00000" pt_clust_7="13000.00000" pt_clust_8="13000.00000" pt_clust_9="154.37288"></scales>
<clustering>
<clus scale="   79.233">  5  6 -1 -1</clus>
<clus scale="   87.024">  7  8 -1 -1</clus>
<clus scale="  115.926">  1  5  2 -1</clus>
<clus scale="  154.373">  2  9  1 -1</clus>
<clus scale="  154.373">  2  5  1 -1</clus>
</clustering>
</event>
<event>
 9    2  0.3745229E-005  0.9248152E+02  0.7546771E-02  0.1304519E+00
         21   -1    0    0  501  502  0.00000000000E+00  0.00000000000E+00  0.36310172859E+03  0.36310172859E+03  0.00000000000E+00 0.  1.
         -1   -1    0    0    0  501 -0.00000000000E+00 -0.00000000000E+00 -0.56026139954E+02  0.56026139954E+02  0.00000000000E+00 0.  1.
         23    2    1    2    0    0  0.74521079571E+01 -0.19726531027E+02  0.77635670193E+01  0.94118080928E+02  0.91396226647E+02 0.  0.
         24    2    1    2    0    0  0.25608916748E+02 -0.70572198168E+01  0.18320117214E+03  0.20134843541E+03  0.79201654015E+02 0.  0.
        -11    1    4    4    0    0  0.46968863330E+02 -0.26641170011E+02  0.12995648441E+03  0.14072851133E+03  0.00000000000E+00 0.  1.
         12    1    4    4    0    0 -0.21359946581E+02  0.19583950194E+02  0.53244687733E+02  0.60619924076E+02  0.00000000000E+00 0. -1.
        -11    1    3    3    0    0  0.35347741445E+02  0.22650127817E+02 -0.35698143638E+01  0.42133534031E+02  0.00000000000E+00 0.  1.
         11    1    3    3    0    0 -0.27895633487E+02 -0.42376658845E+02  0.11333381383E+02  0.51984546897E+02  0.00000000000E+00 0. -1.
         -2    1    1    2    0  502 -0.33061024705E+02  0.26783750844E+02  0.11611084948E+03  0.12366135221E+03  0.00000000000E+00 0.  1.
<scales pt_clust_5="13000.00000" pt_clust_6="13000.00000" pt_clust_7="13000.00000" pt_clust_8="13000.00000" pt_clust_9="42.54880"></scales>
<clustering>
<clus scale="   42.549">  1  9  2 -1</clus>
<clus scale="   79.202">  5  6 -1 -1</clus>
<clus scale="   80.452">  1  5  2 -1</clus>
<clus scale="   91.396">  7  8 -1 -1</clus>
<clus scale="   42.549">  1  5  2 -1</clus>
</clustering>
</event>
<event>
 9    2  0.3745229E-005  0.1993397E+03  0.7546771E-02  0.1166913E+00
         21   -1    0    0  501  502  0.00000000000E+00  0.00000000000E+00  0.11587922036E+03  0.11587922036E+03  0.00000000000E+00 0. -1.
          2   -1    0    0  502    0 -0.00000000000E+00 -0.00000000000E+00 -0.77769250469E+03  0.77769250469E+03  0.00000000000E+00 0. -1.
         24    2    1    2    0    0 -0.97026259648E+02 -0.48111795339E+02 -0.32001087429E+03  0.34742520138E+03  0.81046104023E+02 0.  0.
         23    2    1    2    0    0 -0.27051312933E+02  0.18137525971E+03 -0.29216735914E+03  0.35741911912E+03  0.93583666280E+02 0.  0.
        -13    1    3    3    0    0 -0.77640136051E+02 -0.29425752343E+02 -0.12188572769E+03  0.14747879929E+03  0.00000000000E+00 0.  1.
         14    1    3    3    0    0 -0.19386123597E+02 -0.18686042996E+02 -0.19812514660E+03  0.19994640208E+03  0.00000000000E+00 0. -1.
        -11    1    4    4    0    0 -0.34864526094E+02  0.13526937195E+03 -0.27342146185E+03  0.30703848939E+03  0.00000000000E+00 0. -1.
         11    1    4    4    0    0  0.78132131602E+01  0.46105887766E+02 -0.18745897297E+02  0.50380629731E+02  0.00000000000E+00 0.  1.
          1    1    1    2  501    0  0.12407757258E+03 -0.13326346437E+03 -0.49635050899E+02  0.18872740456E+03  0.00000000000E+00 0. -1.
<scales pt_clust_5="13000.00000" pt_clust_6="13000.00000" pt_clust_7="13000.00000" pt_clust_8="13000.00000" pt_clust_9="176.00686"></scales>
<clustering>
<clus scale="   81.046">  5  6 -1 -1</clus>
<clus scale="   93.584">  7  8 -1 -1</clus>
<clus scale="  135.268">  2  5  1 -1</clus>
<clus scale="  176.007">  1  9  2 -1</clus>
<clus scale="  176.007">  1  5  2 -1</clus>
</clustering>
</event>
<event>
 9    2  0.3745229E-005  0.2399653E+03  0.7546771E-02  0.1122930E+00
         21   -1    0    0  501  502  0.00000000000E+00  0.00000000000E+00  0.69573523201E+02  0.69573523201E+02  0.00000000000E+00 0. -1.
          2   -1    0    0  502    0 -0.00000000000E+00 -0.00000000000E+00 -0.92990337766E+03  0.92990337766E+03  0.00000000000E+00 0. -1.
         23    2    1    2    0    0 -0.47815940637E+02 -0.21188112099E+03 -0.59534345135E+03  0.64527312558E+03  0.12150558802E+03 0.  0.
         24    2    1    2    0    0  0.33722385305E+02  0.18796941544E+03 -0.23590769080E+03  0.31400465248E+03  0.80478461645E+02 0.  0.
        -13    1    4    4    0    0 -0.18186853458E+02  0.42008073027E+02 -0.91064880758E+02  0.10192277638E+03  0.00000000000E+00 0.  1.
         14    1    4    4    0    0  0.51909238763E+02  0.14596134241E+03 -0.14484281004E+03  0.21208187610E+03  0.00000000000E+00 0. -1.
        -11    1    3    3    0    0  0.18941050913E+02 -0.85298147065E+02 -0.11728371456E+03  0.14625322904E+03  0.00000000000E+00 0. -1.
         11    1    3    3    0    0 -0.66756991550E+02 -0.12658297393E+03 -0.47805973679E+03  0.49901989654E+03  0.00000000000E+00 0.  1.
          1    1    1    2  501    0  0.14093555332E+02  0.23911705555E+02 -0.29078712306E+02  0.40199122799E+02  0.00000000000E+00 0. -1.
<scales pt_clust_5="13000.00000" pt_clust_6="13000.00000" pt_clust_7="13000.00000" pt_clust_8="13000.00000" pt_clust_9="27.75604"></scales>
<clustering>
<clus scale="   27.756">  1  9  2 -1</clus>
<clus scale="   80.478">  5  6 -1 -1</clus>
<clus scale="  121.506">  7  8 -1 -1</clus>
<clus scale="  222.028">  1  5  2 -1</clus>
<clus scale="   27.756">  1  5  2 -1</clus>
</clustering>
</event>
<event>
 9    2  0.3745229E-005  0.1004015E+03  0.7546771E-02  0.1284203E+00
         -3   -1    0    0    0  501 -0.00000000000E+00  0.00000000000E+00  0.26109806881E+03  0.26109806881E+03  0.00000000000E+00 0.  1.
         21   -1    0    0  501  502  0.00000000000E+00 -0.00000000000E+00 -0.10953793215E+03  0.10953793215E+03  0.00000000000E+00 0.  1.
         23    2    1    2    0    0 -0.37670143427E+02  0.41648086500E+02  0.19419140611E+03  0.22151382424E+03  0.90578525622E+02 0.  0.
         24    2    1    2    0    0  0.69566966072E+01  0.93485635489E+01 -0.13431049933E+02  0.82815111107E+02  0.80883609324E+02 0.  0.
        -11    1    4    4    0    0 -0.28058612216E+02  0.27942942603E+02 -0.16822079002E+02  0.43024133957E+02  0.00000000000E+00 0.  1.
         12    1    4    4    0    0  0.35015308823E+02 -0.18594379054E+02  0.33910290692E+01  0.39790977150E+02  0.00000000000E+00 0. -1.
        -11    1    3    3    0    0  0.29096660116E+02  0.22351234374E+02  0.58371690516E+02  0.68945250465E+02  0.00000000000E+00 0.  1.
         11    1    3    3    0    0 -0.66766803543E+02  0.19296852127E+02  0.13581971560E+03  0.15256857377E+03  0.00000000000E+00 0. -1.
         -4    1    1    2    0  502  0.30713446820E+02 -0.50996650049E+02 -0.29200219521E+02  0.66307065626E+02  0.00000000000E+00 0.  1.
<scales pt_clust_5="13000.00000" pt_clust_6="13000.00000" pt_clust_7="13000.00000" pt_clust_8="13000.00000" pt_clust_9="59.53129"></scales>
<clustering>
<clus scale="   59.531">  2  9  1 -1</clus>
<clus scale="   80.884">  5  6 -1 -1</clus>
<clus scale="   90.579">  7  8 -1 -1</clus>
<clus scale="   91.750">  2  5  1 -1</clus>
<clus scale="   59.531">  2  5  1 -1</clus>
</clustering>
</event>
<event>
 9    2  0.3745229E-005  0.1271547E+03  0.7546771E-02  0.1242103E+00
         21   -1    0    0  501  502  0.00000000000E+00  0.00000000000E+00  0.22682271341E+03  0.22682271341E+03  0.00000000000E+00 0.  1.
         -1   -1    0    0    0  501 -0.00000000000E+00 -0.00000000000E+00 -0.20479616841E+03  0.20479616841E+03  0.00000000000E+00 0.  1.
         24    2    1    2    0    0 -0.53092754411E+02  0.27616264655E+01  0.58536556430E+02  0.11100483508E+03  0.77904286285E+02 0.  0.
         23    2    1    2    0    0  0.74419988359E+02 -0.66559163978E+02  0.93498560971E+02  0.17423370106E+03  0.10792101142E+03 0.  0.
        -11    1    3    3    0    0 -0.70122817777E+02  0.16321533581E+02  0.39699036413E+02  0.82216881013E+02  0.00000000000E+00 0.  1.
         12    1    3    3    0    0  0.17030063365E+02 -0.13559907115E+02  0.18837520017E+02  0.28787954071E+02  0.00000000000E+00 0. -1.
        -11    1    4    4    0    0 -0.34772406943E+01  0.24006365075E+02  0.31160877187E+02  0.39489201487E+02  0.00000000000E+00 0. -1.
         11    1    4    4    0    0  0.77897229053E+02 -0.90565529053E+02  0.62337683784E+02  0.13474449958E+03  0.00000000000E+00 0.  1.
         -2    1    1    2    0  502 -0.21327233948E+02  0.63797537512E+02 -0.13000857241E+03  0.14638034567E+03  0.00000000000E+00 0.  1.
<scales pt_clust_5="13000.00000" pt_clust_6="13000.00000" pt_clust_7="13000.00000" pt_clust_8="13000.00000" pt_clust_9="67.26798"></scales>
<clustering>
<clus scale="   67.268">  1  9  2 -1</clus>
<clus scale="   77.904">  5  6 -1 -1</clus>
<clus scale="  102.910">  2  5  1 -1</clus>
<clus scale="  107.921">  7  8 -1 -1</clus>
<clus scale="   67.268">  1  5  2 -1</clus>
</clustering>
</event>
<event>
 9    2  0.3745229E-005  0.1361593E+03  0.7546771E-02  0.1244906E+00
          2   -1    0    0  502    0 -0.00000000000E+00  0.00000000000E+00  0.10581702439E+04  0.10581702439E+04  0.00000000000E+00 0. -1.
         21   -1    0    0  501  502  0.00000000000E+00 -0.00000000000E+00 -0.42780986325E+02  0.42780986325E+02  0.00000000000E+00 0. -1.
         24    2    1    2    0    0 -0.17352303864E+01 -0.56971612075E+01  0.10358997493E+03  0.13039862937E+03  0.78977534554E+02 0.  0.
         23    2    1    2    0    0 -0.10216959850E+03  0.41243813581E+02  0.15726637566E+03  0.20807002028E+03  0.80129528950E+02 0.  0.
        -13    1    3    3    0    0  0.12052112198E+02 -0.27984076072E+02  0.99266750063E+02  0.10383761163E+03  0.00000000000E+00 0.  1.
         14    1    3    3    0    0 -0.13787342585E+02  0.22286914864E+02  0.43232248695E+01  0.26561017733E+02  0.00000000000E+00 0. -1.
        -11    1    4    4    0    0 -0.32543779881E+02  0.14283702580E+00  0.15101092647E+01  0.32579110506E+02  0.00000000000E+00 0. -1.
         11    1    4    4    0    0 -0.69625818621E+02  0.41100976556E+02  0.15575626639E+03  0.17549090977E+03  0.00000000000E+00 0.  1.
          1    1    1    2  501    0  0.10390482889E+03 -0.35546652374E+02  0.75453290702E+03  0.76248258061E+03  0.00000000000E+00 0. -1.
<scales pt_clust_5="13000.00000" pt_clust_6="13000.00000" pt_clust_7="13000.00000" pt_clust_8="13000.00000" pt_clust_9="110.08467"></scales>
<clustering>
<clus scale="   78.978">  5  6 -1 -1</clus>
<clus scale="   79.202">  1  5  2 -1</clus>
<clus scale="   80.130">  7  8 -1 -1</clus>
<clus scale="  110.085">  2  9  1 -1</clus>
<clus scale="  110.085">  2  5  1 -1</clus>
</clustering>
</event>
<event>
 9    2  0.3745229E-005  0.2078716E+03  0.7546771E-02  0.1152220E+00
          2   -1    0    0  502    0 -0.00000000000E+00  0.00000000000E+00  0.12297406797E+04  0.12297406797E+04  0.00000000000E+00 0. -1.
         21   -1    0    0  501  502  0.00000000000E+00 -0.00000000000E+00 -0.20639511658E+03  0.20639511658E+03  0.00000000000E+00 0. -1.
         24    2    1    2    0    0  0.34942462881E+02 -0.14430063358E+03  0.70014032868E+01  0.16812374055E+03  0.78567957373E+02 0.  0.
         23    2    1    2    0    0  0.21881092067E+02  0.31333526061E+03  0.10381048651E+04  0.10883591965E+04  0.90588420516E+02 0.  0.
        -13    1    3    3    0    0 -0.14371602723E+02 -0.63869425375E+02 -0.22577576942E+02  0.69250223415E+02  0.00000000000E+00 0.  1.
         14    1    3    3    0    0  0.49314065605E+02 -0.80431208206E+02  0.29578980229E+02  0.98873517138E+02  0.00000000000E+00 0. -1.
        -13    1    4    4    0    0  0.27548602003E+02  0.10119026114E+03  0.47867418627E+03  0.49002792882E+03  0.00000000000E+00 0.  1.
         13    1    4    4    0    0 -0.56675099363E+01  0.21214499947E+03  0.55943067884E+03  0.59833126769E+03  0.00000000000E+00 0. -1.
          1    1    1    2  501    0 -0.56823554948E+02 -0.16903462703E+03 -0.21760705273E+02  0.17965285922E+03  0.00000000000E+00 0. -1.
<scales pt_clust_5="13000.00000" pt_clust_6="13000.00000" pt_clust_7="13000.00000" pt_clust_8="13000.00000" pt_clust_9="187.09442"></scales>
<clustering>
<clus scale="   78.568">  5  6 -1 -1</clus>
<clus scale="   90.588">  7  8 -1 -1</clus>
<clus scale="  167.978">  1  5  2 -1</clus>
<clus scale="  187.094">  2  9  1 -1</clus>
<clus scale="  187.094">  2  5  1 -1</clus>
</clustering>
</event>
<event>
 9    2  0.3745229E-005  0.1180012E+03  0.7546771E-02  0.1250774E+00
         21   -1    0    0  501  502  0.00000000000E+00  0.00000000000E+00  0.40677233758E+02  0.40677233758E+02  0.00000000000E+00 0.  1.
          2   -1    0    0  502    0 -0.00000000000E+00 -0.00000000000E+00 -0.62034297887E+03  0.62034297887E+03  0.00000000000E+00 0. -1.
         24    2    1    2    0    0  0.79108102749E+01  0.60679846947E+02 -0.43213112885E+03  0.44836000401E+03  0.10268766204E+03 0.  0.
         23    2    1    2    0    0  0.90984848608E+01 -0.47483098691E+02 -0.53675404700E+02  0.11636367762E+03  0.91225157233E+02 0.  0.
        -11    1    3    3    0    0  0.35479652819E+02 -0.12686228907E+02 -0.94134057399E+02  0.10139510309E+03  0.00000000000E+00 0.  1.
         12    1    3    3    0    0 -0.27568842544E+02  0.73366075854E+02 -0.33799707145E+03  0.34696490092E+03  0.00000000000E+00 0. -1.
        -13    1    4    4    0    0 -0.25148325729E+02  0.10331948054E+02 -0.39068295564E+02  0.47597470057E+02  0.00000000000E+00 0. -1.
         13    1    4    4    0    0  0.34246810590E+02 -0.57815046745E+02 -0.14607109135E+02  0.68766207566E+02  0.00000000000E+00 0.  1.
          1    1    1    2  501    0 -0.17009295136E+02 -0.13196748256E+02 -0.93859211571E+02  0.96296530998E+02  0.00000000000E+00 0. -1.
<scales pt_clust_5="13000.00000" pt_clust_6="13000.00000" pt_clust_7="13000.00000" pt_clust_8="13000.00000" pt_clust_9="21.52837"></scales>
<clustering>
<clus scale="   21.528">  1  9  2 -1</clus>
<clus scale="   91.225">  7  8 -1 -1</clus>
<clus scale="  102.688">  5  6 -1 -1</clus>
<clus scale="  108.174">  1  7  2 -1</clus>
<clus scale="   21.528">  1  5  2 -1</clus>
</clustering>
</event>
<event>
 9    2  0.3745229E-005  0.1164960E+03  0.7546771E-02  0.1252810E+00
         -1   -1    0    0    0  501 -0.00000000000E+00  0.00000000000E+00  0.23212358641E+03  0.23212358641E+03  0.00000000000E+00 0.  1.
         21   -1    0    0  501  502  0.00000000000E+00 -0.00000000000E+00 -0.81368799735E+02  0.81368799735E+02  0.00000000000E+00 0.  1.
         24    2    1    2    0    0 -0.43631560908E+02  0.83010846480E+02  0.83274211790E+02  0.14509031267E+03  0.72952660964E+02 0.  0.
         23    2    1    2    0    0  0.74677615490E+00 -0.67706695434E+02  0.46418545156E+02  0.11823305017E+03  0.85085947940E+02 0.  0.
        -13    1    3    3    0    0 -0.40071215530E+02  0.89534184933E+02  0.48306553737E+02  0.10934164678E+03  0.00000000000E+00 0.  1.
         14    1    3    3    0    0 -0.35603453785E+01 -0.65233384527E+01  0.34967658052E+02  0.35748665897E+02  0.00000000000E+00 0. -1.
        -11    1    4    4    0    0 -0.85929913014E+01 -0.86919346564E+02  0.36106749603E+02  0.94511955188E+02  0.00000000000E+00 0.  1.
         11    1    4    4    0    0  0.93397674563E+01  0.19212651130E+02  0.10311795553E+02  0.23721094982E+02  0.00000000000E+00 0. -1.
         -2    1    1    2    0  502  0.42884784753E+02 -0.15304151046E+02  0.21062029726E+02  0.50169023299E+02  0.00000000000E+00 0.  1.
<scales pt_clust_5="13000.00000" pt_clust_6="13000.00000" pt_clust_7="13000.00000" pt_clust_8="13000.00000" pt_clust_9="45.53374"></scales>
<clustering>
<clus scale="   45.534">  2  9  1 -1</clus>
<clus scale="   72.953">  5  6 -1 -1</clus>
<clus scale="   85.086">  7  8 -1 -1</clus>
<clus scale="  107.953">  1  5  2 -1</clus>
<clus scale="   45.534">  2  5  1 -1</clus>
</clustering>
</event>
<event>
 9    2  0.3745229E-005  0.1133964E+03  0.7546771E-02  0.1257816E+00
         21   -1    0    0  501  502  0.00000000000E+00  0.00000000000E+00  0.32148186464E+03  0.32148186464E+03  0.00000000000E+00 0. -1.
          2   -1    0    0  502    0 -0.00000000000E+00 -0.00000000000E+00 -0.70113998491E+02  0.70113998491E+02  0.00000000000E+00 0. -1.
         23    2    1    2    0    0  0.35311165123E+02 -0.69070802424E+02  0.16813155777E+02  0.11952601661E+03  0.89365162724E+02 0.  0.
         24    2    1    2    0    0 -0.27321043497E+01  0.56278077417E+02  0.13562064618E+03  0.16712701413E+03  0.79773383966E+02 0.  0.
        -13    1    4    4    0    0 -0.23455442500E+02  0.69266968573E+02  0.10445721934E+03  0.12751227937E+03  0.00000000000E+00 0.  1.
         14    1    4    4    0    0  0.20723338150E+02 -0.12988891156E+02  0.31163426846E+02  0.39614734763E+02  0.00000000000E+00 0. -1.
        -11    1    3    3    0    0 -0.25859067134E+02 -0.41220525898E+02  0.19101657786E+02  0.52275199076E+02  0.00000000000E+00 0.  1.
         11    1    3    3    0    0  0.61170232257E+02 -0.27850276527E+02 -0.22885020085E+01  0.67250817530E+02  0.00000000000E+00 0. -1.
          1    1    1    2  501    0 -0.32579060773E+02  0.12792725008E+02  0.98934064192E+02  0.10494283240E+03  0.00000000000E+00 0. -1.
<scales pt_clust_5="13000.00000" pt_clust_6="13000.00000" pt_clust_7="13000.00000" pt_clust_8="13000.00000" pt_clust_9="35.00070"></scales>
<clustering>
<clus scale="   35.001">  1  9  2 -1</clus>
<clus scale="   79.773">  5  6 -1 -1</clus>
<clus scale="   89.365">  7  8 -1 -1</clus>
<clus scale="  106.002">  1  5  2 -1</clus>
<clus scale="   35.001">  1  5  2 -1</clus>
</clustering>
</event>
<event>
 9    2  0.3745229E-005  0.1128161E+03  0.7546771E-02  0.1263533E+00
         21   -1    0    0  501  502  0.00000000000E+00  0.00000000000E+00  0.28461114114E+02  0.28461114114E+02  0.00000000000E+00 0. -1.
          2   -1    0    0  502    0 -0.00000000000E+00 -0.00000000000E+00 -0.12034525768E+04  0.12034525768E+04  0.00000000000E+00 0. -1.
         24    2    1    2    0    0  0.11144043785E+01  0.66084062872E+02 -0.84619102532E+03  0.85244651315E+03  0.79104116090E+02 0.  0.
         23    2    1    2    0    0 -0.49935935969E+01  0.11912780469E+02 -0.11609905788E+03  0.15288290533E+03  0.98627284189E+02 0.  0.
        -11    1    3    3    0    0  0.16831217376E+02  0.25495850904E+02 -0.90782609037E+02  0.95785230570E+02  0.00000000000E+00 0.  1.
         12    1    3    3    0    0 -0.15716812997E+02  0.40588211968E+02 -0.75540841628E+03  0.75666128258E+03  0.00000000000E+00 0. -1.
        -13    1    4    4    0    0  0.63178004221E+01  0.39489573584E+02 -0.11639629257E+03  0.12307492819E+03  0.00000000000E+00 0.  1.
         13    1    4    4    0    0 -0.11311394019E+02 -0.27576793115E+02  0.29723468730E+00  0.29807977147E+02  0.00000000000E+00 0. -1.
          1    1    1    2  501    0  0.38791892184E+01 -0.77996843341E+02 -0.21270137948E+03  0.22658427243E+03  0.00000000000E+00 0. -1.
<scales pt_clust_5="13000.00000" pt_clust_6="13000.00000" pt_clust_7="13000.00000" pt_clust_8="13000.00000" pt_clust_9="78.09325"></scales>
<clustering>
<clus scale="   78.093">  1  9  2 -1</clus>
<clus scale="   79.104">  5  6 -1 -1</clus>
<clus scale="   96.216">  2  5  1 -1</clus>
<clus scale="   98.627">  7  8 -1 -1</clus>
<clus scale="   78.093">  1  5  2 -1</clus>
</clustering>
</event>
<event>
 9    2  0.3745229E-005  0.1099049E+03  0.7546771E-02  0.1265437E+00
         21   -1    0    0  501  502  0.00000000000E+00  0.00000000000E+00  0.18835799246E+03  0.18835799246E+03  0.00000000000E+00 0.  1.
         -3   -1    0    0    0  501 -0.00000000000E+00 -0.00000000000E+00 -0.14117904944E+03  0.14117904944E+03  0.00000000000E+00 0.  1.
         23    2    1    2    0    0  0.11901483519E+02 -0.64374247212E+02 -0.79993891603E+02  0.13859960841E+03  0.92331683315E+02 0.  0.
         24    2    1    2    0    0 -0.41381967637E+02  0.31243157710E+02  0.70589828750E+02  0.11904581653E+03  0.80624936343E+02 0.  0.
        -11    1    4    4    0    0 -0.29094342916E+01 -0.24450925646E+02  0.56954866480E+01  0.25273526485E+02  0.00000000000E+00 0.  1.
         12    1    4    4    0    0 -0.38472533345E+02  0.55694083356E+02  0.64894342102E+02  0.93772290042E+02  0.00000000000E+00 0. -1.
        -13    1    3    3    0    0 -0.10562107397E+02 -0.64596331700E+02 -0.92170485000E+02  0.11304708084E+03  0.00000000000E+00 0.  1.
         13    1    3    3    0    0  0.22463590916E+02  0.22208448868E+00  0.12176593397E+02  0.25552527568E+02  0.00000000000E+00 0. -1.
         -4    1    1    2    0  502  0.29480484118E+02  0.33131089502E+02  0.56583005872E+02  0.71891616958E+02  0.00000000000E+00 0.  1.
<scales pt_clust_5="13000.00000" pt_clust_6="13000.00000" pt_clust_7="13000.00000" pt_clust_8="13000.00000" pt_clust_9="44.34826"></scales>
<clustering>
<clus scale="   44.348">  1  9  2 -1</clus>
<clus scale="   80.625">  5  6 -1 -1</clus>
<clus scale="   92.332">  7  8 -1 -1</clus>
<clus scale="  100.271">  1  5  2 -1</clus>
<clus scale="   44.348">  1  5  2 -1</clus>
</clustering>
</event>
<event>
 9    2  0.3745229E-005  0.9840377E+02  0.7546771E-02  0.1290497E+00
         -3   -1    0    0    0  501 -0.00000000000E+00  0.00000000000E+00  0.69485259136E+02  0.69485259136E+02  0.00000000000E+00 0.  1.
         21   -1    0    0  501  502  0.00000000000E+00 -0.00000000000E+00 -0.36624181532E+03  0.36624181532E+03  0.00000000000E+00 0.  1.
         24    2    1    2    0    0 -0.37189180187E+02  0.18851008432E+02 -0.12697938198E+03  0.15554535637E+03  0.79575114204E+02 0.  0.
         23    2    1    2    0    0  0.29320151134E+02  0.33814617996E+02 -0.19569930735E+03  0.22095717239E+03  0.92307927501E+02 0.  0.
        -13    1    3    3    0    0 -0.49129109349E+02  0.14320486785E+02 -0.33423322632E+02  0.61121716459E+02  0.00000000000E+00 0.  1.
         14    1    3    3    0    0  0.11939929162E+02  0.45305216468E+01 -0.93556059344E+02  0.94423639915E+02  0.00000000000E+00 0. -1.
        -11    1    4    4    0    0 -0.38209038656E+00  0.49452854972E+02 -0.46000126938E+02  0.67540673199E+02  0.00000000000E+00 0. -1.
         11    1    4    4    0    0  0.29702241521E+02 -0.15638236976E+02 -0.14969918042E+03  0.15341649919E+03  0.00000000000E+00 0.  1.
         -4    1    1    2    0  502  0.78690290523E+01 -0.52665626428E+02  0.25922133147E+02  0.59224545690E+02  0.00000000000E+00 0.  1.
<scales pt_clust_5="13000.00000" pt_clust_6="13000.00000" pt_clust_7="13000.00000" pt_clust_8="13000.00000" pt_clust_9="53.25028"></scales>
<clustering>
<clus scale="   53.250">  2  9  1 -1</clus>
<clus scale="   79.575">  5  6 -1 -1</clus>
<clus scale="   86.572">  1  5  2 -1</clus>
<clus scale="   92.308">  7  8 -1 -1</clus>
<clus scale="   53.250">  2  5  1 -1</clus>
</clustering>
</event>
<event>
 9    2  0.3745229E-005  0.9061059E+02  0.7546771E-02  0.1314892E+00
          2   -1    0    0  502    0 -0.00000000000E+00  0.00000000000E+00  0.61431169046E+02  0.61431169046E+02  0.00000000000E+00 0. -1.
         21   -1    0    0  501  502  0.00000000000E+00 -0.00000000000E+00 -0.56718561067E+03  0.56718561067E+03  0.00000000000E+00 0. -1.
         23    2    1    2    0    0  0.36322856337E+02 -0.27878340490E+02  0.18205217025E+02  0.74910699422E+02  0.56423675882E+02 0.  0.
         24    2    1    2    0    0  0.27919604556E+02  0.30400145952E+02 -0.43355184071E+03  0.44276904036E+03  0.79834524657E+02 0.  0.
        -13    1    4    4    0    0  0.10292091625E+02 -0.26443348408E+02 -0.99935355170E+02  0.10388576918E+03  0.00000000000E+00 0.  1.
         14    1    4    4    0    0  0.17627512931E+02  0.56843494360E+02 -0.33361648554E+03  0.33888327118E+03  0.00000000000E+00 0. -1.
        -13    1    3    3    0    0  0.38116978732E+02  0.14350486839E+01 -0.36275945730E+01  0.38316091591E+02  0.00000000000E+00 0. -1.
         13    1    3    3    0    0 -0.17941223954E+01 -0.29313389174E+02  0.21832811598E+02  0.36594607831E+02  0.00000000000E+00 0.  1.
          1    1    1    2  501    0 -0.64242460893E+02 -0.25218054619E+01 -0.90407817936E+02  0.11093703993E+03  0.00000000000E+00 0. -1.
<scales pt_clust_5="13000.00000" pt_clust_6="13000.00000" pt_clust_7="13000.00000" pt_clust_8="13000.00000" pt_clust_9="64.29194"></scales>
<clustering>
<clus scale="   56.424">  7  8 -1 -1</clus>
<clus scale="   64.292">  2  9  1 -1</clus>
<clus scale="   70.854">  1  7  2 -1</clus>
<clus scale="   79.835">  5  6 -1 -1</clus>
<clus scale="   64.292">  2  5  1 -1</clus>
</clustering>
</event>
<event>
 9    2  0.3745229E-005  0.2742109E+03  0.7546771E-02  0.1103826E+00
         21   -1    0    0  501  502  0.00000000000E+00  0.00000000000E+00  0.47099182143E+03  0.47099182143E+03  0.00000000000E+00 0. -1.
          2   -1    0    0  502    0 -0.00000000000E+00 -0.00000000000E+00 -0.43328924098E+03  0.43328924098E+03  0.00000000000E+00 0. -1.
         23    2    1    2    0    0  0.93587806538E+02  0.20315975396E+03 -0.15849460246E+03  0.28873751458E+03  0.90643533445E+02 0.  0.
         24    2    1    2    0    0  0.14507504120E+03 -0.28609579844E+03  0.11593796185E+03  0.35044001158E+03  0.80430201122E+02 0.  0.
        -13    1    4    4    0    0  0.87875178203E+02 -0.24125079896E+03  0.77386390756E+02  0.26816533784E+03  0.00000000000E+00 0.  1.
         14    1    4    4    0    0  0.57199862996E+02 -0.44844999480E+02  0.38551571097E+02  0.82274673741E+02  0.00000000000E+00 0. -1.
        -13    1    3    3    0    0  0.10600087632E+03  0.15066885881E+03 -0.14114957973E+03  0.23207863894E+03  0.00000000000E+00 0.  1.
         13    1    3    3    0    0 -0.12413069780E+02  0.52490895147E+02 -0.17345022726E+02  0.56658875634E+02  0.00000000000E+00 0. -1.
          1    1    1    2  501    0 -0.23866284774E+03  0.82936044486E+02  0.80259221054E+02  0.26510353624E+03  0.00000000000E+00 0. -1.
<scales pt_clust_5="13000.00000" pt_clust_6="13000.00000" pt_clust_7="13000.00000" pt_clust_8="13000.00000" pt_clust_9="262.14991"></scales>
<clustering>
<clus scale="   80.430">  5  6 -1 -1</clus>
<clus scale="   90.644">  7  8 -1 -1</clus>
<clus scale="  241.348">  2  7  1 -1</clus>
<clus scale="  262.150">  1  9  2 -1</clus>
<clus scale="  262.150">  1  5  2 -1</clus>
</clustering>
</event>
<event>
 9    2  0.3745229E-005  0.1731184E+03  0.7546771E-02  0.1175426E+00
          2   -1    0    0  502    0 -0.00000000000E+00  0.00000000000E+00  0.64569987225E+03  0.64569987225E+03  0.00000000000E+00 0. -1.
         21   -1    0    0  501  502  0.00000000000E+00 -0.00000000000E+00 -0.10565157666E+03  0.10565157666E+03  0.00000000000E+00 0.  1.
         24    2    1    2    0    0 -0.31274934336E+02 -0.10472627936E+03  0.59739065139E+02  0.14956558060E+03  0.82797293984E+02 0.  0.
         23    2    1    2    0    0  0.58710528512E+02  0.18754831601E+03  0.15670595524E+03  0.26662727703E+03  0.88949713048E+02 0.  0.
        -13    1    3    3    0    0 -0.53502655463E+02 -0.35966183441E+02  0.33772510878E+02  0.72778313967E+02  0.00000000000E+00 0.  1.
         14    1    3    3    0    0  0.22227721126E+02 -0.68760095919E+02  0.25966554261E+02  0.76787266636E+02  0.00000000000E+00 0. -1.
        -11    1    4    4    0    0  0.13839609998E+02  0.11512022416E+03  0.41102364657E+02  0.12301871888E+03  0.00000000000E+00 0.  1.
         11    1    4    4    0    0  0.44870918514E+02  0.72428091858E+02  0.11560359058E+03  0.14360855815E+03  0.00000000000E+00 0. -1.
          1    1    1    2  501    0 -0.27435594176E+02 -0.82822036653E+02  0.32360327521E+03  0.33515859128E+03  0.00000000000E+00 0. -1.
<scales pt_clust_5="13000.00000" pt_clust_6="13000.00000" pt_clust_7="13000.00000" pt_clust_8="13000.00000" pt_clust_9="87.24798"></scales>
<clustering>
<clus scale="   82.797">  5  6 -1 -1</clus>
<clus scale="   87.248">  2  9  1 -1</clus>
<clus scale="   88.950">  7  8 -1 -1</clus>
<clus scale="  170.039">  1  5  2 -1</clus>
<clus scale="   87.248">  2  5  1 -1</clus>
</clustering>
</event>
<event>
 9    2  0.3745229E-005  0.9194809E+02  0.7546771E-02  0.1304444E+00
         21   -1    0    0  501  502  0.00000000000E+00  0.00000000000E+00  0.10643463728E+03  0.10643463728E+03  0.00000000000E+00 0.  1.
          2   -1    0    0  502    0 -0.00000000000E+00 -0.00000000000E+00 -0.10582435504E+03  0.10582435504E+03  0.00000000000E+00 0. -1.
         24    2    1    2    0    0  0.19045859656E+02 -0.11797482432E+02 -0.40076722686E+02  0.92430387103E+02  0.80220367719E+02 0.  0.
         23    2    1    2    0    0  0.15446956639E+01  0.89584813360E+01  0.26389436736E+02  0.94600617753E+02  0.90389346914E+02 0.  0.
        -11    1    3    3    0    0 -0.30309254696E+02  0.26590807890E+01 -0.68049353392E+01  0.31177376025E+02  0.00000000000E+00 0.  1.
         12    1    3    3    0    0  0.49355114352E+02 -0.14456563221E+02 -0.33271787347E+02  0.61253011078E+02  0.00000000000E+00 0. -1.
        -11    1    4    4    0    0 -0.25686050391E+02 -0.27764897181E+02  0.30651617890E+02  0.48684539429E+02  0.00000000000E+00 0.  1.
         11    1    4    4    0    0  0.27230746055E+02  0.36723378517E+02 -0.42621811534E+01  0.45916078324E+02  0.00000000000E+00 0. -1.
          1    1    1    2  501    0 -0.20590555320E+02  0.28390010955E+01  0.14297568187E+02  0.25227987467E+02  0.00000000000E+00 0. -1.
<scales pt_clust_5="13000.00000" pt_clust_6="13000.00000" pt_clust_7="13000.00000" pt_clust_8="13000.00000" pt_clust_9="20.78535"></scales>
<clustering>
<clus scale="   20.785">  1  9  2 -1</clus>
<clus scale="   80.220">  5  6 -1 -1</clus>
<clus scale="   81.973">  2  5  1 -1</clus>
<clus scale="   90.389">  7  8 -1 -1</clus>
<clus scale="   20.785">  1  5  2 -1</clus>
</clustering>
</event>
<event>
 9    2  0.3745229E-005  0.1235573E+03  0.7546771E-02  0.1240037E+00
         21   -1    0    0  501  502  0.00000000000E+00  0.00000000000E+00  0.49024947549E+02  0.49024947549E+02  0.00000000000E+00 0.  1.
          4   -1    0    0  502    0 -0.00000000000E+00 -0.00000000000E+00 -0.67209303307E+03  0.67209303307E+03  0.00000000000E+00 0. -1.
         23    2    1    2    0    0 -0.43989319342E+02  0.75064097991E+02 -0.55064946769E+03  0.56485793289E+03  0.90994335294E+02 0.  0.
         24    2    1    2    0    0  0.18026529478E+02 -0.65429384615E+02 -0.39881939776E+02  0.11353383121E+03  0.81813211480E+02 0.  0.
        -11    1    4    4    0    0  0.40785632166E+02 -0.59523018715E+02 -0.61523957524E+01  0.72417605053E+02  0.00000000000E+00 0.  1.
         12    1    4    4    0    0 -0.22759102688E+02 -0.59063659005E+01 -0.33729544024E+02  0.41116226157E+02  0.00000000000E+00 0. -1.
        -11    1    3    3    0    0 -0.83840530932E+01  0.86928541425E+02 -0.35017577763E+03  0.36090156400E+03  0.00000000000E+00 0. -1.
         11    1    3    3    0    0 -0.35605266249E+02 -0.11864443434E+02 -0.20047369007E+03  0.20395636889E+03  0.00000000000E+00 0.  1.
          3    1    1    2  501    0  0.25962789864E+02 -0.96347133758E+01 -0.32536678047E+02  0.42726216515E+02  0.00000000000E+00 0. -1.
<scales pt_clust_5="13000.00000" pt_clust_6="13000.00000" pt_clust_7="13000.00000" pt_clust_8="13000.00000" pt_clust_9="27.69285"></scales>
<clustering>
<clus scale="   27.693">  1  9  2 -1</clus>
<clus scale="   81.813">  5  6 -1 -1</clus>
<clus scale="   90.994">  7  8 -1 -1</clus>
<clus scale="  116.961">  1  5  2 -1</clus>
<clus scale="   27.693">  1  5  2 -1</clus>
</clustering>
</event>
<event>
 9    2  0.3745229E-005  0.9048213E+02  0.7546771E-02  0.1308335E+00
         -3   -1    0    0    0  501 -0.00000000000E+00  0.00000000000E+00  0.25405355384E+03  0.25405355384E+03  0.00000000000E+00 0.  1.
         21   -1    0    0  501  502  0.00000000000E+00 -0.00000000000E+00 -0.59052513142E+02  0.59052513142E+02  0.00000000000E+00 0. -1.
         24    2    1    2    0    0 -0.98584066247E+01 -0.45867333930E+01  0.44588658745E+02  0.92090060035E+02  0.79838614493E+02 0.  0.
         23    2    1    2    0    0 -0.27134502819E+02  0.19601229068E+01  0.36236283621E+02  0.10096786718E+03  0.90229255936E+02 0.  0.
        -13    1    3    3    0    0 -0.31420094031E+02  0.55442116849E+01  0.56929336115E+02  0.65260324107E+02  0.00000000000E+00 0.  1.
         14    1    3    3    0    0  0.21561687406E+02 -0.10130945078E+02 -0.12340677370E+02  0.26829735927E+02  0.00000000000E+00 0. -1.
        -11    1    4    4    0    0  0.22649401637E+01  0.34704362681E+02  0.44205448055E+02  0.56246283262E+02  0.00000000000E+00 0.  1.
         11    1    4    4    0    0 -0.29399442983E+02 -0.32744239775E+02 -0.79691644343E+01  0.44721583915E+02  0.00000000000E+00 0. -1.
         -4    1    1    2    0  502  0.36992909444E+02  0.26266104862E+01  0.11417609833E+03  0.12004813977E+03  0.00000000000E+00 0.  1.
<scales pt_clust_5="13000.00000" pt_clust_6="13000.00000" pt_clust_7="13000.00000" pt_clust_8="13000.00000" pt_clust_9="37.08606"></scales>
<clustering>
<clus scale="   37.086">  2  9  1 -1</clus>
<clus scale="   79.839">  5  6 -1 -1</clus>
<clus scale="   80.124">  1  5  2 -1</clus>
<clus scale="   90.229">  7  8 -1 -1</clus>
<clus scale="   37.086">  2  5  1 -1</clus>
</clustering>
</event>
<event>
 9    2  0.3745229E-005  0.1004149E+03  0.7546771E-02  0.1284217E+00
         21   -1    0    0  501  502  0.00000000000E+00  0.00000000000E+00  0.65657512206E+02  0.65657512206E+02  0.00000000000E+00 0.  1.
          2   -1    0    0  502    0 -0.00000000000E+00 -0.00000000000E+00 -0.45067647495E+03  0.45067647495E+03  0.00000000000E+00 0. -1.
         23    2    1    2    0    0  0.30159318604E+02  0.41356392493E+01 -0.24887334104E+03  0.26682647574E+03  0.91278366924E+02 0.  0.
         24    2    1    2    0    0 -0.79508229532E+02  0.59062044107E+02 -0.92808315810E+02  0.15836265816E+03  0.81581029653E+02 0.  0.
        -11    1    4    4    0    0 -0.95337594618E+02  0.55814756517E+02 -0.71394168606E+02  0.13153581757E+03  0.00000000000E+00 0.  1.
         12    1    4    4    0    0  0.15829365086E+02  0.32472875901E+01 -0.21414147204E+02  0.26826840593E+02  0.00000000000E+00 0. -1.
        -11    1    3    3    0    0  0.30759114031E+02  0.34536430739E+02 -0.22029655912E+03  0.22509878299E+03  0.00000000000E+00 0.  1.
         11    1    3    3    0    0 -0.59979542615E+00 -0.30400791490E+02 -0.28576781919E+02  0.41727692754E+02  0.00000000000E+00 0. -1.
          1    1    1    2  501    0  0.49348910928E+02 -0.63197683357E+02 -0.43337305899E+02  0.91144853250E+02  0.00000000000E+00 0. -1.
<scales pt_clust_5="13000.00000" pt_clust_6="13000.00000" pt_clust_7="13000.00000" pt_clust_8="13000.00000" pt_clust_9="80.18268"></scales>
<clustering>
<clus scale="   80.183">  1  9  2 -1</clus>
<clus scale="   81.581">  5  6 -1 -1</clus>
<clus scale="   91.278">  7  8 -1 -1</clus>
<clus scale="   91.689">  1  5  2 -1</clus>
<clus scale="   80.183">  1  5  2 -1</clus>
</clustering>
</event>
<event>
 9    2  0.3745229E-005  0.1169993E+03  0.7546771E-02  0.1250430E+00
         21   -1    0    0  501  502  0.00000000000E+00  0.00000000000E+00  0.23191654894E+02  0.23191654894E+02  0.00000000000E+00 0. -1.
          2   -1    0    0  502    0 -0.00000000000E+00 -0.00000000000E+00 -0.11941222799E+04  0.11941222799E+04  0.00000000000E+00 0. -1.
         24    2    1    2    0    0  0.30904375057E+02 -0.50726929078E+02 -0.30206090917E+03  0.31827829689E+03  0.80820663770E+02 0.  0.
         23    2    1    2    0    0 -0.10901217593E+03  0.34316607306E+02 -0.44711359556E+03  0.46979403669E+03  0.87946492496E+02 0.  0.
        -11    1    3    3    0    0  0.58448723087E+02 -0.31209325673E+02 -0.21114100473E+03  0.22129346832E+03  0.00000000000E+00 0.  1.
         12    1    3    3    0    0 -0.27544348030E+02 -0.19517603404E+02 -0.90919904436E+02  0.96984828575E+02  0.00000000000E+00 0. -1.
        -11    1    4    4    0    0 -0.53999631188E+02  0.44413258494E+02 -0.35663072035E+03  0.36341982389E+03  0.00000000000E+00 0.  1.
         11    1    4    4    0    0 -0.55012544737E+02 -0.10096651188E+02 -0.90482875210E+02  0.10637421281E+03  0.00000000000E+00 0. -1.
          1    1    1    2  501    0  0.78107800869E+02  0.16410321771E+02 -0.42175612029E+03  0.42924160123E+03  0.00000000000E+00 0. -1.
<scales pt_clust_5="13000.00000" pt_clust_6="13000.00000" pt_clust_7="13000.00000" pt_clust_8="13000.00000" pt_clust_9="79.81312"></scales>
<clustering>
<clus scale="   79.813">  1  9  2 -1</clus>
<clus scale="   80.821">  5  6 -1 -1</clus>
<clus scale="   87.946">  7  8 -1 -1</clus>
<clus scale="  111.742">  2  5  1 -1</clus>
<clus scale="   79.813">  1  5  2 -1</clus>
</clustering>
</event>
<event>
 9    2  0.3745229E-005  0.9206808E+02  0.7546771E-02  0.1303203E+00
         -3   -1    0    0    0  501 -0.00000000000E+00  0.00000000000E+00  0.13828317544E+03  0.13828317544E+03  0.00000000000E+00 0.  1.
         21   -1    0    0  501  502  0.00000000000E+00 -0.00000000000E+00 -0.13743422492E+03  0.13743422492E+03  0.00000000000E+00 0.  1.
         24    2    1    2    0    0 -0.11784934927E+01  0.20556081193E+02  0.39947304727E+01  0.82577434362E+02  0.79869477732E+02 0.  0.
         23    2    1    2    0    0  0.31094506405E+02 -0.26651112601E+02 -0.69605977633E+02  0.12000259448E+03  0.88760804574E+02 0.  0.
        -13    1    3    3    0    0 -0.37878832784E+02 -0.59733516581E+00  0.11428728103E+02  0.39569920500E+02  0.00000000000E+00 0.  1.
         14    1    3    3    0    0  0.36700339291E+02  0.21153416359E+02 -0.74339976304E+01  0.43007513861E+02  0.00000000000E+00 0. -1.
        -11    1    4    4    0    0 -0.18971746956E+01 -0.42150866024E+02 -0.72022038276E+02  0.83471365006E+02  0.00000000000E+00 0.  1.
         11    1    4    4    0    0  0.32991681101E+02  0.15499753423E+02  0.24160606434E+01  0.36531229476E+02  0.00000000000E+00 0. -1.
         -4    1    1    2    0  502 -0.29916012912E+02  0.60950314079E+01  0.66460197677E+02  0.73137371512E+02  0.00000000000E+00 0.  1.
<scales pt_clust_5="13000.00000" pt_clust_6="13000.00000" pt_clust_7="13000.00000" pt_clust_8="13000.00000" pt_clust_9="30.53061"></scales>
<clustering>
<clus scale="   30.531">  2  9  1 -1</clus>
<clus scale="   79.869">  5  6 -1 -1</clus>
<clus scale="   83.530">  1  5  2 -1</clus>
<clus scale="   88.761">  7  8 -1 -1</clus>
<clus scale="   30.531">  2  5  1 -1</clus>
</clustering>
</event>
<event>
 9    2  0.3745229E-005  0.9601687E+02  0.7546771E-02  0.1296041E+00
         21   -1    0    0  501  502  0.00000000000E+00  0.00000000000E+00  0.39421265276E+02  0.39421265276E+02  0.00000000000E+00 0.  1.
          2   -1    0    0  502    0 -0.00000000000E+00 -0.00000000000E+00 -0.34856410636E+03  0.34856410636E+03  0.00000000000E+00 0. -1.
         23    2    1    2    0    0  0.16893065728E+02  0.31122921822E+02 -0.16660498667E+03  0.19324155340E+03  0.91274664871E+02 0.  0.
         24    2    1    2    0    0  0.91304759132E+01 -0.24562440472E+02 -0.46432827242E+02  0.94961851506E+02  0.78581592778E+02 0.  0.
        -11    1    4    4    0    0  0.19888360169E+02 -0.40289621787E+01  0.17600465116E+02  0.26861790312E+02  0.00000000000E+00 0.  1.
         12    1    4    4    0    0 -0.10757884255E+02 -0.20533478293E+02 -0.64033292358E+02  0.68100061194E+02  0.00000000000E+00 0. -1.
        -13    1    3    3    0    0  0.36398564683E+02  0.51117133032E+02 -0.14477716537E+03  0.15779177549E+03  0.00000000000E+00 0. -1.
         13    1    3    3    0    0 -0.19505498955E+02 -0.19994211210E+02 -0.21827821294E+02  0.35449777909E+02  0.00000000000E+00 0.  1.
          1    1    1    2  501    0 -0.26023541641E+02 -0.65604813503E+01 -0.96105027175E+02  0.99781966724E+02  0.00000000000E+00 0. -1.
<scales pt_clust_5="13000.00000" pt_clust_6="13000.00000" pt_clust_7="13000.00000" pt_clust_8="13000.00000" pt_clust_9="26.83776"></scales>
<clustering>
<clus scale="   26.838">  1  9  2 -1</clus>
<clus scale="   78.582">  5  6 -1 -1</clus>
<clus scale="   84.043">  1  5  2 -1</clus>
<clus scale="   91.275">  7  8 -1 -1</clus>
<clus scale="   26.838">  1  5  2 -1</clus>
</clustering>
</event>
<event>
 9    2  0.3745229E-005  0.1057564E+03  0.7546771E-02  0.1269758E+00
          2   -1    0    0  502    0 -0.00000000000E+00  0.00000000000E+00  0.14078718020E+03  0.14078718020E+03  0.00000000000E+00 0. -1.
         21   -1    0    0  501  502  0.00000000000E+00 -0.00000000000E+00 -0.25536495058E+03  0.25536495058E+03  0.00000000000E+00 0.  1.
         23    2    1    2    0    0  0.13647658002E+02  0.53761169493E+02  0.97361669244E+02  0.14301775131E+03  0.88872158957E+02 0.  0.
         24    2    1    2    0    0 -0.31757392086E+02 -0.67989121937E+02 -0.18737959535E+03  0.21946565437E+03  0.86156880405E+02 0.  0.
        -13    1    4    4    0    0 -0.45964085338E+02 -0.69572076240E+02 -0.18746223211E+03  0.20517080543E+03  0.00000000000E+00 0.  1.
         14    1    4    4    0    0  0.14206693253E+02  0.15829543030E+01  0.82636756138E-01  0.14294848944E+02  0.00000000000E+00 0. -1.
        -11    1    3    3    0    0 -0.75462797844E+01  0.30461238513E+02 -0.85466354072E+01  0.32525042154E+02  0.00000000000E+00 0.  1.
         11    1    3    3    0    0  0.21193937786E+02  0.23299930980E+02  0.10590830465E+03  0.11049270916E+03  0.00000000000E+00 0. -1.
          1    1    1    2  501    0  0.18109734084E+02  0.14227952444E+02 -0.24559844271E+02  0.33668725101E+02  0.00000000000E+00 0. -1.
<scales pt_clust_5="13000.00000" pt_clust_6="13000.00000" pt_clust_7="13000.00000" pt_clust_8="13000.00000" pt_clust_9="23.03035"></scales>
<clustering>
<clus scale="   23.030">  2  9  1 -1</clus>
<clus scale="   86.157">  5  6 -1 -1</clus>
<clus scale="   88.872">  7  8 -1 -1</clus>
<clus scale="  103.485">  2  5  1 -1</clus>
<clus scale="   23.030">  2  5  1 -1</clus>
</clustering>
</event>
<event>
 9    2  0.3745229E-005  0.1122601E+03  0.7546771E-02  0.1260699E+00
         21   -1    0    0  501  502  0.00000000000E+00  0.00000000000E+00  0.85765601802E+03  0.85765601802E+03  0.00000000000E+00 0. -1.
         -1   -1    0    0    0  501 -0.00000000000E+00 -0.00000000000E+00 -0.18688676727E+03  0.18688676727E+03  0.00000000000E+00 0.  1.
         23    2    1    2    0    0  0.47141924459E+02  0.43201593722E+02  0.44652353624E+02  0.12036930092E+03  0.91685316039E+02 0.  0.
         24    2    1    2    0    0  0.85521830399E+01 -0.10839069211E+03  0.75630043732E+03  0.76829145751E+03  0.80372446826E+02 0.  0.
        -11    1    4    4    0    0  0.33801328076E+02 -0.81484851544E+02  0.37622694913E+03  0.38643114272E+03  0.00000000000E+00 0.  1.
         12    1    4    4    0    0 -0.25249145036E+02 -0.26905840567E+02  0.38007348819E+03  0.38186031479E+03  0.00000000000E+00 0. -1.
        -13    1    3    3    0    0 -0.17869363546E+02 -0.14308289570E+02  0.19307235036E+02  0.29946796635E+02  0.00000000000E+00 0. -1.
         13    1    3    3    0    0  0.65011288005E+02  0.57509883292E+02  0.25345118588E+02  0.90422504282E+02  0.00000000000E+00 0.  1.
         -2    1    1    2    0  502 -0.55694107499E+02  0.65189098388E+02 -0.13018354020E+03  0.15588202686E+03  0.00000000000E+00 0.  1.
<scales pt_clust_5="13000.00000" pt_clust_6="13000.00000" pt_clust_7="13000.00000" pt_clust_8="13000.00000" pt_clust_9="85.74065"></scales>
<clustering>
<clus scale="   80.372">  5  6 -1 -1</clus>
<clus scale="   85.741">  1  9  2 -1</clus>
<clus scale="   91.685">  7  8 -1 -1</clus>
<clus scale="  103.227">  1  5  2 -1</clus>
<clus scale="   85.741">  1  5  2 -1</clus>
</clustering>
</event>
<event>
 9    2  0.3745229E-005  0.1102178E+03  0.7546771E-02  0.1264806E+00
         -3   -1    0    0    0  501 -0.00000000000E+00  0.00000000000E+00  0.14482222864E+03  0.14482222864E+03  0.00000000000E+00 0.  1.
         21   -1    0    0  501  502  0.00000000000E+00 -0.00000000000E+00 -0.30924222184E+03  0.30924222184E+03  0.00000000000E+00 0.  1.
         23    2    1    2    0    0  0.20093291345E+02  0.28286573693E+02 -0.76179109423E+02  0.12428057827E+03  0.91861498001E+02 0.  0.
         24    2    1    2    0    0 -0.14970629068E+01 -0.11733670042E+03 -0.15994767393E+03  0.21394947086E+03  0.80130987918E+02 0.  0.
        -13    1    4    4    0    0 -0.39947436364E+02 -0.74347975199E+02 -0.96758732139E+02  0.12839653941E+03  0.00000000000E+00 0.  1.
         14    1    4    4    0    0  0.38450373457E+02 -0.42988725218E+02 -0.63188941792E+02  0.85552931450E+02  0.00000000000E+00 0. -1.
        -11    1    3    3    0    0  0.26248075736E+02  0.59454998887E+02 -0.60745373946E+02  0.88959872012E+02  0.00000000000E+00 0.  1.
         11    1    3    3    0    0 -0.61547843910E+01 -0.31168425195E+02 -0.15433735477E+02  0.35320706261E+02  0.00000000000E+00 0. -1.
         -4    1    1    2    0  502 -0.18596228439E+02  0.89050126725E+02  0.71706790146E+02  0.11583440134E+03  0.00000000000E+00 0.  1.
<scales pt_clust_5="13000.00000" pt_clust_6="13000.00000" pt_clust_7="13000.00000" pt_clust_8="13000.00000" pt_clust_9="90.97117"></scales>
<clustering>
<clus scale="   80.131">  5  6 -1 -1</clus>
<clus scale="   90.971">  2  9  1 -1</clus>
<clus scale="   91.861">  7  8 -1 -1</clus>
<clus scale="  100.650">  2  5  1 -1</clus>
<clus scale="   90.971">  2  5  1 -1</clus>
</clustering>
</event>
<event>
 9    2  0.3745229E-005  0.9146453E+02  0.7546771E-02  0.1305099E+00
         21   -1    0    0  501  502  0.00000000000E+00  0.00000000000E+00  0.24600402492E+03  0.24600402492E+03  0.00000000000E+00 0.  1.
         -3   -1    0    0    0  501 -0.00000000000E+00 -0.00000000000E+00 -0.62801035181E+02  0.62801035181E+02  0.00000000000E+00 0.  1.
         23    2    1    2    0    0  0.11375793140E+02  0.19661901933E+02  0.23244615568E+02  0.96919883919E+02  0.91308009993E+02 0.  0.
         24    2    1    2    0    0  0.79701133186E+01  0.15946996352E+02  0.57809905901E+02  0.10199174005E+03  0.82112729952E+02 0.  0.
        -13    1    4    4    0    0 -0.33186152793E+02  0.22433610204E+02  0.40225606314E+02  0.56768715040E+02  0.00000000000E+00 0.  1.
         14    1    4    4    0    0  0.41156266111E+02 -0.64866138524E+01  0.17584299587E+02  0.45223025014E+02  0.00000000000E+00 0. -1.
        -11    1    3    3    0    0  0.37368238897E+02  0.23155927093E+02 -0.18439467490E+02  0.47671754731E+02  0.00000000000E+00 0.  1.
         11    1    3    3    0    0 -0.25992445756E+02 -0.34940251603E+01  0.41684083058E+02  0.49248129189E+02  0.00000000000E+00 0. -1.
         -4    1    1    2    0  502 -0.19345906459E+02 -0.35608898285E+02  0.10214846827E+03  0.10989343613E+03  0.00000000000E+00 0.  1.
<scales pt_clust_5="13000.00000" pt_clust_6="13000.00000" pt_clust_7="13000.00000" pt_clust_8="13000.00000" pt_clust_9="40.52478"></scales>
<clustering>
<clus scale="   40.525">  1  9  2 -1</clus>
<clus scale="   82.113">  5  6 -1 -1</clus>
<clus scale="   82.287">  1  5  2 -1</clus>
<clus scale="   91.308">  7  8 -1 -1</clus>
<clus scale="   40.525">  1  5  2 -1</clus>
</clustering>
</event>
<event>
 9    2  0.3745229E-005  0.1200052E+03  0.7546771E-02  0.1249269E+00
         -1   -1    0    0    0  501 -0.00000000000E+00  0.00000000000E+00  0.75052563582E+02  0.75052563582E+02  0.00000000000E+00 0.  1.
         21   -1    0    0  501  502  0.00000000000E+00 -0.00000000000E+00 -0.26793160483E+03  0.26793160483E+03  0.00000000000E+00 0. -1.
         24    2    1    2    0    0 -0.72004149884E+02 -0.26262866225E+02 -0.31006652715E+02  0.11180576614E+03  0.75264739996E+02 0.  0.
         23    2    1    2    0    0  0.58966911269E+02  0.43795142810E+02 -0.73422424855E+02  0.14006997024E+03  0.93987408373E+02 0.  0.
        -11    1    3    3    0    0 -0.48337351381E+02 -0.47815578699E+02 -0.11021353265E+01  0.68000322111E+02  0.00000000000E+00 0.  1.
         12    1    3    3    0    0 -0.23666798502E+02  0.21552712474E+02 -0.29904517388E+02  0.43805444029E+02  0.00000000000E+00 0. -1.
        -11    1    4    4    0    0  0.16240204214E+02  0.18551899116E+02  0.21658058348E+02  0.32817505773E+02  0.00000000000E+00 0.  1.
         11    1    4    4    0    0  0.42726707055E+02  0.25243243694E+02 -0.95080483203E+02  0.10725246447E+03  0.00000000000E+00 0. -1.
         -2    1    1    2    0  502  0.13037238614E+02 -0.17532276585E+02 -0.88449963682E+02  0.91108432037E+02  0.00000000000E+00 0.  1.
<scales pt_clust_5="13000.00000" pt_clust_6="13000.00000" pt_clust_7="13000.00000" pt_clust_8="13000.00000" pt_clust_9="21.84835"></scales>
<clustering>
<clus scale="   21.848">  2  9  1 -1</clus>
<clus scale="   75.265">  5  6 -1 -1</clus>
<clus scale="   93.987">  7  8 -1 -1</clus>
<clus scale="  105.983">  1  5  2 -1</clus>
<clus scale="   21.848">  2  5  1 -1</clus>
</clustering>
</event>
<event>
 9    2  0.3745229E-005  0.1470299E+03  0.7546771E-02  0.1206937E+00
         21   -1    0    0  501  502  0.00000000000E+00  0.00000000000E+00  0.58673908024E+02  0.58673908024E+02  0.00000000000E+00 0. -1.
          2   -1    0    0  502    0 -0.00000000000E+00 -0.00000000000E+00 -0.78270740421E+03  0.78270740421E+03  0.00000000000E+00 0. -1.
         23    2    1    2    0    0  0.51615435500E+02 -0.12228064577E+03 -0.31361912438E+03  0.35249302537E+03  0.90981691828E+02 0.  0.
         24    2    1    2    0    0  0.65502585847E+02  0.10753215159E+03 -0.21661921634E+03  0.26197263891E+03  0.76498537701E+02 0.  0.
        -13    1    4    4    0    0 -0.24023215924E+01  0.67538111769E+02 -0.11484396650E+03  0.13325278358E+03  0.00000000000E+00 0.  1.
         14    1    4    4    0    0  0.67904907440E+02  0.39994039820E+02 -0.10177524984E+03  0.12871985533E+03  0.00000000000E+00 0. -1.
        -13    1    3    3    0    0  0.48478646528E+02 -0.95501251279E+02 -0.30640242956E+03  0.32458144895E+03  0.00000000000E+00 0. -1.
         13    1    3    3    0    0  0.31367889720E+01 -0.26779394487E+02 -0.72166948248E+01  0.27911576421E+02  0.00000000000E+00 0.  1.
          1    1    1    2  501    0 -0.11711802135E+03  0.14748494177E+02 -0.19379515546E+03  0.22691564795E+03  0.00000000000E+00 0. -1.
<scales pt_clust_5="13000.00000" pt_clust_6="13000.00000" pt_clust_7="13000.00000" pt_clust_8="13000.00000" pt_clust_9="118.04300"></scales>
<clustering>
<clus scale="   76.499">  5  6 -1 -1</clus>
<clus scale="   90.982">  7  8 -1 -1</clus>
<clus scale="  118.043">  1  9  2 -1</clus>
<clus scale="  138.536">  1  5  2 -1</clus>
<clus scale="  118.043">  1  5  2 -1</clus>
</clustering>
</event>
<event>
 9    2  0.3745229E-005  0.9390326E+02  0.7546771E-02  0.1300761E+00
          2   -1    0    0  502    0 -0.00000000000E+00  0.00000000000E+00  0.11339620265E+04  0.11339620265E+04  0.00000000000E+00 0. -1.
         21   -1    0    0  501  502  0.00000000000E+00 -0.00000000000E+00 -0.54492908343E+02  0.54492908343E+02  0.00000000000E+00 0. -1.
         24    2    1    2    0    0 -0.12964266758E+02  0.54241831628E+01  0.63564731960E+03  0.64073046901E+03  0.79312830144E+02 0.  0.
         23    2    1    2    0    0 -0.76588342624E+01 -0.59092401787E+02  0.47148719102E+03  0.48392036002E+03  0.91258828873E+02 0.  0.
        -13    1    3    3    0    0  0.24591313432E+02  0.17946830500E+02  0.12920423919E+03  0.13274244553E+03  0.00000000000E+00 0.  1.
         14    1    3    3    0    0 -0.37555580189E+02 -0.12522647337E+02  0.50644308042E+03  0.50798802348E+03  0.00000000000E+00 0. -1.
        -13    1    4    4    0    0 -0.48184066648E+02 -0.32225471822E+02  0.20519721566E+03  0.21322777171E+03  0.00000000000E+00 0. -1.
         13    1    4    4    0    0  0.40525232386E+02 -0.26866929965E+02  0.26628997536E+03  0.27069258831E+03  0.00000000000E+00 0.  1.
          1    1    1    2  501    0  0.20623101020E+02  0.53668218625E+02 -0.27665392428E+02  0.63804105857E+02  0.00000000000E+00 0. -1.
<scales pt_clust_5="13000.00000" pt_clust_6="13000.00000" pt_clust_7="13000.00000" pt_clust_8="13000.00000" pt_clust_9="57.49426"></scales>
<clustering>
<clus scale="   57.494">  2  9  1 -1</clus>
<clus scale="   79.313">  5  6 -1 -1</clus>
<clus scale="   82.342">  1  5  2 -1</clus>
<clus scale="   91.259">  7  8 -1 -1</clus>
<clus scale="   57.494">  2  5  1 -1</clus>
</clustering>
</event>
<event>
 9    2  0.3745229E-005  0.2661432E+03  0.7546771E-02  0.1104380E+00
         21   -1    0    0  501  502  0.00000000000E+00  0.00000000000E+00  0.32144855253E+03  0.32144855253E+03  0.00000000000E+00 0. -1.
         -3   -1    0    0    0  501 -0.00000000000E+00 -0.00000000000E+00 -0.29383130497E+03  0.29383130497E+03  0.00000000000E+00 0.  1.
         24    2    1    2    0    0  0.14719379194E+03 -0.21145242198E+03 -0.10563469240E+03  0.28995838354E+03  0.80864311058E+02 0.  0.
         23    2    1    2    0    0 -0.13954342407E+03  0.17465466921E+03  0.14732509387E+03  0.28518849004E+03  0.98240372989E+02 0.  0.
        -11    1    3    3    0    0  0.10411383807E+03 -0.82232973887E+02 -0.38774632539E+02  0.13822237663E+03  0.00000000000E+00 0.  1.
         12    1    3    3    0    0  0.43079953871E+02 -0.12921944809E+03 -0.66860059858E+02  0.15173600691E+03  0.00000000000E+00 0. -1.
        -11    1    4    4    0    0 -0.14904489482E+03  0.13425858278E+03  0.13537244321E+03  0.24200298780E+03  0.00000000000E+00 0.  1.
         11    1    4    4    0    0  0.95014707541E+01  0.40396086433E+02  0.11952650665E+02  0.43185502238E+02  0.00000000000E+00 0. -1.
         -4    1    1    2    0  502 -0.76503678734E+01  0.36797752763E+02 -0.14073153918E+02  0.40132983919E+02  0.00000000000E+00 0.  1.
<scales pt_clust_5="13000.00000" pt_clust_6="13000.00000" pt_clust_7="13000.00000" pt_clust_8="13000.00000" pt_clust_9="37.58463"></scales>
<clustering>
<clus scale="   37.585">  1  9  2 -1</clus>
<clus scale="   80.864">  5  6 -1 -1</clus>
<clus scale="   98.240">  7  8 -1 -1</clus>
<clus scale="  260.231">  2  5  1 -1</clus>
<clus scale="   37.585">  1  5  2 -1</clus>
</clustering>
</event>
<event>
 9    2  0.3745229E-005  0.1047333E+03  0.7546771E-02  0.1271961E+00
         21   -1    0    0  501  502  0.00000000000E+00  0.00000000000E+00  0.30520368934E+03  0.30520368934E+03  0.00000000000E+00 0.  1.
         -1   -1    0    0    0  501 -0.00000000000E+00 -0.00000000000E+00 -0.43893273990E+03  0.43893273990E+03  0.00000000000E+00 0.  1.
         23    2    1    2    0    0  0.54199253322E+02 -0.35376184689E+01 -0.25360876134E+03  0.27207523648E+03  0.82203750960E+02 0.  0.
         24    2    1    2    0    0 -0.88485463471E+02 -0.17841336569E+02 -0.15404457284E+03  0.19517291732E+03  0.78833664743E+02 0.  0.
        -11    1    4    4    0    0 -0.77172469993E+02 -0.35707993883E+02 -0.15168622685E+03  0.17389468758E+03  0.00000000000E+00 0.  1.
         12    1    4    4    0    0 -0.11312993478E+02  0.17866657313E+02 -0.23583459874E+01  0.21278229738E+02  0.00000000000E+00 0. -1.
        -11    1    3    3    0    0  0.51664833379E+02 -0.35097773706E+02 -0.20287917722E+03  0.21227592722E+03  0.00000000000E+00 0.  1.
         11    1    3    3    0    0  0.25344199425E+01  0.31560155237E+02 -0.50729584118E+02  0.59799309259E+02  0.00000000000E+00 0. -1.
         -2    1    1    2    0  502  0.34286210149E+02  0.21378955038E+02  0.27392428362E+03  0.27688827545E+03  0.00000000000E+00 0.  1.
<scales pt_clust_5="13000.00000" pt_clust_6="13000.00000" pt_clust_7="13000.00000" pt_clust_8="13000.00000" pt_clust_9="40.40549"></scales>
<clustering>
<clus scale="   40.405">  1  9  2 -1</clus>
<clus scale="   78.834">  5  6 -1 -1</clus>
<clus scale="   82.204">  7  8 -1 -1</clus>
<clus scale="  102.110">  1  5  2 -1</clus>
<clus scale="   40.405">  1  5  2 -1</clus>
</clustering>
</event>
<event>
 9    2  0.3745229E-005  0.1316982E+03  0.7546771E-02  0.1228012E+00
         21   -1    0    0  501  502  0.00000000000E+00  0.00000000000E+00  0.85984968979E+03  0.85984968979E+03  0.00000000000E+00 0. -1.
          4   -1    0    0  502    0 -0.00000000000E+00 -0.00000000000E+00 -0.37263742674E+02  0.37263742674E+02  0.00000000000E+00 0. -1.
         23    2    1    2    0    0 -0.84361202842E+02  0.20165440806E+02  0.22572450565E+03  0.25880875709E+03  0.92233197629E+02 0.  0.
         24    2    1    2    0    0  0.10964144044E+03  0.55102212376E+02  0.40073904359E+03  0.42671945620E+03  0.80250943724E+02 0.  0.
        -11    1    4    4    0    0  0.71615529675E+02  0.18602960640E+01  0.28399847424E+03  0.29289482441E+03  0.00000000000E+00 0.  1.
         12    1    4    4    0    0  0.38025910762E+02  0.53241916312E+02  0.11674056935E+03  0.13382463179E+03  0.00000000000E+00 0. -1.
        -11    1    3    3    0    0 -0.10450973627E+03  0.15053589326E+02  0.18244862795E+03  0.21079942449E+03  0.00000000000E+00 0. -1.
         11    1    3    3    0    0  0.20148533429E+02  0.51118514796E+01  0.43275877705E+02  0.48009332593E+02  0.00000000000E+00 0.  1.
          3    1    1    2  501    0 -0.25280237595E+02 -0.75267653182E+02  0.19612239787E+03  0.21158521918E+03  0.00000000000E+00 0. -1.
<scales pt_clust_5="13000.00000" pt_clust_6="13000.00000" pt_clust_7="13000.00000" pt_clust_8="13000.00000" pt_clust_9="79.39969"></scales>
<clustering>
<clus scale="   79.400">  1  9  2 -1</clus>
<clus scale="   80.251">  5  6 -1 -1</clus>
<clus scale="   92.233">  7  8 -1 -1</clus>
<clus scale="  123.603">  1  5  2 -1</clus>
<clus scale="   79.400">  1  5  2 -1</clus>
</clustering>
</event>
<event>
 9    2  0.3745229E-005  0.1070673E+03  0.7546771E-02  0.1269373E+00
         21   -1    0    0  501  502  0.00000000000E+00  0.00000000000E+00  0.97714311355E+02  0.97714311355E+02  0.00000000000E+00 0.  1.
          2   -1    0    0  502    0 -0.00000000000E+00 -0.00000000000E+00 -0.23255818698E+03  0.23255818698E+03  0.00000000000E+00 0. -1.
         24    2    1    2    0    0  0.41826240270E+02 -0.36418198767E+02 -0.12293746127E+03  0.15654842975E+03  0.79486300053E+02 0.  0.
         23    2    1    2    0    0 -0.82287086201E+02  0.35158020413E+02  0.13394932264E+02  0.12598701544E+03  0.87670136838E+02 0.  0.
        -11    1    3    3    0    0  0.13516499321E+02  0.22932138017E+02 -0.59485446250E+02  0.65169755435E+02  0.00000000000E+00 0.  1.
         12    1    3    3    0    0  0.28309740949E+02 -0.59350336784E+02 -0.63452015024E+02  0.91378674315E+02  0.00000000000E+00 0. -1.
        -11    1    4    4    0    0 -0.74604458682E+01 -0.26973554248E+02  0.40928445505E+01  0.28283957606E+02  0.00000000000E+00 0.  1.
         11    1    4    4    0    0 -0.74826640333E+02  0.62131574661E+02  0.93020877138E+01  0.97703057830E+02  0.00000000000E+00 0. -1.
          1    1    1    2  501    0  0.40460845931E+02  0.12601783544E+01 -0.25301346619E+02  0.47737053153E+02  0.00000000000E+00 0. -1.
<scales pt_clust_5="13000.00000" pt_clust_6="13000.00000" pt_clust_7="13000.00000" pt_clust_8="13000.00000" pt_clust_9="40.48049"></scales>
<clustering>
<clus scale="   40.480">  1  9  2 -1</clus>
<clus scale="   79.486">  5  6 -1 -1</clus>
<clus scale="   87.670">  7  8 -1 -1</clus>
<clus scale="  100.476">  2  5  1 -1</clus>
<clus scale="   40.480">  1  5  2 -1</clus>
</clustering>
</event>
<event>
 9    2  0.3745229E-005  0.9539806E+02  0.7546771E-02  0.1295396E+00
          2   -1    0    0  502    0 -0.00000000000E+00  0.00000000000E+00  0.91977277414E+03  0.91977277414E+03  0.00000000000E+00 0. -1.
         21   -1    0    0  501  502  0.00000000000E+00 -0.00000000000E+00 -0.15682360028E+02  0.15682360028E+02  0.00000000000E+00 0. -1.
         24    2    1    2    0    0 -0.17187804102E+02 -0.16460116484E+02  0.48561664838E+03  0.49297862212E+03  0.81474147051E+02 0.  0.
         23    2    1    2    0    0  0.44725655415E+01  0.46051331934E+02  0.37376680187E+03  0.38737633110E+03  0.90653575206E+02 0.  0.
        -11    1    3    3    0    0 -0.17007436038E+02  0.20360036237E+02  0.57994560364E+02  0.63774234515E+02  0.00000000000E+00 0.  1.
         12    1    3    3    0    0 -0.18036806400E+00 -0.36820152721E+02  0.42762208802E+03  0.42920438760E+03  0.00000000000E+00 0. -1.
        -11    1    4    4    0    0  0.46237065134E+02  0.36104227144E+02  0.22716045497E+03  0.23461298710E+03  0.00000000000E+00 0.  1.
         11    1    4    4    0    0 -0.41764499593E+02  0.99471047901E+01  0.14660634690E+03  0.15276334400E+03  0.00000000000E+00 0. -1.
          1    1    1    2  501    0  0.12715238560E+02 -0.29591215450E+02  0.44706963860E+02  0.55100180953E+02  0.00000000000E+00 0. -1.
<scales pt_clust_5="13000.00000" pt_clust_6="13000.00000" pt_clust_7="13000.00000" pt_clust_8="13000.00000" pt_clust_9="32.20741"></scales>
<clustering>
<clus scale="   32.207">  2  9  1 -1</clus>
<clus scale="   81.474">  5  6 -1 -1</clus>
<clus scale="   86.722">  1  5  2 -1</clus>
<clus scale="   90.654">  7  8 -1 -1</clus>
<clus scale="   32.207">  2  5  1 -1</clus>
</clustering>
</event>
<event>
 9    2  0.3745229E-005  0.1470098E+03  0.7546771E-02  0.1224432E+00
          2   -1    0    0  502    0 -0.00000000000E+00  0.00000000000E+00  0.75307534330E+03  0.75307534330E+03  0.00000000000E+00 0. -1.
         21   -1    0    0  501  502  0.00000000000E+00 -0.00000000000E+00 -0.52424543101E+02  0.52424543101E+02  0.00000000000E+00 0. -1.
         24    2    1    2    0    0  0.23783767501E+02 -0.44418923621E+02  0.34291902094E+03  0.35602944497E+03  0.81392889071E+02 0.  0.
         23    2    1    2    0    0 -0.11368199500E+02 -0.93803572809E+02  0.21875003103E+03  0.25306389574E+03  0.85213925046E+02 0.  0.
        -11    1    3    3    0    0  0.23539692444E+02 -0.25685099195E+02  0.42183790527E+02  0.54711183722E+02  0.00000000000E+00 0.  1.
         12    1    3    3    0    0  0.24407505705E+00 -0.18733824425E+02  0.30073523041E+03  0.30131826124E+03  0.00000000000E+00 0. -1.
        -13    1    4    4    0    0 -0.24639445648E+02 -0.16473741954E+02  0.13535316547E+03  0.13856033292E+03  0.00000000000E+00 0.  1.
         13    1    4    4    0    0  0.13271246148E+02 -0.77329830855E+02  0.83396865560E+02  0.11450356282E+03  0.00000000000E+00 0. -1.
          1    1    1    2  501    0 -0.12415568001E+02  0.13822249643E+03  0.13898174823E+03  0.19640654569E+03  0.00000000000E+00 0. -1.
<scales pt_clust_5="13000.00000" pt_clust_6="13000.00000" pt_clust_7="13000.00000" pt_clust_8="13000.00000" pt_clust_9="119.79346"></scales>
<clustering>
<clus scale="   81.393">  5  6 -1 -1</clus>
<clus scale="   85.214">  7  8 -1 -1</clus>
<clus scale="   95.726">  1  5  2 -1</clus>
<clus scale="  119.793">  2  9  1 -1</clus>
<clus scale="  119.793">  2  5  1 -1</clus>
</clustering>
</event>
<event>
 9    2  0.3745229E-005  0.9512603E+02  0.7546771E-02  0.1295430E+00
         21   -1    0    0  501  502  0.00000000000E+00  0.00000000000E+00  0.11020951747E+03  0.11020951747E+03  0.00000000000E+00 0. -1.
         -3   -1    0    0    0  501 -0.00000000000E+00 -0.00000000000E+00 -0.31172451625E+03  0.31172451625E+03  0.00000000000E+00 0.  1.
         23    2    1    2    0    0  0.10160624493E+02  0.35341500424E+02 -0.21973838136E+03  0.24107542036E+03  0.92087687126E+02 0.  0.
         24    2    1    2    0    0  0.27248108695E+02  0.38880972301E+02  0.14522047659E+02  0.97659522870E+02  0.84096986299E+02 0.  0.
        -11    1    4    4    0    0  0.35435664859E+02  0.37575915569E+02 -0.24926237230E+02  0.57349394742E+02  0.00000000000E+00 0.  1.
         12    1    4    4    0    0 -0.81875561639E+01  0.13050567324E+01  0.39448284889E+02  0.40310128128E+02  0.00000000000E+00 0. -1.
        -13    1    3    3    0    0 -0.30051703459E+02  0.16691084884E+02 -0.17407099653E+03  0.17743282962E+03  0.00000000000E+00 0. -1.
         13    1    3    3    0    0  0.40212327953E+02  0.18650415540E+02 -0.45667384825E+02  0.63642590739E+02  0.00000000000E+00 0.  1.
         -4    1    1    2    0  502 -0.37408733188E+02 -0.74222472725E+02  0.37013349174E+01  0.83199090478E+02  0.00000000000E+00 0.  1.
<scales pt_clust_5="13000.00000" pt_clust_6="13000.00000" pt_clust_7="13000.00000" pt_clust_8="13000.00000" pt_clust_9="83.11672"></scales>
<clustering>
<clus scale="   83.117">  1  9  2 -1</clus>
<clus scale="   84.097">  5  6 -1 -1</clus>
<clus scale="   87.414">  1  5  2 -1</clus>
<clus scale="   92.088">  7  8 -1 -1</clus>
<clus scale="   83.117">  1  5  2 -1</clus>
</clustering>
</event>
<event>
 9    2  0.3745229E-005  0.1158266E+03  0.7546771E-02  0.1255025E+00
         21   -1    0    0  501  502  0.00000000000E+00  0.00000000000E+00  0.54751353756E+03  0.54751353756E+03  0.00000000000E+00 0.  1.
         -1   -1    0    0    0  501 -0.00000000000E+00 -0.00000000000E+00 -0.28074314911E+02  0.28074314911E+02  0.00000000000E+00 0.  1.
         24    2    1    2    0    0  0.70810681883E+02  0.33210794535E+02  0.20972392218E+03  0.23694257930E+03  0.77720993352E+02 0.  0.
         23    2    1    2    0    0 -0.48875918039E+02 -0.38102880491E+02  0.28214913564E+03  0.30307899963E+03  0.91695476508E+02 0.  0.
        -13    1    3    3    0    0  0.75224401943E+02  0.18958800362E+02  0.20791174014E+03  0.22191313266E+03  0.00000000000E+00 0.  1.
         14    1    3    3    0    0 -0.44137200598E+01  0.14251994173E+02  0.18121820464E+01  0.15029446645E+02  0.00000000000E+00 0. -1.
        -11    1    4    4    0    0  0.42624655568E+01 -0.51067839674E+02  0.93048760896E+02  0.10622694934E+03  0.00000000000E+00 0.  1.
         11    1    4    4    0    0 -0.53138383596E+02  0.12964959183E+02  0.18910037474E+03  0.19685205029E+03  0.00000000000E+00 0. -1.
         -2    1    1    2    0  502 -0.21934763844E+02  0.48920859558E+01  0.27566164832E+02  0.35566273539E+02  0.00000000000E+00 0.  1.
<scales pt_clust_5="13000.00000" pt_clust_6="13000.00000" pt_clust_7="13000.00000" pt_clust_8="13000.00000" pt_clust_9="22.47369"></scales>
<clustering>
<clus scale="   22.474">  1  9  2 -1</clus>
<clus scale="   77.721">  5  6 -1 -1</clus>
<clus scale="   91.695">  7  8 -1 -1</clus>
<clus scale="  105.111">  2  5  1 -1</clus>
<clus scale="   22.474">  1  5  2 -1</clus>
</clustering>
</event>
<event>
 9    2  0.3745229E-005  0.8060702E+02  0.7546771E-02  0.1338111E+00
         21   -1    0    0  501  502  0.00000000000E+00  0.00000000000E+00  0.12259153364E+03  0.12259153364E+03  0.00000000000E+00 0. -1.
          2   -1    0    0  502    0 -0.00000000000E+00 -0.00000000000E+00 -0.27653856286E+03  0.27653856286E+03  0.00000000000E+00 0. -1.
         24    2    1    2    0    0 -0.39916808413E+01  0.51942993083E+01 -0.24045944438E+03  0.25366109572E+03  0.80500265998E+02 0.  0.
         23    2    1    2    0    0  0.10370269529E+01  0.18658074580E+02  0.16052571002E+02  0.71022675427E+02  0.66613333628E+02 0.  0.
        -11    1    3    3    0    0 -0.28471164710E+02  0.33087415308E+02 -0.13123144291E+03  0.13830067201E+03  0.00000000000E+00 0.  1.
         12    1    3    3    0    0  0.24479483869E+02 -0.27893115999E+02 -0.10922800148E+03  0.11536042370E+03  0.00000000000E+00 0. -1.
        -13    1    4    4    0    0  0.32123760324E+02  0.15002573478E+02  0.17802372264E+02  0.39672883012E+02  0.00000000000E+00 0. -1.
         13    1    4    4    0    0 -0.31086733371E+02  0.36555011022E+01 -0.17498012620E+01  0.31349792414E+02  0.00000000000E+00 0.  1.
          1    1    1    2  501    0  0.29546538885E+01 -0.23852373888E+02  0.70459844157E+02  0.74446325351E+02  0.00000000000E+00 0. -1.
<scales pt_clust_5="13000.00000" pt_clust_6="13000.00000" pt_clust_7="13000.00000" pt_clust_8="13000.00000" pt_clust_9="24.03468"></scales>
<clustering>
<clus scale="   24.035">  1  9  2 -1</clus>
<clus scale="   66.613">  7  8 -1 -1</clus>
<clus scale="   66.742">  1  7  2 -1</clus>
<clus scale="   80.500">  5  6 -1 -1</clus>
<clus scale="   24.035">  1  5  2 -1</clus>
</clustering>
</event>
<event>
 9    2  0.3745229E-005  0.4715761E+03  0.7546771E-02  0.1055075E+00
         21   -1    0    0  501  502  0.00000000000E+00  0.00000000000E+00  0.29081110076E+03  0.29081110076E+03  0.00000000000E+00 0.  1.
         -1   -1    0    0    0  501 -0.00000000000E+00 -0.00000000000E+00 -0.13743016459E+04  0.13743016459E+04  0.00000000000E+00 0.  1.
         24    2    1    2    0    0 -0.25027434386E+02  0.15641658997E+03 -0.36533367823E+03  0.40586127094E+03  0.78499380315E+02 0.  0.
         23    2    1    2    0    0 -0.16202687859E+03 -0.47777887707E+03 -0.77287956863E+02  0.51832233239E+03  0.90328551473E+02 0.  0.
        -13    1    3    3    0    0 -0.10277412241E+02  0.37741785215E+02 -0.18763947529E+03  0.19167326428E+03  0.00000000000E+00 0.  1.
         14    1    3    3    0    0 -0.14750022145E+02  0.11867480476E+03 -0.17769420294E+03  0.21418800666E+03  0.00000000000E+00 0. -1.
        -13    1    4    4    0    0 -0.16275397201E+03 -0.39130412280E+03 -0.45710396578E+02  0.42625955975E+03  0.00000000000E+00 0.  1.
         13    1    4    4    0    0  0.72709341841E+00 -0.86474754279E+02 -0.31577560284E+02  0.92062772639E+02  0.00000000000E+00 0. -1.
         -2    1    1    2    0  502  0.18705431298E+03  0.32136228710E+03 -0.64086891004E+03  0.74092914333E+03  0.00000000000E+00 0.  1.
<scales pt_clust_5="13000.00000" pt_clust_6="13000.00000" pt_clust_7="13000.00000" pt_clust_8="13000.00000" pt_clust_9="462.84444"></scales>
<clustering>
<clus scale="   78.499">  5  6 -1 -1</clus>
<clus scale="   90.329">  7  8 -1 -1</clus>
<clus scale="  176.790">  2  5  1 -1</clus>
<clus scale="  462.844">  1  9  2 -1</clus>
<clus scale="  462.844">  1  5  2 -1</clus>
</clustering>
</event>
<event>
 9    2  0.3745229E-005  0.1032634E+03  0.7546771E-02  0.1278130E+00
         -1   -1    0    0    0  501 -0.00000000000E+00  0.00000000000E+00  0.17188685352E+03  0.17188685352E+03  0.00000000000E+00 0.  1.
         21   -1    0    0  501  502  0.00000000000E+00 -0.00000000000E+00 -0.13579638484E+03  0.13579638484E+03  0.00000000000E+00 0.  1.
         23    2    1    2    0    0 -0.47454045748E+01 -0.52966480674E+02  0.12037468921E+03  0.16018699422E+03  0.91333676023E+02 0.  0.
         24    2    1    2    0    0 -0.14330512516E+02  0.26146097587E+02 -0.70637051077E+02  0.11186663852E+03  0.81459007003E+02 0.  0.
        -11    1    4    4    0    0 -0.24965746350E+02 -0.19247211824E+02 -0.53688330512E+02  0.62258979168E+02  0.00000000000E+00 0.  1.
         12    1    4    4    0    0  0.10635233834E+02  0.45393309412E+02 -0.16948720565E+02  0.49607659356E+02  0.00000000000E+00 0. -1.
        -11    1    3    3    0    0 -0.42395947930E+02 -0.19258104154E+02  0.26508217987E+02  0.53581494915E+02  0.00000000000E+00 0. -1.
         11    1    3    3    0    0  0.37650543355E+02 -0.33708376520E+02  0.93866471227E+02  0.10660549931E+03  0.00000000000E+00 0.  1.
         -2    1    1    2    0  502  0.19075917091E+02  0.26820383086E+02 -0.13647169456E+02  0.35629605610E+02  0.00000000000E+00 0.  1.
<scales pt_clust_5="13000.00000" pt_clust_6="13000.00000" pt_clust_7="13000.00000" pt_clust_8="13000.00000" pt_clust_9="32.91236"></scales>
<clustering>
<clus scale="   32.912">  2  9  1 -1</clus>
<clus scale="   81.459">  5  6 -1 -1</clus>
<clus scale="   91.334">  7  8 -1 -1</clus>
<clus scale="   94.642">  2  5  1 -1</clus>
<clus scale="   32.912">  2  5  1 -1</clus>
</clustering>
</event>
<event>
 9    2  0.3745229E-005  0.9690444E+02  0.7546771E-02  0.1293903E+00
          2   -1    0    0  502    0 -0.00000000000E+00  0.00000000000E+00  0.12035007786E+03  0.12035007786E+03  0.00000000000E+00 0. -1.
         21   -1    0    0  501  502  0.00000000000E+00 -0.00000000000E+00 -0.14151927961E+03  0.14151927961E+03  0.00000000000E+00 0.  1.
         23    2    1    2    0    0  0.15624723230E+02 -0.26283510092E+02  0.63456260693E+02  0.11682686170E+03  0.93203346049E+02 0.  0.
         24    2    1    2    0    0 -0.27074607827E+02 -0.17102878174E+01 -0.49103490843E+02  0.98388845916E+02  0.80828538984E+02 0.  0.
        -13    1    4    4    0    0 -0.49003651671E+02 -0.96048719963E+01 -0.55061146127E+02  0.74332639237E+02  0.00000000000E+00 0.  1.
         14    1    4    4    0    0  0.21929043844E+02  0.78945841789E+01  0.59576552846E+01  0.24056206679E+02  0.00000000000E+00 0. -1.
        -13    1    3    3    0    0  0.24558020450E+02 -0.68867360727E+01 -0.18901359850E+02  0.31745628145E+02  0.00000000000E+00 0.  1.
         13    1    3    3    0    0 -0.89332972199E+01 -0.19396774020E+02  0.82357620543E+02  0.85081233554E+02  0.00000000000E+00 0. -1.
          1    1    1    2  501    0  0.11449884597E+02  0.27993797910E+02 -0.35521971594E+02  0.46653649853E+02  0.00000000000E+00 0. -1.
<scales pt_clust_5="13000.00000" pt_clust_6="13000.00000" pt_clust_7="13000.00000" pt_clust_8="13000.00000" pt_clust_9="30.24488"></scales>
<clustering>
<clus scale="   30.245">  2  9  1 -1</clus>
<clus scale="   80.829">  5  6 -1 -1</clus>
<clus scale="   85.070">  2  5  1 -1</clus>
<clus scale="   93.203">  7  8 -1 -1</clus>
<clus scale="   30.245">  2  5  1 -1</clus>
</clustering>
</event>
<event>
 9    2  0.3745229E-005  0.9174730E+02  0.7546771E-02  0.1318413E+00
          2   -1    0    0  502    0 -0.00000000000E+00  0.00000000000E+00  0.95461681280E+02  0.95461681280E+02  0.00000000000E+00 0. -1.
         21   -1    0    0  501  502  0.00000000000E+00 -0.00000000000E+00 -0.92073137838E+02  0.92073137838E+02  0.00000000000E+00 0.  1.
         24    2    1    2    0    0 -0.14983983944E+02  0.19981872044E+02  0.71424687382E+01  0.66798368203E+02  0.61540329457E+02 0.  0.
         23    2    1    2    0    0 -0.10947511946E+02 -0.11618178658E+02 -0.12192159775E+02  0.92212817779E+02  0.89998471707E+02 0.  0.
        -11    1    3    3    0    0  0.10010255650E+02  0.29897489810E+02 -0.12059862845E+02  0.33756560947E+02  0.00000000000E+00 0.  1.
         12    1    3    3    0    0 -0.24994239593E+02 -0.99156177662E+01  0.19202331583E+02  0.33041807256E+02  0.00000000000E+00 0. -1.
        -11    1    4    4    0    0 -0.32967404631E+02  0.29034463604E+02 -0.13510831434E+02  0.45960770347E+02  0.00000000000E+00 0.  1.
         11    1    4    4    0    0  0.22019892684E+02 -0.40652642262E+02  0.13186716591E+01  0.46252047432E+02  0.00000000000E+00 0. -1.
          1    1    1    2  501    0  0.25931495890E+02 -0.83636933864E+01  0.84382344791E+01  0.28523633136E+02  0.00000000000E+00 0. -1.
<scales pt_clust_5="13000.00000" pt_clust_6="13000.00000" pt_clust_7="13000.00000" pt_clust_8="13000.00000" pt_clust_9="27.24692"></scales>
<clustering>
<clus scale="   27.247">  2  9  1 -1</clus>
<clus scale="   61.540">  5  6 -1 -1</clus>
<clus scale="   64.071">  1  5  2 -1</clus>
<clus scale="   89.998">  7  8 -1 -1</clus>
<clus scale="   27.247">  2  5  1 -1</clus>
</clustering>
</event>
<event>
 9    2  0.3745229E-005  0.9859671E+02  0.7546771E-02  0.1290211E+00
         -1   -1    0    0    0  501 -0.00000000000E+00  0.00000000000E+00  0.23920170064E+03  0.23920170064E+03  0.00000000000E+00 0.  1.
         21   -1    0    0  501  502  0.00000000000E+00 -0.00000000000E+00 -0.71160783674E+02  0.71160783674E+02  0.00000000000E+00 0.  1.
         23    2    1    2    0    0 -0.12225689215E+02  0.14636691995E+02  0.87088433500E+02  0.12890213839E+03  0.93100299692E+02 0.  0.
         24    2    1    2    0    0  0.62042243055E+02  0.17527079758E+02  0.55663108119E+02  0.11699524098E+03  0.80206398489E+02 0.  0.
        -11    1    4    4    0    0  0.62952415214E+02  0.15293207352E+02  0.36074888222E+01  0.64883763361E+02  0.00000000000E+00 0.  1.
         12    1    4    4    0    0 -0.91017215899E+00  0.22338724053E+01  0.52055619297E+02  0.52111477619E+02  0.00000000000E+00 0. -1.
        -13    1    3    3    0    0  0.85771236540E+01  0.34812805243E+02  0.92692763340E+02  0.99385345170E+02  0.00000000000E+00 0.  1.
         13    1    3    3    0    0 -0.20802812869E+02 -0.20176113248E+02 -0.56043298398E+01  0.29516793220E+02  0.00000000000E+00 0. -1.
         -2    1    1    2    0  502 -0.49816553840E+02 -0.32163771753E+02  0.25289375346E+02  0.64465104942E+02  0.00000000000E+00 0.  1.
<scales pt_clust_5="13000.00000" pt_clust_6="13000.00000" pt_clust_7="13000.00000" pt_clust_8="13000.00000" pt_clust_9="59.29753"></scales>
<clustering>
<clus scale="   59.298">  2  9  1 -1</clus>
<clus scale="   80.206">  5  6 -1 -1</clus>
<clus scale="   86.526">  2  5  1 -1</clus>
<clus scale="   93.100">  7  8 -1 -1</clus>
<clus scale="   59.298">  2  5  1 -1</clus>
</clustering>
</event>
<event>
 9    2  0.3745229E-005  0.1027697E+03  0.7546771E-02  0.1285632E+00
          2   -1    0    0  502    0 -0.00000000000E+00  0.00000000000E+00  0.23871844147E+03  0.23871844147E+03  0.00000000000E+00 0. -1.
         21   -1    0    0  501  502  0.00000000000E+00 -0.00000000000E+00 -0.65510200549E+02  0.65510200549E+02  0.00000000000E+00 0.  1.
         24    2    1    2    0    0  0.17559636487E+02  0.24253605501E+02  0.10305779538E+03  0.13217226138E+03  0.77149331029E+02 0.  0.
         23    2    1    2    0    0  0.28158374849E+01 -0.38830517278E+02  0.91205087625E+02  0.13933109608E+03  0.97872612685E+02 0.  0.
        -11    1    3    3    0    0  0.31956274587E+02 -0.17615489901E+02  0.32451836060E+02  0.48832679976E+02  0.00000000000E+00 0.  1.
         12    1    3    3    0    0 -0.14396638100E+02  0.41869095402E+02  0.70605959315E+02  0.83339581407E+02  0.00000000000E+00 0. -1.
        -11    1    4    4    0    0 -0.26330034477E+02 -0.22640256970E+02  0.99151436404E+02  0.10505645764E+03  0.00000000000E+00 0. -1.
         11    1    4    4    0    0  0.29145871962E+02 -0.16190260307E+02 -0.79463487792E+01  0.34274638439E+02  0.00000000000E+00 0.  1.
          1    1    1    2  501    0 -0.20375473972E+02  0.14576911777E+02 -0.21054642075E+02  0.32725284559E+02  0.00000000000E+00 0. -1.
<scales pt_clust_5="13000.00000" pt_clust_6="13000.00000" pt_clust_7="13000.00000" pt_clust_8="13000.00000" pt_clust_9="25.05287"></scales>
<clustering>
<clus scale="   25.053">  2  9  1 -1</clus>
<clus scale="   77.149">  5  6 -1 -1</clus>
<clus scale="   83.274">  1  5  2 -1</clus>
<clus scale="   97.873">  7  8 -1 -1</clus>
<clus scale="   25.053">  2  5  1 -1</clus>
</clustering>
</event>
<event>
 9    2  0.3745229E-005  0.9615146E+02  0.7546771E-02  0.1294789E+00
         21   -1    0    0  501  502  0.00000000000E+00  0.00000000000E+00  0.25592410355E+03  0.25592410355E+03  0.00000000000E+00 0.  1.
         -1   -1    0    0    0  501 -0.00000000000E+00 -0.00000000000E+00 -0.88687733608E+02  0.88687733608E+02  0.00000000000E+00 0.  1.
         23    2    1    2    0    0  0.13533292085E+02 -0.19212208755E+02 -0.34523140587E+02  0.10078420124E+03  0.91724309881E+02 0.  0.
         24    2    1    2    0    0 -0.19159830465E+02  0.55180484942E+02  0.15963068112E+03  0.18814807869E+03  0.80658292433E+02 0.  0.
        -13    1    4    4    0    0  0.12040547293E+02  0.38639031664E+02  0.22011321182E+02  0.46070031552E+02  0.00000000000E+00 0.  1.
         14    1    4    4    0    0 -0.31200377758E+02  0.16541453278E+02  0.13761935994E+03  0.14207804714E+03  0.00000000000E+00 0. -1.
        -11    1    3    3    0    0  0.40096266359E+02 -0.42904687327E+02 -0.25770955391E+02  0.64130062469E+02  0.00000000000E+00 0.  1.
         11    1    3    3    0    0 -0.26562974274E+02  0.23692478572E+02 -0.87521851958E+01  0.36654138768E+02  0.00000000000E+00 0. -1.
         -2    1    1    2    0  502  0.56265383798E+01 -0.35968276186E+02  0.42128829405E+02  0.55679557227E+02  0.00000000000E+00 0.  1.
<scales pt_clust_5="13000.00000" pt_clust_6="13000.00000" pt_clust_7="13000.00000" pt_clust_8="13000.00000" pt_clust_9="36.40570"></scales>
<clustering>
<clus scale="   36.406">  1  9  2 -1</clus>
<clus scale="   80.658">  5  6 -1 -1</clus>
<clus scale="   85.659">  1  5  2 -1</clus>
<clus scale="   91.724">  7  8 -1 -1</clus>
<clus scale="   36.406">  1  5  2 -1</clus>
</clustering>
</event>
<event>
 9    2  0.3745229E-005  0.1002948E+03  0.7546771E-02  0.1283877E+00
         -3   -1    0    0    0  501 -0.00000000000E+00  0.00000000000E+00  0.33760672414E+03  0.33760672414E+03  0.00000000000E+00 0.  1.
         21   -1    0    0  501  502  0.00000000000E+00 -0.00000000000E+00 -0.33505039218E+03  0.33505039218E+03  0.00000000000E+00 0.  1.
         23    2    1    2    0    0 -0.11955249327E+02 -0.37183814263E+02  0.28737485504E+03  0.30392370625E+03  0.90883155101E+02 0.  0.
         24    2    1    2    0    0  0.65366219241E+02  0.64548400597E+02 -0.62168232780E+02  0.13813700059E+03  0.82326806862E+02 0.  0.
        -13    1    4    4    0    0  0.22320695783E+02 -0.10952032817E+02 -0.42174318314E+02  0.48957467340E+02  0.00000000000E+00 0.  1.
         14    1    4    4    0    0  0.43045523458E+02  0.75500433414E+02 -0.19993914466E+02  0.89179533252E+02  0.00000000000E+00 0. -1.
        -13    1    3    3    0    0 -0.26770363341E+02 -0.63259934821E+02  0.20947626132E+03  0.22045130021E+03  0.00000000000E+00 0.  1.
         13    1    3    3    0    0  0.14815114014E+02  0.26076120558E+02  0.77898593721E+02  0.83472406041E+02  0.00000000000E+00 0. -1.
         -4    1    1    2    0  502 -0.53410969914E+02 -0.27364586334E+02 -0.22265029030E+03  0.23059640947E+03  0.00000000000E+00 0.  1.
<scales pt_clust_5="13000.00000" pt_clust_6="13000.00000" pt_clust_7="13000.00000" pt_clust_8="13000.00000" pt_clust_9="60.01293"></scales>
<clustering>
<clus scale="   60.013">  2  9  1 -1</clus>
<clus scale="   82.327">  5  6 -1 -1</clus>
<clus scale="   90.883">  7  8 -1 -1</clus>
<clus scale="   92.612">  2  5  1 -1</clus>
<clus scale="   60.013">  2  5  1 -1</clus>
</clustering>
</event>
<event>
 9    2  0.3745229E-005  0.9091897E+02  0.7546771E-02  0.1306646E+00
         21   -1    0    0  501  502  0.00000000000E+00  0.00000000000E+00  0.60010556105E+02  0.60010556105E+02  0.00000000000E+00 0. -1.
          2   -1    0    0  502    0 -0.00000000000E+00 -0.00000000000E+00 -0.33028840251E+03  0.33028840251E+03  0.00000000000E+00 0. -1.
         23    2    1    2    0    0  0.59088729208E+01 -0.82963096569E+01 -0.21205087062E+03  0.23064788560E+03  0.90161698440E+02 0.  0.
         24    2    1    2    0    0  0.40602022187E+02  0.10959397874E+02 -0.66104598644E+02  0.11240266199E+03  0.80597195073E+02 0.  0.
        -11    1    4    4    0    0 -0.24198275215E+02 -0.25752239039E+01 -0.22426832050E+02  0.33093067209E+02  0.00000000000E+00 0.  1.
         12    1    4    4    0    0  0.64800297402E+02  0.13534621777E+02 -0.43677766593E+02  0.79309594783E+02  0.00000000000E+00 0. -1.
        -11    1    3    3    0    0 -0.71692255805E+01  0.29569774996E+02 -0.25071971458E+02  0.39425539204E+02  0.00000000000E+00 0.  1.
         11    1    3    3    0    0  0.13078098501E+02 -0.37866084653E+02 -0.18697889916E+03  0.19122234639E+03  0.00000000000E+00 0. -1.
          1    1    1    2  501    0 -0.46510895108E+02 -0.26630882166E+01  0.78776228603E+01  0.47248411026E+02  0.00000000000E+00 0. -1.
<scales pt_clust_5="13000.00000" pt_clust_6="13000.00000" pt_clust_7="13000.00000" pt_clust_8="13000.00000" pt_clust_9="46.58707"></scales>
<clustering>
<clus scale="   46.587">  1  9  2 -1</clus>
<clus scale="   80.597">  5  6 -1 -1</clus>
<clus scale="   81.443">  1  5  2 -1</clus>
<clus scale="   90.162">  7  8 -1 -1</clus>
<clus scale="   46.587">  1  5  2 -1</clus>
</clustering>
</event>
<event>
 9    2  0.3745229E-005  0.1027930E+03  0.7546771E-02  0.1279738E+00
         21   -1    0    0  501  502  0.00000000000E+00  0.00000000000E+00  0.54495814058E+03  0.54495814058E+03  0.00000000000E+00 0. -1.
         -1   -1    0    0    0  501 -0.00000000000E+00 -0.00000000000E+00 -0.14254727190E+03  0.14254727190E+03  0.00000000000E+00 0.  1.
         23    2    1    2    0    0 -0.29594593036E+02 -0.33743753001E+02 -0.11317287612E+03  0.15243393844E+03  0.91725268564E+02 0.  0.
         24    2    1    2    0    0  0.47858371922E+02  0.54074498532E+02  0.32545216447E+03  0.34298575705E+03  0.80657566430E+02 0.  0.
        -13    1    4    4    0    0  0.14484687190E+02  0.38483909103E+02  0.48458162510E+02  0.63553213426E+02  0.00000000000E+00 0.  1.
         14    1    4    4    0    0  0.33373684731E+02  0.15590589429E+02  0.27699400196E+03  0.27943254362E+03  0.00000000000E+00 0. -1.
        -13    1    3    3    0    0 -0.57208667339E+02 -0.38088770824E+02 -0.10047197131E+03  0.12173004190E+03  0.00000000000E+00 0.  1.
         13    1    3    3    0    0  0.27614074303E+02  0.43450178235E+01 -0.12700904815E+02  0.30703896538E+02  0.00000000000E+00 0. -1.
         -2    1    1    2    0  502 -0.18263778885E+02 -0.20330745532E+02  0.19013158033E+03  0.19208571699E+03  0.00000000000E+00 0.  1.
<scales pt_clust_5="13000.00000" pt_clust_6="13000.00000" pt_clust_7="13000.00000" pt_clust_8="13000.00000" pt_clust_9="27.32956"></scales>
<clustering>
<clus scale="   27.330">  1  9  2 -1</clus>
<clus scale="   80.658">  5  6 -1 -1</clus>
<clus scale="   91.725">  7  8 -1 -1</clus>
<clus scale="   93.051">  1  5  2 -1</clus>
<clus scale="   27.330">  1  5  2 -1</clus>
</clustering>
</event>
<event>
 9    2  0.3745229E-005  0.1160424E+03  0.7546771E-02  0.1254063E+00
         21   -1    0    0  501  502  0.00000000000E+00  0.00000000000E+00  0.58992669181E+02  0.58992669181E+02  0.00000000000E+00 0.  1.
         -1   -1    0    0    0  501 -0.00000000000E+00 -0.00000000000E+00 -0.37648233109E+03  0.37648233109E+03  0.00000000000E+00 0.  1.
         23    2    1    2    0    0  0.16870853194E+02 -0.85940267357E+02 -0.19835820367E+03  0.23475765259E+03  0.89971235672E+02 0.  0.
         24    2    1    2    0    0 -0.51830242505E+02  0.40792113913E+02 -0.93599200099E+02  0.13816808017E+03  0.77325529566E+02 0.  0.
        -11    1    4    4    0    0 -0.57243102921E+02  0.59094557626E+02 -0.71838697845E+02  0.10922334037E+03  0.00000000000E+00 0.  1.
         12    1    4    4    0    0  0.54128604162E+01 -0.18302443714E+02 -0.21760502254E+02  0.28944739800E+02  0.00000000000E+00 0. -1.
        -11    1    3    3    0    0  0.51821004491E+02 -0.38982429131E+02 -0.82344208708E+02  0.10481228456E+03  0.00000000000E+00 0.  1.
         11    1    3    3    0    0 -0.34950151296E+02 -0.46957838226E+02 -0.11601399496E+03  0.12994536803E+03  0.00000000000E+00 0. -1.
         -2    1    1    2    0  502  0.34959389311E+02  0.45148153444E+02 -0.25532258149E+02  0.62549267515E+02  0.00000000000E+00 0.  1.
<scales pt_clust_5="13000.00000" pt_clust_6="13000.00000" pt_clust_7="13000.00000" pt_clust_8="13000.00000" pt_clust_9="57.10092"></scales>
<clustering>
<clus scale="   57.101">  1  9  2 -1</clus>
<clus scale="   77.326">  5  6 -1 -1</clus>
<clus scale="   89.971">  7  8 -1 -1</clus>
<clus scale="  106.538">  1  5  2 -1</clus>
<clus scale="   57.101">  1  5  2 -1</clus>
</clustering>
</event>
<event>
 9    2  0.3745229E-005  0.9371893E+02  0.7546771E-02  0.1303034E+00
         -1   -1    0    0    0  501 -0.00000000000E+00  0.00000000000E+00  0.68432888470E+02  0.68432888470E+02  0.00000000000E+00 0.  1.
         21   -1    0    0  501  502  0.00000000000E+00 -0.00000000000E+00 -0.34849625124E+03  0.34849625124E+03  0.00000000000E+00 0.  1.
         23    2    1    2    0    0 -0.70715407355E+00  0.80267421740E+01 -0.14711233937E+02  0.94285489337E+02  0.92781487586E+02 0.  0.
         24    2    1    2    0    0 -0.29208203410E+02  0.51078836172E+01 -0.36317125276E+02  0.91290068463E+02  0.78330922312E+02 0.  0.
        -11    1    4    4    0    0 -0.54010981018E+02  0.66073844645E+01 -0.38025105142E+02  0.66383373077E+02  0.00000000000E+00 0.  1.
         12    1    4    4    0    0  0.24802777608E+02 -0.14995008473E+01  0.17079798661E+01  0.24906695387E+02  0.00000000000E+00 0. -1.
        -13    1    3    3    0    0 -0.63781263199E+01 -0.41921290656E+02 -0.11390805132E+02  0.43907010228E+02  0.00000000000E+00 0.  1.
         13    1    3    3    0    0  0.56709722464E+01  0.49948032830E+02 -0.33204288049E+01  0.50378479109E+02  0.00000000000E+00 0. -1.
         -2    1    1    2    0  502  0.29915357483E+02 -0.13134625791E+02 -0.22903500356E+03  0.23135358191E+03  0.00000000000E+00 0.  1.
<scales pt_clust_5="13000.00000" pt_clust_6="13000.00000" pt_clust_7="13000.00000" pt_clust_8="13000.00000" pt_clust_9="32.67181"></scales>
<clustering>
<clus scale="   32.672">  2  9  1 -1</clus>
<clus scale="   78.331">  5  6 -1 -1</clus>
<clus scale="   79.439">  2  5  1 -1</clus>
<clus scale="   92.781">  7  8 -1 -1</clus>
<clus scale="   32.672">  2  5  1 -1</clus>
</clustering>
</event>
<event>
 9    2  0.3745229E-005  0.1223572E+03  0.7546771E-02  0.1243128E+00
          2   -1    0    0  502    0 -0.00000000000E+00  0.00000000000E+00  0.39469923219E+03  0.39469923219E+03  0.00000000000E+00 0. -1.
         21   -1    0    0  501  502  0.00000000000E+00 -0.00000000000E+00 -0.20827907203E+03  0.20827907203E+03  0.00000000000E+00 0.  1.
         24    2    1    2    0    0 -0.70179065430E+02 -0.38522183779E+02  0.34781657032E+03  0.36541176748E+03  0.78360279190E+02 0.  0.
         23    2    1    2    0    0  0.10079223844E+03  0.41084829571E+02 -0.11931466330E+03  0.18546464682E+03  0.91181729467E+02 0.  0.
        -13    1    3    3    0    0 -0.44044781093E+02 -0.23267917835E+01  0.61759966076E+02  0.75892358715E+02  0.00000000000E+00 0.  1.
         14    1    3    3    0    0 -0.26134284338E+02 -0.36195391995E+02  0.28605660424E+03  0.28951940876E+03  0.00000000000E+00 0. -1.
        -13    1    4    4    0    0  0.74160425643E+02 -0.18706489571E+02 -0.61778352766E+02  0.98317172224E+02  0.00000000000E+00 0. -1.
         13    1    4    4    0    0  0.26631812801E+02  0.59791319142E+02 -0.57536310538E+02  0.87147474595E+02  0.00000000000E+00 0.  1.
          1    1    1    2  501    0 -0.30613173014E+02 -0.25626457919E+01 -0.42081746857E+02  0.52101889927E+02  0.00000000000E+00 0. -1.
<scales pt_clust_5="13000.00000" pt_clust_6="13000.00000" pt_clust_7="13000.00000" pt_clust_8="13000.00000" pt_clust_9="30.72025"></scales>
<clustering>
<clus scale="   30.720">  2  9  1 -1</clus>
<clus scale="   78.360">  5  6 -1 -1</clus>
<clus scale="   91.182">  7  8 -1 -1</clus>
<clus scale="  113.126">  1  5  2 -1</clus>
<clus scale="   30.720">  2  5  1 -1</clus>
</clustering>
</event>
<event>
 9    2  0.3745229E-005  0.8950603E+02  0.7546771E-02  0.1309727E+00
         -1   -1    0    0    0  501 -0.00000000000E+00  0.00000000000E+00  0.91544333591E+02  0.91544333591E+02  0.00000000000E+00 0.  1.
         21   -1    0    0  501  502  0.00000000000E+00 -0.00000000000E+00 -0.18901420711E+03  0.18901420711E+03  0.00000000000E+00 0.  1.
         24    2    1    2    0    0 -0.13911498381E+02  0.42865181935E+02  0.82109364032E+01  0.89242322812E+02  0.76588635546E+02 0.  0.
         23    2    1    2    0    0 -0.15006445529E+02  0.18416343195E+02 -0.77069368082E+02  0.11776156197E+03  0.85812253659E+02 0.  0.
        -11    1    3    3    0    0 -0.42429283010E+02  0.71135553018E+01  0.61990913489E+01  0.43465796430E+02  0.00000000000E+00 0.  1.
         12    1    3    3    0    0  0.28517784629E+02  0.35751626633E+02  0.20118450543E+01  0.45776526382E+02  0.00000000000E+00 0. -1.
        -13    1    4    4    0    0  0.24975354938E+02  0.24317536816E+02 -0.51118731387E+01  0.35231267335E+02  0.00000000000E+00 0. -1.
         13    1    4    4    0    0 -0.39981800466E+02 -0.59011936210E+01 -0.71957494943E+02  0.82530294639E+02  0.00000000000E+00 0.  1.
         -2    1    1    2    0  502  0.28917943910E+02 -0.61281525130E+02 -0.28611441836E+02  0.73554655910E+02  0.00000000000E+00 0.  1.
<scales pt_clust_5="13000.00000" pt_clust_6="13000.00000" pt_clust_7="13000.00000" pt_clust_8="13000.00000" pt_clust_9="67.76188"></scales>
<clustering>
<clus scale="   67.762">  2  9  1 -1</clus>
<clus scale="   76.589">  5  6 -1 -1</clus>
<clus scale="   80.706">  1  5  2 -1</clus>
<clus scale="   85.812">  7  8 -1 -1</clus>
<clus scale="   67.762">  2  5  1 -1</clus>
</clustering>
</event>
<event>
 9    2  0.3745229E-005  0.1231051E+03  0.7546771E-02  0.1239429E+00
         21   -1    0    0  501  502  0.00000000000E+00  0.00000000000E+00  0.10811289618E+03  0.10811289618E+03  0.00000000000E+00 0.  1.
          2   -1    0    0  502    0 -0.00000000000E+00 -0.00000000000E+00 -0.27838803112E+03  0.27838803112E+03  0.00000000000E+00 0. -1.
         23    2    1    2    0    0 -0.20953717052E+02 -0.78765738152E+02 -0.19179325510E+03  0.22710452459E+03  0.90270220024E+02 0.  0.
         24    2    1    2    0    0  0.48014934041E+02  0.81569218783E+02  0.53128315403E+01  0.12772969545E+03  0.85601854990E+02 0.  0.
        -13    1    4    4    0    0  0.30604491732E+02  0.87550593389E+02  0.29508641128E+02  0.97326775443E+02  0.00000000000E+00 0.  1.
         14    1    4    4    0    0  0.17410442309E+02 -0.59813746055E+01 -0.24195809588E+02  0.30402920011E+02  0.00000000000E+00 0. -1.
        -13    1    3    3    0    0  0.21859745622E+02  0.48227568415E+01 -0.15096799678E+02  0.27000385604E+02  0.00000000000E+00 0.  1.
         13    1    3    3    0    0 -0.42813462674E+02 -0.83588494993E+02 -0.17669645542E+03  0.20010413899E+03  0.00000000000E+00 0. -1.
          1    1    1    2  501    0 -0.27061216990E+02 -0.28034806314E+01  0.16205288620E+02  0.31666707247E+02  0.00000000000E+00 0. -1.
<scales pt_clust_5="13000.00000" pt_clust_6="13000.00000" pt_clust_7="13000.00000" pt_clust_8="13000.00000" pt_clust_9="27.20605"></scales>
<clustering>
<clus scale="   27.206">  1  9  2 -1</clus>
<clus scale="   85.602">  5  6 -1 -1</clus>
<clus scale="   90.270">  7  8 -1 -1</clus>
<clus scale="  119.724">  1  5  2 -1</clus>
<clus scale="   27.206">  1  5  2 -1</clus>
</clustering>
</event>
<event>
 9    2  0.3745229E-005  0.9436395E+02  0.7546771E-02  0.1299877E+00
          2   -1    0    0  502    0 -0.00000000000E+00  0.00000000000E+00  0.12870543925E+04  0.12870543925E+04  0.00000000000E+00 0. -1.
         21   -1    0    0  501  502  0.00000000000E+00 -0.00000000000E+00 -0.18294712291E+02  0.18294712291E+02  0.00000000000E+00 0. -1.
         24    2    1    2    0    0  0.28760344504E+02  0.29880656596E+01  0.85159056230E+03  0.85583581579E+03  0.80077286625E+02 0.  0.
         23    2    1    2    0    0  0.34402417317E+01 -0.43040435112E+01  0.40442847075E+03  0.41485879951E+03  0.92277166861E+02 0.  0.
        -13    1    3    3    0    0 -0.90466994791E+01 -0.18877965142E+02  0.70933234401E+02  0.73957718204E+02  0.00000000000E+00 0.  1.
         14    1    3    3    0    0  0.37807043983E+02  0.21866030801E+02  0.78065732790E+03  0.78187809759E+03  0.00000000000E+00 0. -1.
        -11    1    4    4    0    0 -0.43325527415E+02 -0.75727526824E+00  0.23964089769E+03  0.24352707168E+03  0.00000000000E+00 0.  1.
         11    1    4    4    0    0  0.46765769146E+02 -0.35467682429E+01  0.16478757306E+03  0.17133172784E+03  0.00000000000E+00 0. -1.
          1    1    1    2  501    0 -0.32200586235E+02  0.13159778516E+01  0.12740647147E+02  0.34654489483E+02  0.00000000000E+00 0. -1.
<scales pt_clust_5="13000.00000" pt_clust_6="13000.00000" pt_clust_7="13000.00000" pt_clust_8="13000.00000" pt_clust_9="32.22747"></scales>
<clustering>
<clus scale="   32.227">  2  9  1 -1</clus>
<clus scale="   80.077">  5  6 -1 -1</clus>
<clus scale="   82.473">  1  5  2 -1</clus>
<clus scale="   92.277">  7  8 -1 -1</clus>
<clus scale="   32.227">  2  5  1 -1</clus>
</clustering>
</event>
<event>
 9    2  0.3745229E-005  0.3606605E+03  0.7546771E-02  0.1058323E+00
         21   -1    0    0  501  502  0.00000000000E+00  0.00000000000E+00  0.21323849799E+03  0.21323849799E+03  0.00000000000E+00 0.  1.
          2   -1    0    0  502    0 -0.00000000000E+00 -0.00000000000E+00 -0.56123988088E+03  0.56123988088E+03  0.00000000000E+00 0. -1.
         24    2    1    2    0    0 -0.20113721725E+03 -0.13705309318E+03 -0.15253972016E+02  0.25660735448E+03  0.79843097354E+02 0.  0.
         23    2    1    2    0    0 -0.31923209388E+02 -0.30856657070E+02 -0.40939388676E+02  0.10840458070E+03  0.90023857879E+02 0.  0.
        -11    1    3    3    0    0 -0.19602830785E+03 -0.10734475634E+03 -0.15652198978E+01  0.22350043424E+03  0.00000000000E+00 0.  1.
         12    1    3    3    0    0 -0.51089094072E+01 -0.29708336846E+02 -0.13688752118E+02  0.33106920244E+02  0.00000000000E+00 0. -1.
        -11    1    4    4    0    0 -0.10132854541E+02  0.22100946361E+02  0.14822507174E+02  0.28475134593E+02  0.00000000000E+00 0.  1.
         11    1    4    4    0    0 -0.21790354847E+02 -0.52957603430E+02 -0.55761895850E+02  0.79929446102E+02  0.00000000000E+00 0. -1.
          1    1    1    2  501    0  0.23306042664E+03  0.16790975025E+03 -0.29180802220E+03  0.40946644370E+03  0.00000000000E+00 0. -1.
<scales pt_clust_5="13000.00000" pt_clust_6="13000.00000" pt_clust_7="13000.00000" pt_clust_8="13000.00000" pt_clust_9="287.24716"></scales>
<clustering>
<clus scale="   79.843">  5  6 -1 -1</clus>
<clus scale="   90.024">  7  8 -1 -1</clus>
<clus scale="   91.026">  5  7 -1 -1</clus>
<clus scale="  287.247">  1  9  2 -1</clus>
<clus scale="  287.247">  1  5  2 -1</clus>
</clustering>
</event>
<event>
 9    2  0.3745229E-005  0.1556239E+03  0.7546771E-02  0.1195394E+00
          2   -1    0    0  502    0 -0.00000000000E+00  0.00000000000E+00  0.11908054495E+04  0.11908054495E+04  0.00000000000E+00 0. -1.
         21   -1    0    0  501  502  0.00000000000E+00 -0.00000000000E+00 -0.29866432022E+02  0.29866432022E+02  0.00000000000E+00 0. -1.
         24    2    1    2    0    0 -0.11002712445E+03 -0.18148511833E+02  0.44852385199E+03  0.46919546832E+03  0.80841852296E+02 0.  0.
         23    2    1    2    0    0  0.14978449597E+03  0.28692814624E+02  0.41682296139E+03  0.45303616453E+03  0.90783877343E+02 0.  0.
        -13    1    3    3    0    0 -0.22278376726E+02  0.29206512759E+02  0.15116351896E+03  0.15556270736E+03  0.00000000000E+00 0.  1.
         14    1    3    3    0    0 -0.87748747724E+02 -0.47355024591E+02  0.29736033303E+03  0.31363276095E+03  0.00000000000E+00 0. -1.
        -13    1    4    4    0    0  0.10580040105E+03  0.15952699040E+02  0.16208935447E+03  0.19421939219E+03  0.00000000000E+00 0. -1.
         13    1    4    4    0    0  0.43984094917E+02  0.12740115584E+02  0.25473360692E+03  0.25881677234E+03  0.00000000000E+00 0.  1.
          1    1    1    2  501    0 -0.39757371516E+02 -0.10544302791E+02  0.29559220406E+03  0.29844024864E+03  0.00000000000E+00 0. -1.
<scales pt_clust_5="13000.00000" pt_clust_6="13000.00000" pt_clust_7="13000.00000" pt_clust_8="13000.00000" pt_clust_9="41.13189"></scales>
<clustering>
<clus scale="   41.132">  2  9  1 -1</clus>
<clus scale="   80.842">  5  6 -1 -1</clus>
<clus scale="   90.784">  7  8 -1 -1</clus>
<clus scale="  150.042">  1  5  2 -1</clus>
<clus scale="   41.132">  2  5  1 -1</clus>
</clustering>
</event>
<event>
 9    2  0.2477393E-004  0.2216639E+03  0.7546771E-02  0.1149722E+00
         21   -1    0    0  501  502  0.00000000000E+00  0.00000000000E+00  0.46492616622E+03  0.46492616622E+03  0.00000000000E+00 0. -1.
          2   -1    0    0  502    0 -0.00000000000E+00 -0.00000000000E+00 -0.14433833437E+04  0.14433833437E+04  0.00000000000E+00 0. -1.
         23    2    1    2    0    0 -0.11505854697E+03  0.20115918895E+02  0.41602784598E+03  0.44122287116E+03  0.89192678943E+02 0.  0.
         24    2    1    2    0    0  0.14564791431E+03  0.18191093248E+03 -0.87864519143E+03  0.91225216760E+03  0.76692519672E+02 0.  0.
        -11    1    4    4    0    0  0.58332458684E+02  0.34991020024E+02 -0.16592698650E+03  0.17932878203E+03  0.00000000000E+00 0.  1.
         12    1    4    4    0    0  0.87315455623E+02  0.14691991245E+03 -0.71271820494E+03  0.73292338557E+03  0.00000000000E+00 0. -1.
        -11    1    3    3    0    0 -0.69026275398E+01  0.29047487798E+02  0.40418788625E+02  0.50250186947E+02  0.00000000000E+00 0.  1.
         11    1    3    3    0    0 -0.10815591943E+03 -0.89315689021E+01  0.37560905736E+03  0.39097268421E+03  0.00000000000E+00 0. -1.
          1    1    1    2  501    0 -0.30589367338E+02 -0.20202685137E+03 -0.51583983204E+03  0.55483447116E+03  0.00000000000E+00 0. -1.
<scales pt_clust_5="13000.00000" pt_clust_6="13000.00000" pt_clust_7="13000.00000" pt_clust_8="13000.00000" pt_clust_9="207.97385"></scales>
<clustering>
<clus scale="   76.693">  5  6 -1 -1</clus>
<clus scale="   89.193">  7  8 -1 -1</clus>
<clus scale="  146.964">  2  7  1 -1</clus>
<clus scale="  207.974">  1  9  2 -1</clus>
<clus scale="  207.974">  1  5  2 -1</clus>
</clustering>
</event>
<event>
 9    2  0.3745229E-005  0.9591940E+02  0.7546771E-02  0.1295211E+00
         21   -1    0    0  501  502  0.00000000000E+00  0.00000000000E+00  0.74073846531E+02  0.74073846531E+02  0.00000000000E+00 0.  1.
          4   -1    0    0  502    0 -0.00000000000E+00 -0.00000000000E+00 -0.18542369449E+03  0.18542369449E+03  0.00000000000E+00 0. -1.
         23    2    1    2    0    0  0.20980113403E+02  0.14906997385E+02 -0.78306205374E+02  0.12337910280E+03  0.91804997026E+02 0.  0.
         24    2    1    2    0    0 -0.34600567530E+02  0.72687283429E+01 -0.53258433431E+02  0.10316517812E+03  0.80972585235E+02 0.  0.
        -11    1    4    4    0    0 -0.13227899574E+02  0.41999807269E+02 -0.42017190117E+02  0.60863826721E+02  0.00000000000E+00 0.  1.
         12    1    4    4    0    0 -0.21372667956E+02 -0.34731078926E+02 -0.11241243314E+02  0.42301351398E+02  0.00000000000E+00 0. -1.
        -13    1    3    3    0    0 -0.12006285910E+02  0.37519213578E+02 -0.73113457590E+02  0.83050707219E+02  0.00000000000E+00 0.  1.
         13    1    3    3    0    0  0.32986399313E+02 -0.22612216193E+02 -0.51927477842E+01  0.40328395584E+02  0.00000000000E+00 0. -1.
          3    1    1    2  501    0  0.13620454126E+02 -0.22175725728E+02  0.20214790846E+02  0.32953260098E+02  0.00000000000E+00 0. -1.
<scales pt_clust_5="13000.00000" pt_clust_6="13000.00000" pt_clust_7="13000.00000" pt_clust_8="13000.00000" pt_clust_9="26.02460"></scales>
<clustering>
<clus scale="   26.025">  1  9  2 -1</clus>
<clus scale="   80.973">  5  6 -1 -1</clus>
<clus scale="   85.609">  1  5  2 -1</clus>
<clus scale="   91.805">  7  8 -1 -1</clus>
<clus scale="   26.025">  1  5  2 -1</clus>
</clustering>
</event>
<event>
 9    2  0.3745229E-005  0.1054363E+03  0.7546771E-02  0.1273151E+00
         21   -1    0    0  501  502  0.00000000000E+00  0.00000000000E+00  0.32498191462E+03  0.32498191462E+03  0.00000000000E+00 0. -1.
          4   -1    0    0  502    0 -0.00000000000E+00 -0.00000000000E+00 -0.10174776018E+03  0.10174776018E+03  0.00000000000E+00 0. -1.
         23    2    1    2    0    0 -0.27778011717E+02 -0.45314844252E+02 -0.42189021741E+02  0.11330882525E+03  0.90740968037E+02 0.  0.
         24    2    1    2    0    0  0.55953703044E+02  0.28017045870E+02  0.95891256355E+02  0.14069518484E+03  0.81757141876E+02 0.  0.
        -11    1    4    4    0    0  0.18480664563E+02  0.53533586684E+02  0.43498230349E+02  0.71410614823E+02  0.00000000000E+00 0.  1.
         12    1    4    4    0    0  0.37473038481E+02 -0.25516540814E+02  0.52393026007E+02  0.69284570015E+02  0.00000000000E+00 0. -1.
        -13    1    3    3    0    0  0.13816885980E+02 -0.20271447013E+02  0.21913689223E+02  0.32894493119E+02  0.00000000000E+00 0.  1.
         13    1    3    3    0    0 -0.41594897697E+02 -0.25043397239E+02 -0.64102710964E+02  0.80414332134E+02  0.00000000000E+00 0. -1.
          3    1    1    2  501    0 -0.28175691327E+02  0.17297798382E+02  0.16953191983E+03  0.17272566471E+03  0.00000000000E+00 0. -1.
<scales pt_clust_5="13000.00000" pt_clust_6="13000.00000" pt_clust_7="13000.00000" pt_clust_8="13000.00000" pt_clust_9="33.06181"></scales>
<clustering>
<clus scale="   33.062">  1  9  2 -1</clus>
<clus scale="   81.757">  5  6 -1 -1</clus>
<clus scale="   90.741">  7  8 -1 -1</clus>
<clus scale="   97.812">  1  5  2 -1</clus>
<clus scale="   33.062">  1  5  2 -1</clus>
</clustering>
</event>
<event>
 9    2  0.3745229E-005  0.4029862E+03  0.7546771E-02  0.1042930E+00
          2   -1    0    0  502    0 -0.00000000000E+00  0.00000000000E+00  0.25016403242E+03  0.25016403242E+03  0.00000000000E+00 0. -1.
         21   -1    0    0  501  502  0.00000000000E+00 -0.00000000000E+00 -0.17264056804E+04  0.17264056804E+04  0.00000000000E+00 0. -1.
         24    2    1    2    0    0 -0.33436923848E+03 -0.22785509513E+03  0.10010297418E+02  0.41315566703E+03  0.82925672309E+02 0.  0.
         23    2    1    2    0    0  0.21537759980E+03  0.23410802470E+03 -0.13058309853E+04  0.13471969511E+04  0.92471536713E+02 0.  0.
        -13    1    3    3    0    0 -0.73917738767E+02 -0.30499121665E+02 -0.26743871179E+02  0.84316446630E+02  0.00000000000E+00 0.  1.
         14    1    3    3    0    0 -0.26045149971E+03 -0.19735597346E+03  0.36754168597E+02  0.32883922040E+03  0.00000000000E+00 0. -1.
        -11    1    4    4    0    0  0.57379019327E+01  0.47267434725E+02 -0.25982773473E+03  0.26415447307E+03  0.00000000000E+00 0.  1.
         11    1    4    4    0    0  0.20963969787E+03  0.18684058997E+03 -0.10460032505E+04  0.10830424780E+04  0.00000000000E+00 0. -1.
          1    1    1    2  501    0  0.11899163867E+03 -0.62529295700E+01 -0.18042096013E+03  0.21621709474E+03  0.00000000000E+00 0. -1.
<scales pt_clust_5="13000.00000" pt_clust_6="13000.00000" pt_clust_7="13000.00000" pt_clust_8="13000.00000" pt_clust_9="119.15582"></scales>
<clustering>
<clus scale="   82.926">  5  6 -1 -1</clus>
<clus scale="   92.472">  7  8 -1 -1</clus>
<clus scale="  119.156">  2  9  1 -1</clus>
<clus scale="  400.903">  1  5  2 -1</clus>
<clus scale="  119.156">  2  5  1 -1</clus>
</clustering>
</event>
<event>
 9    2  0.3745229E-005  0.2947089E+03  0.7546771E-02  0.1127819E+00
         21   -1    0    0  501  502  0.00000000000E+00  0.00000000000E+00  0.30824664703E+03  0.30824664703E+03  0.00000000000E+00 0.  1.
         -1   -1    0    0    0  501 -0.00000000000E+00 -0.00000000000E+00 -0.65235152531E+03  0.65235152531E+03  0.00000000000E+00 0.  1.
         23    2    1    2    0    0  0.39952541589E+02 -0.36761017552E+02 -0.28853325447E+03  0.30745465917E+03  0.91265275530E+02 0.  0.
         24    2    1    2    0    0 -0.32606426265E+02 -0.25719591214E+03 -0.18901638096E+03  0.33023153580E+03  0.78184133367E+02 0.  0.
        -13    1    4    4    0    0 -0.54761979920E+02 -0.21245904444E+03 -0.16670140521E+03  0.27554868627E+03  0.00000000000E+00 0.  1.
         14    1    4    4    0    0  0.22155553655E+02 -0.44736867703E+02 -0.22314975748E+02  0.54682849526E+02  0.00000000000E+00 0. -1.
        -13    1    3    3    0    0  0.59410617362E+02 -0.23550284252E+02 -0.27014250192E+03  0.27759900700E+03  0.00000000000E+00 0.  1.
         13    1    3    3    0    0 -0.19458075772E+02 -0.13210733300E+02 -0.18390752555E+02  0.29855652172E+02  0.00000000000E+00 0. -1.
         -2    1    1    2    0  502 -0.73461153244E+01  0.29395692969E+03  0.13344475715E+03  0.32291197738E+03  0.00000000000E+00 0.  1.
<scales pt_clust_5="13000.00000" pt_clust_6="13000.00000" pt_clust_7="13000.00000" pt_clust_8="13000.00000" pt_clust_9="284.14884"></scales>
<clustering>
<clus scale="   78.184">  5  6 -1 -1</clus>
<clus scale="   91.265">  7  8 -1 -1</clus>
<clus scale="  106.193">  2  7  1 -1</clus>
<clus scale="  284.149">  1  9  2 -1</clus>
<clus scale="  284.149">  1  5  2 -1</clus>
</clustering>
</event>
<event>
 9    2  0.3745229E-005  0.8772483E+02  0.7546771E-02  0.1309979E+00
         -1   -1    0    0    0  501 -0.00000000000E+00  0.00000000000E+00  0.52332796222E+03  0.52332796222E+03  0.00000000000E+00 0.  1.
         21   -1    0    0  501  502  0.00000000000E+00 -0.00000000000E+00 -0.60571653179E+02  0.60571653179E+02  0.00000000000E+00 0. -1.
         23    2    1    2    0    0 -0.63947866613E+01 -0.29774072572E+02  0.45144216292E+03  0.46012309753E+03  0.83581395813E+02 0.  0.
         24    2    1    2    0    0 -0.53398452146E+01  0.37545467332E+01  0.33163617542E+02  0.87830492885E+02  0.81066388743E+02 0.  0.
        -11    1    4    4    0    0 -0.19653547818E+02 -0.33774354676E+02  0.64828972982E+01  0.39610565926E+02  0.00000000000E+00 0.  1.
         12    1    4    4    0    0  0.14313702603E+02  0.37528901409E+02  0.26680720244E+02  0.48219926959E+02  0.00000000000E+00 0. -1.
        -11    1    3    3    0    0 -0.22447427664E+01 -0.59196952459E+02  0.30235041251E+03  0.30809915611E+03  0.00000000000E+00 0.  1.
         11    1    3    3    0    0 -0.41500438948E+01  0.29422879886E+02  0.14909175041E+03  0.15202394142E+03  0.00000000000E+00 0. -1.
         -2    1    1    2    0  502  0.11734631876E+02  0.26019525839E+02 -0.21849471425E+02  0.35946024978E+02  0.00000000000E+00 0.  1.
<scales pt_clust_5="13000.00000" pt_clust_6="13000.00000" pt_clust_7="13000.00000" pt_clust_8="13000.00000" pt_clust_9="28.54325"></scales>
<clustering>
<clus scale="   28.543">  2  9  1 -1</clus>
<clus scale="   81.066">  5  6 -1 -1</clus>
<clus scale="   83.581">  7  8 -1 -1</clus>
<clus scale="   85.332">  2  5  1 -1</clus>
<clus scale="   28.543">  2  5  1 -1</clus>
</clustering>
</event>
<event>
 9    2  0.3745229E-005  0.1116205E+03  0.7546771E-02  0.1261901E+00
         21   -1    0    0  501  502  0.00000000000E+00  0.00000000000E+00  0.47044818230E+03  0.47044818230E+03  0.00000000000E+00 0. -1.
          4   -1    0    0  502    0 -0.00000000000E+00 -0.00000000000E+00 -0.92368692161E+02  0.92368692161E+02  0.00000000000E+00 0. -1.
         23    2    1    2    0    0  0.36628423419E+02  0.77797949187E+01  0.33919106887E+02  0.10471209238E+03  0.91716682604E+02 0.  0.
         24    2    1    2    0    0 -0.68116101570E+02 -0.67087523566E+02  0.19367400256E+02  0.12644326433E+03  0.80450380921E+02 0.  0.
        -13    1    4    4    0    0 -0.30531689605E+02 -0.45977075324E+02  0.49266813476E+02  0.73981716901E+02  0.00000000000E+00 0.  1.
         14    1    4    4    0    0 -0.37584411965E+02 -0.21110448242E+02 -0.29899413220E+02  0.52461547429E+02  0.00000000000E+00 0. -1.
        -11    1    3    3    0    0 -0.83560110224E+01 -0.22841792254E+02  0.43134902731E+02  0.49519594376E+02  0.00000000000E+00 0. -1.
         11    1    3    3    0    0  0.44984434441E+02  0.30621587173E+02 -0.92157958444E+01  0.55192498005E+02  0.00000000000E+00 0.  1.
          3    1    1    2  501    0  0.31487678151E+02  0.59307728647E+02  0.32479298300E+03  0.33166151775E+03  0.00000000000E+00 0. -1.
<scales pt_clust_5="13000.00000" pt_clust_6="13000.00000" pt_clust_7="13000.00000" pt_clust_8="13000.00000" pt_clust_9="67.14820"></scales>
<clustering>
<clus scale="   67.148">  1  9  2 -1</clus>
<clus scale="   80.450">  5  6 -1 -1</clus>
<clus scale="   91.717">  7  8 -1 -1</clus>
<clus scale="  102.564">  1  5  2 -1</clus>
<clus scale="   67.148">  1  5  2 -1</clus>
</clustering>
</event>
<event>
 9    2  0.3745229E-005  0.1012853E+03  0.7546771E-02  0.1283764E+00
          2   -1    0    0  502    0 -0.00000000000E+00  0.00000000000E+00  0.43304104034E+03  0.43304104034E+03  0.00000000000E+00 0. -1.
         21   -1    0    0  501  502  0.00000000000E+00 -0.00000000000E+00 -0.41212217731E+02  0.41212217731E+02  0.00000000000E+00 0.  1.
         23    2    1    2    0    0  0.26082809118E+02  0.21276527097E+02  0.26376774821E+03  0.28153430265E+03  0.92493972974E+02 0.  0.
         24    2    1    2    0    0 -0.39368937278E+02 -0.37562601366E+02  0.13870035959E+03  0.16916154032E+03  0.80106021796E+02 0.  0.
        -11    1    4    4    0    0 -0.56537938711E+02 -0.48730418402E+02  0.94301641025E+02  0.12026633648E+03  0.00000000000E+00 0.  1.
         12    1    4    4    0    0  0.17169001434E+02  0.11167817036E+02  0.44398718564E+02  0.48895203831E+02  0.00000000000E+00 0. -1.
        -11    1    3    3    0    0  0.30849670811E+02  0.52124469137E+02  0.12003158067E+03  0.13444791866E+03  0.00000000000E+00 0. -1.
         11    1    3    3    0    0 -0.47668616925E+01 -0.30847942040E+02  0.14373616754E+03  0.14708638400E+03  0.00000000000E+00 0.  1.
          1    1    1    2  501    0  0.13286128160E+02  0.16286074269E+02 -0.10639285197E+02  0.23557415098E+02  0.00000000000E+00 0. -1.
<scales pt_clust_5="13000.00000" pt_clust_6="13000.00000" pt_clust_7="13000.00000" pt_clust_8="13000.00000" pt_clust_9="21.01803"></scales>
<clustering>
<clus scale="   21.018">  2  9  1 -1</clus>
<clus scale="   80.106">  5  6 -1 -1</clus>
<clus scale="   90.114">  2  5  1 -1</clus>
<clus scale="   92.494">  7  8 -1 -1</clus>
<clus scale="   21.018">  2  5  1 -1</clus>
</clustering>
</event>
<event>
 9    2  0.3745229E-005  0.1831176E+03  0.7546771E-02  0.1165781E+00
         21   -1    0    0  501  502  0.00000000000E+00  0.00000000000E+00  0.26178318491E+03  0.26178318491E+03  0.00000000000E+00 0. -1.
          2   -1    0    0  502    0 -0.00000000000E+00 -0.00000000000E+00 -0.56106377328E+03  0.56106377328E+03  0.00000000000E+00 0. -1.
         23    2    1    2    0    0  0.13438278591E+03  0.15323548268E+02 -0.13462927588E+03  0.21085155319E+03  0.89664883188E+02 0.  0.
         24    2    1    2    0    0 -0.28780058115E+03 -0.28641118986E+02  0.90714856579E+02  0.31379034487E+03  0.81152369788E+02 0.  0.
        -11    1    4    4    0    0 -0.57408965807E+02 -0.37844867306E+02  0.32082847948E+02  0.75877087905E+02  0.00000000000E+00 0.  1.
         12    1    4    4    0    0 -0.23039161535E+03  0.92037483200E+01  0.58632008631E+02  0.23791325697E+03  0.00000000000E+00 0. -1.
        -13    1    3    3    0    0  0.61212747293E+02  0.47719193853E+02 -0.91371450710E+02  0.11988687959E+03  0.00000000000E+00 0.  1.
         13    1    3    3    0    0  0.73170038618E+02 -0.32395645585E+02 -0.43257825171E+02  0.90964673598E+02  0.00000000000E+00 0. -1.
          1    1    1    2  501    0  0.15341779524E+03  0.13317570718E+02 -0.25536616907E+03  0.29820506014E+03  0.00000000000E+00 0. -1.
<scales pt_clust_5="13000.00000" pt_clust_6="13000.00000" pt_clust_7="13000.00000" pt_clust_8="13000.00000" pt_clust_9="153.99481"></scales>
<clustering>
<clus scale="   81.152">  5  6 -1 -1</clus>
<clus scale="   89.665">  7  8 -1 -1</clus>
<clus scale="  153.995">  1  9  2 -1</clus>
<clus scale="  179.103">  1  5  2 -1</clus>
<clus scale="  153.995">  1  5  2 -1</clus>
</clustering>
</event>
<event>
 9    2  0.3745229E-005  0.1425476E+03  0.7546771E-02  0.1212738E+00
         -1   -1    0    0    0  501 -0.00000000000E+00  0.00000000000E+00  0.66661942463E+03  0.66661942463E+03  0.00000000000E+00 0.  1.
         21   -1    0    0  501  502  0.00000000000E+00 -0.00000000000E+00 -0.65685558998E+02  0.65685558998E+02  0.00000000000E+00 0.  1.
         24    2    1    2    0    0 -0.96456544707E+02  0.91228207054E+02  0.48762938243E+03  0.51145185398E+03  0.78575654967E+02 0.  0.
         23    2    1    2    0    0  0.30543399874E+02 -0.48271878123E+02  0.83506839728E+02  0.13672413100E+03  0.91962069474E+02 0.  0.
        -11    1    3    3    0    0 -0.10431702602E+03  0.97332333183E+02  0.47033465637E+03  0.49149803049E+03  0.00000000000E+00 0.  1.
         12    1    3    3    0    0  0.78604813087E+01 -0.61041261284E+01  0.17294726062E+02  0.19953823487E+02  0.00000000000E+00 0. -1.
        -11    1    4    4    0    0  0.37873030266E+01 -0.19702395391E+02 -0.18608296975E+02  0.27364151086E+02  0.00000000000E+00 0.  1.
         11    1    4    4    0    0  0.26756096847E+02 -0.28569482732E+02  0.10211513670E+03  0.10935997991E+03  0.00000000000E+00 0. -1.
         -2    1    1    2    0  502  0.65913144833E+02 -0.42956328931E+02  0.29797643475E+02  0.84128998649E+02  0.00000000000E+00 0.  1.
<scales pt_clust_5="13000.00000" pt_clust_6="13000.00000" pt_clust_7="13000.00000" pt_clust_8="13000.00000" pt_clust_9="78.67521"></scales>
<clustering>
<clus scale="   78.576">  5  6 -1 -1</clus>
<clus scale="   78.675">  2  9  1 -1</clus>
<clus scale="   91.962">  7  8 -1 -1</clus>
<clus scale="  134.302">  1  5  2 -1</clus>
<clus scale="   78.675">  2  5  1 -1</clus>
</clustering>
</event>
<event>
 9    2  0.3745229E-005  0.9600140E+02  0.7546771E-02  0.1297393E+00
         21   -1    0    0  501  502  0.00000000000E+00  0.00000000000E+00  0.69050130700E+03  0.69050130700E+03  0.00000000000E+00 0. -1.
          2   -1    0    0  502    0 -0.00000000000E+00 -0.00000000000E+00 -0.18675933184E+02  0.18675933184E+02  0.00000000000E+00 0. -1.
         23    2    1    2    0    0  0.14015912458E+02 -0.55529702015E+01  0.22077783986E+03  0.24082151651E+03  0.94999299790E+02 0.  0.
         24    2    1    2    0    0  0.15700386221E+02  0.22904397663E+02  0.24558838008E+03  0.26003483093E+03  0.80829124125E+02 0.  0.
        -11    1    4    4    0    0  0.12112400444E+01 -0.23821184078E+02  0.26944951185E+02  0.35985362408E+02  0.00000000000E+00 0.  1.
         12    1    4    4    0    0  0.14489146177E+02  0.46725581741E+02  0.21864342890E+03  0.22404946852E+03  0.00000000000E+00 0. -1.
        -11    1    3    3    0    0  0.54239878321E+01 -0.46569105740E+02  0.16190789878E+03  0.16855939292E+03  0.00000000000E+00 0. -1.
         11    1    3    3    0    0  0.85919246255E+01  0.41016135538E+02  0.58869941080E+02  0.72262123592E+02  0.00000000000E+00 0.  1.
          1    1    1    2  501    0 -0.29716298679E+02 -0.17351427461E+02  0.20545915388E+03  0.20832089275E+03  0.00000000000E+00 0. -1.
<scales pt_clust_5="13000.00000" pt_clust_6="13000.00000" pt_clust_7="13000.00000" pt_clust_8="13000.00000" pt_clust_9="34.41120"></scales>
<clustering>
<clus scale="   34.411">  1  9  2 -1</clus>
<clus scale="   80.829">  5  6 -1 -1</clus>
<clus scale="   82.005">  1  5  2 -1</clus>
<clus scale="   94.999">  7  8 -1 -1</clus>
<clus scale="   34.411">  1  5  2 -1</clus>
</clustering>
</event>
<event>
 9    2  0.3745229E-005  0.1095779E+03  0.7546771E-02  0.1264579E+00
         -1   -1    0    0    0  501 -0.00000000000E+00  0.00000000000E+00  0.40252382556E+03  0.40252382556E+03  0.00000000000E+00 0.  1.
         21   -1    0    0  501  502  0.00000000000E+00 -0.00000000000E+00 -0.63844348273E+02  0.63844348273E+02  0.00000000000E+00 0.  1.
         23    2    1    2    0    0 -0.44747620572E+02 -0.32397687620E+02  0.16681727861E+03  0.19124837349E+03  0.75471691447E+02 0.  0.
         24    2    1    2    0    0  0.99245593705E+02  0.19189836729E+02  0.17494581779E+03  0.21895944861E+03  0.84375726766E+02 0.  0.
        -11    1    4    4    0    0  0.10971287713E+03  0.15824594095E+02  0.17591006143E+03  0.20792230015E+03  0.00000000000E+00 0.  1.
         12    1    4    4    0    0 -0.10467283426E+02  0.33652426342E+01 -0.96424363620E+00  0.11037148459E+02  0.00000000000E+00 0. -1.
        -11    1    3    3    0    0  0.99677755762E+01 -0.32031690054E+02  0.96408238460E+02  0.10207807875E+03  0.00000000000E+00 0.  1.
         11    1    3    3    0    0 -0.54715396148E+02 -0.36599756553E+00  0.70409040151E+02  0.89170294745E+02  0.00000000000E+00 0. -1.
         -2    1    1    2    0  502 -0.54497973133E+02  0.13207850891E+02 -0.30836191124E+01  0.56160351741E+02  0.00000000000E+00 0.  1.
<scales pt_clust_5="13000.00000" pt_clust_6="13000.00000" pt_clust_7="13000.00000" pt_clust_8="13000.00000" pt_clust_9="56.07563"></scales>
<clustering>
<clus scale="   56.076">  2  9  1 -1</clus>
<clus scale="   75.472">  7  8 -1 -1</clus>
<clus scale="   84.376">  5  6 -1 -1</clus>
<clus scale="  102.879">  1  7  2 -1</clus>
<clus scale="   56.076">  2  5  1 -1</clus>
</clustering>
</event>
<event>
 9    2  0.3745229E-005  0.9750983E+02  0.7546771E-02  0.1290937E+00
         21   -1    0    0  501  502  0.00000000000E+00  0.00000000000E+00  0.82798916866E+02  0.82798916866E+02  0.00000000000E+00 0. -1.
         -1   -1    0    0    0  501 -0.00000000000E+00 -0.00000000000E+00 -0.26812729895E+03  0.26812729895E+03  0.00000000000E+00 0.  1.
         23    2    1    2    0    0 -0.10320076882E+02  0.19027736640E+02 -0.11433169646E+03  0.14887364615E+03  0.92860470350E+02 0.  0.
         24    2    1    2    0    0  0.42597595983E+02 -0.42207022448E+02  0.18512637440E+02  0.10411873259E+03  0.83078305249E+02 0.  0.
        -11    1    4    4    0    0  0.15745619294E+02  0.22478941862E+02 -0.89820181780E+01  0.28877396086E+02  0.00000000000E+00 0.  1.
         12    1    4    4    0    0  0.26851976690E+02 -0.64685964310E+02  0.27494655618E+02  0.75241336501E+02  0.00000000000E+00 0. -1.
        -11    1    3    3    0    0 -0.47533457449E+02  0.12599939964E+02 -0.93751289268E+02  0.10586544433E+03  0.00000000000E+00 0. -1.
         11    1    3    3    0    0  0.37213380567E+02  0.64277966755E+01 -0.20580407193E+02  0.43008201817E+02  0.00000000000E+00 0.  1.
         -2    1    1    2    0  502 -0.32277519101E+02  0.23179285809E+02 -0.89509323059E+02  0.97933837076E+02  0.00000000000E+00 0.  1.
<scales pt_clust_5="13000.00000" pt_clust_6="13000.00000" pt_clust_7="13000.00000" pt_clust_8="13000.00000" pt_clust_9="39.73813"></scales>
<clustering>
<clus scale="   39.738">  1  9  2 -1</clus>
<clus scale="   83.078">  5  6 -1 -1</clus>
<clus scale="   88.245">  1  5  2 -1</clus>
<clus scale="   92.860">  7  8 -1 -1</clus>
<clus scale="   39.738">  1  5  2 -1</clus>
</clustering>
</event>
<event>
 9    2  0.3745229E-005  0.1072269E+03  0.7546771E-02  0.1276633E+00
         21   -1    0    0  501  502  0.00000000000E+00  0.00000000000E+00  0.33786552233E+03  0.33786552233E+03  0.00000000000E+00 0.  1.
          2   -1    0    0  502    0 -0.00000000000E+00 -0.00000000000E+00 -0.42957251562E+02  0.42957251562E+02  0.00000000000E+00 0. -1.
         23    2    1    2    0    0  0.38879456647E+01 -0.15273644359E+02  0.42933001504E+02  0.97514765080E+02  0.86124830664E+02 0.  0.
         24    2    1    2    0    0  0.11325658199E+02  0.16520927244E+01  0.22723686270E+03  0.25123014774E+03  0.10653166394E+03 0.  0.
        -13    1    4    4    0    0  0.55860202517E+02  0.19142455693E+02  0.11694755027E+03  0.13100963838E+03  0.00000000000E+00 0.  1.
         14    1    4    4    0    0 -0.44534544317E+02 -0.17490362968E+02  0.11028931243E+03  0.12022050936E+03  0.00000000000E+00 0. -1.
        -11    1    3    3    0    0 -0.48637070191E+01  0.29774867120E+02  0.41875827271E+02  0.51611852008E+02  0.00000000000E+00 0.  1.
         11    1    3    3    0    0  0.87516526838E+01 -0.45048511479E+02  0.10571742331E+01  0.45902913072E+02  0.00000000000E+00 0. -1.
          1    1    1    2  501    0 -0.15213603864E+02  0.13621551634E+02  0.24738406561E+02  0.32077861067E+02  0.00000000000E+00 0. -1.
<scales pt_clust_5="13000.00000" pt_clust_6="13000.00000" pt_clust_7="13000.00000" pt_clust_8="13000.00000" pt_clust_9="20.42060"></scales>
<clustering>
<clus scale="   20.421">  1  9  2 -1</clus>
<clus scale="   86.125">  7  8 -1 -1</clus>
<clus scale="   86.983">  2  7  1 -1</clus>
<clus scale="  106.532">  5  6 -1 -1</clus>
<clus scale="   20.421">  1  5  2 -1</clus>
</clustering>
</event>
<event>
 9    2  0.3745229E-005  0.1434778E+03  0.7546771E-02  0.1219501E+00
         -3   -1    0    0    0  501 -0.00000000000E+00  0.00000000000E+00  0.18678061576E+03  0.18678061576E+03  0.00000000000E+00 0.  1.
         21   -1    0    0  501  502  0.00000000000E+00 -0.00000000000E+00 -0.19237860401E+03  0.19237860401E+03  0.00000000000E+00 0.  1.
         24    2    1    2    0    0  0.29247227223E+02 -0.39116768844E+02  0.84003202111E+01  0.11447475372E+03  0.10319099745E+03 0.  0.
         23    2    1    2    0    0  0.97161340313E+02  0.16989325566E+02  0.19217281473E+02  0.13212495071E+03  0.85783072094E+02 0.  0.
        -13    1    3    3    0    0 -0.13040469866E+02 -0.63826843082E+02  0.32429309067E+01  0.65226040451E+02  0.00000000000E+00 0.  1.
         14    1    3    3    0    0  0.42287697089E+02  0.24710074238E+02  0.51573893044E+01  0.49248713266E+02  0.00000000000E+00 0. -1.
        -13    1    4    4    0    0  0.54644236405E+02  0.29315336947E+02  0.48776284336E+02  0.78895547823E+02  0.00000000000E+00 0.  1.
         13    1    4    4    0    0  0.42517103908E+02 -0.12326011381E+02 -0.29559002863E+02  0.53229402886E+02  0.00000000000E+00 0. -1.
         -4    1    1    2    0  502 -0.12640856754E+03  0.22127443278E+02 -0.33215589932E+02  0.13255951534E+03  0.00000000000E+00 0.  1.
<scales pt_clust_5="13000.00000" pt_clust_6="13000.00000" pt_clust_7="13000.00000" pt_clust_8="13000.00000" pt_clust_9="115.00927"></scales>
<clustering>
<clus scale="   85.783">  7  8 -1 -1</clus>
<clus scale="  103.191">  5  6 -1 -1</clus>
<clus scale="  114.166">  1  5  2 -1</clus>
<clus scale="  115.009">  2  9  1 -1</clus>
<clus scale="  115.009">  2  5  1 -1</clus>
</clustering>
</event>
<event>
 9    2  0.3745229E-005  0.2680028E+03  0.7546771E-02  0.1102428E+00
          2   -1    0    0  502    0 -0.00000000000E+00  0.00000000000E+00  0.94494279947E+03  0.94494279947E+03  0.00000000000E+00 0. -1.
         21   -1    0    0  501  502  0.00000000000E+00 -0.00000000000E+00 -0.55964363958E+02  0.55964363958E+02  0.00000000000E+00 0. -1.
         24    2    1    2    0    0 -0.74832415453E+02 -0.10834772976E+03  0.33182501303E+03  0.36589193052E+03  0.80186935346E+02 0.  0.
         23    2    1    2    0    0  0.17186802694E+02 -0.72722727396E+02  0.23248304154E+03  0.25882328272E+03  0.85773806065E+02 0.  0.
        -11    1    3    3    0    0 -0.33070877345E+02  0.49281414486E+01  0.73446130700E+02  0.80698845229E+02  0.00000000000E+00 0.  1.
         12    1    3    3    0    0 -0.41761538108E+02 -0.11327587121E+03  0.25837888233E+03  0.28519308530E+03  0.00000000000E+00 0. -1.
        -11    1    4    4    0    0  0.29402573705E+02 -0.35777495593E+02  0.20744590678E+03  0.21255198134E+03  0.00000000000E+00 0.  1.
         11    1    4    4    0    0 -0.12215771011E+02 -0.36945231804E+02  0.25037134762E+02  0.46271301381E+02  0.00000000000E+00 0. -1.
          1    1    1    2  501    0  0.57645612759E+02  0.18107045716E+03  0.32467038094E+03  0.37619195018E+03  0.00000000000E+00 0. -1.
<scales pt_clust_5="13000.00000" pt_clust_6="13000.00000" pt_clust_7="13000.00000" pt_clust_8="13000.00000" pt_clust_9="190.02507"></scales>
<clustering>
<clus scale="   80.187">  5  6 -1 -1</clus>
<clus scale="   85.774">  7  8 -1 -1</clus>
<clus scale="  105.117">  5  7 -1 -1</clus>
<clus scale="  190.025">  2  9  1 -1</clus>
<clus scale="  190.025">  2  5  1 -1</clus>
</clustering>
</event>
<event>
 9    2  0.3745229E-005  0.9560085E+02  0.7546771E-02  0.1297645E+00
          2   -1    0    0  502    0 -0.00000000000E+00  0.00000000000E+00  0.14520955077E+03  0.14520955077E+03  0.00000000000E+00 0. -1.
         21   -1    0    0  501  502  0.00000000000E+00 -0.00000000000E+00 -0.16270971610E+03  0.16270971610E+03  0.00000000000E+00 0.  1.
         23    2    1    2    0    0 -0.17921623303E+02  0.78778918473E+00  0.10180070903E+03  0.13918178110E+03  0.93200743760E+02 0.  0.
         24    2    1    2    0    0  0.41663001424E+02  0.13804943739E+02 -0.96517761425E+02  0.13274205377E+03  0.79864838384E+02 0.  0.
        -11    1    4    4    0    0  0.41579741030E+02 -0.70985278616E+01 -0.10263237472E+03  0.11096246349E+03  0.00000000000E+00 0.  1.
         12    1    4    4    0    0  0.83260394418E-01  0.20903471600E+02  0.61146132976E+01  0.21779590286E+02  0.00000000000E+00 0. -1.
        -11    1    3    3    0    0  0.66317106467E+01 -0.32953987258E+02  0.52803201395E+01  0.34026851795E+02  0.00000000000E+00 0.  1.
         11    1    3    3    0    0 -0.24553333949E+02  0.33741776443E+02  0.96520388888E+02  0.10515492930E+03  0.00000000000E+00 0. -1.
          1    1    1    2  501    0 -0.23741378122E+02 -0.14592732924E+02 -0.22783112935E+02  0.35995431992E+02  0.00000000000E+00 0. -1.
<scales pt_clust_5="13000.00000" pt_clust_6="13000.00000" pt_clust_7="13000.00000" pt_clust_8="13000.00000" pt_clust_9="27.86756"></scales>
<clustering>
<clus scale="   27.868">  2  9  1 -1</clus>
<clus scale="   79.865">  5  6 -1 -1</clus>
<clus scale="   82.653">  2  5  1 -1</clus>
<clus scale="   93.201">  7  8 -1 -1</clus>
<clus scale="   27.868">  2  5  1 -1</clus>
</clustering>
</event>
<event>
 9    2  0.3745229E-005  0.1066687E+03  0.7546771E-02  0.1270858E+00
          2   -1    0    0  502    0 -0.00000000000E+00  0.00000000000E+00  0.50147582718E+03  0.50147582718E+03  0.00000000000E+00 0. -1.
         21   -1    0    0  501  502  0.00000000000E+00 -0.00000000000E+00 -0.55734642451E+02  0.55734642451E+02  0.00000000000E+00 0. -1.
         23    2    1    2    0    0  0.20452352658E+02 -0.45205133977E+02  0.33904208692E+03  0.35455444402E+03  0.91090692197E+02 0.  0.
         24    2    1    2    0    0 -0.50820925449E+02  0.53730259461E+02  0.12465614620E+03  0.16636024672E+03  0.81650901143E+02 0.  0.
        -13    1    4    4    0    0 -0.29107962322E+02  0.30383879937E+02  0.48159599707E+01  0.42351471061E+02  0.00000000000E+00 0.  1.
         14    1    4    4    0    0 -0.21712963127E+02  0.23346379524E+02  0.11984018623E+03  0.12400877566E+03  0.00000000000E+00 0. -1.
        -11    1    3    3    0    0  0.53610093002E+02 -0.85332402382E+01  0.17870836510E+03  0.18677135224E+03  0.00000000000E+00 0. -1.
         11    1    3    3    0    0 -0.33157740344E+02 -0.36671893739E+02  0.16033372182E+03  0.16778309179E+03  0.00000000000E+00 0.  1.
          1    1    1    2  501    0  0.30368572791E+02 -0.85251254837E+01 -0.17957048396E+02  0.36295778887E+02  0.00000000000E+00 0. -1.
<scales pt_clust_5="13000.00000" pt_clust_6="13000.00000" pt_clust_7="13000.00000" pt_clust_8="13000.00000" pt_clust_9="31.54248"></scales>
<clustering>
<clus scale="   31.542">  2  9  1 -1</clus>
<clus scale="   81.651">  5  6 -1 -1</clus>
<clus scale="   91.091">  7  8 -1 -1</clus>
<clus scale="   98.730">  2  5  1 -1</clus>
<clus scale="   31.542">  2  5  1 -1</clus>
</clustering>
</event>
<event>
 9    2  0.3745229E-005  0.1080590E+03  0.7546771E-02  0.1270201E+00
         -3   -1    0    0    0  501 -0.00000000000E+00  0.00000000000E+00  0.14003538272E+04  0.14003538272E+04  0.00000000000E+00 0.  1.
         21   -1    0    0  501  502  0.00000000000E+00 -0.00000000000E+00 -0.15556324570E+02  0.15556324570E+02  0.00000000000E+00 0. -1.
         23    2    1    2    0    0 -0.42133434869E+02  0.59177757451E+02  0.62946737726E+03  0.64076081587E+03  0.95226103566E+02 0.  0.
         24    2    1    2    0    0  0.46499018422E+02  0.14373216810E+02  0.32587301296E+03  0.33941751983E+03  0.81500209334E+02 0.  0.
        -13    1    4    4    0    0  0.23274842277E+02 -0.33906978503E+02  0.15317680610E+03  0.15860181399E+03  0.00000000000E+00 0.  1.
         14    1    4    4    0    0  0.23224176145E+02  0.48280195313E+02  0.17269620686E+03  0.18081570585E+03  0.00000000000E+00 0. -1.
        -13    1    3    3    0    0  0.24216485901E+02  0.46077720985E+02  0.28594166302E+03  0.29064106594E+03  0.00000000000E+00 0.  1.
         13    1    3    3    0    0 -0.66349920770E+02  0.13100036466E+02  0.34352571425E+03  0.35011974993E+03  0.00000000000E+00 0. -1.
         -4    1    1    2    0  502 -0.43655835532E+01 -0.73550974261E+02  0.42945711240E+03  0.43573181606E+03  0.00000000000E+00 0.  1.
<scales pt_clust_5="13000.00000" pt_clust_6="13000.00000" pt_clust_7="13000.00000" pt_clust_8="13000.00000" pt_clust_9="73.68046"></scales>
<clustering>
<clus scale="   73.680">  2  9  1 -1</clus>
<clus scale="   81.500">  5  6 -1 -1</clus>
<clus scale="   95.226">  7  8 -1 -1</clus>
<clus scale="   96.182">  2  5  1 -1</clus>
<clus scale="   73.680">  2  5  1 -1</clus>
</clustering>
</event>
<event>
 9    2  0.3745229E-005  0.8782110E+02  0.7546771E-02  0.1314664E+00
         21   -1    0    0  501  502  0.00000000000E+00  0.00000000000E+00  0.33673414326E+02  0.33673414326E+02  0.00000000000E+00 0.  1.
         -1   -1    0    0    0  501 -0.00000000000E+00 -0.00000000000E+00 -0.48268956850E+03  0.48268956850E+03  0.00000000000E+00 0.  1.
         23    2    1    2    0    0 -0.42116371344E+02 -0.91039293446E+01 -0.34407998861E+03  0.35373810120E+03  0.69878003768E+02 0.  0.
         24    2    1    2    0    0  0.10895811111E+02 -0.10268399592E+02 -0.93105864652E+02  0.12402479705E+03  0.80556126532E+02 0.  0.
        -13    1    4    4    0    0 -0.14656902645E+02 -0.35323624309E+02 -0.74377023976E+02  0.83633276421E+02  0.00000000000E+00 0.  1.
         14    1    4    4    0    0  0.25552713756E+02  0.25055224718E+02 -0.18728840676E+02  0.40391520633E+02  0.00000000000E+00 0. -1.
        -13    1    3    3    0    0  0.10367353962E+02  0.19673707282E+02 -0.94097760608E+02  0.96689840924E+02  0.00000000000E+00 0. -1.
         13    1    3    3    0    0 -0.52483725306E+02 -0.28777636626E+02 -0.24998222800E+03  0.25704826027E+03  0.00000000000E+00 0.  1.
         -2    1    1    2    0  502  0.31220560233E+02  0.19372328936E+02 -0.11830300914E+02  0.38600084578E+02  0.00000000000E+00 0.  1.
<scales pt_clust_5="13000.00000" pt_clust_6="13000.00000" pt_clust_7="13000.00000" pt_clust_8="13000.00000" pt_clust_9="36.74249"></scales>
<clustering>
<clus scale="   36.742">  1  9  2 -1</clus>
<clus scale="   69.878">  7  8 -1 -1</clus>
<clus scale="   78.142">  2  7  1 -1</clus>
<clus scale="   80.556">  5  6 -1 -1</clus>
<clus scale="   36.742">  1  5  2 -1</clus>
</clustering>
</event>
<event>
 9    2  0.3745229E-005  0.1246305E+03  0.7546771E-02  0.1238637E+00
         -1   -1    0    0    0  501 -0.00000000000E+00  0.00000000000E+00  0.27348248688E+03  0.27348248688E+03  0.00000000000E+00 0.  1.
         21   -1    0    0  501  502  0.00000000000E+00 -0.00000000000E+00 -0.11726491454E+03  0.11726491454E+03  0.00000000000E+00 0. -1.
         23    2    1    2    0    0  0.39963967267E+02 -0.90094351045E+02  0.17056626613E+03  0.21686793399E+03  0.90690346129E+02 0.  0.
         24    2    1    2    0    0  0.14368635791E+02  0.68195446642E+02  0.16673389672E+02  0.10759248959E+03  0.80256247453E+02 0.  0.
        -11    1    4    4    0    0 -0.20916965441E+02  0.58298766257E+02 -0.93584004252E+01  0.62640603836E+02  0.00000000000E+00 0.  1.
         12    1    4    4    0    0  0.35285601233E+02  0.98966803851E+01  0.26031790097E+02  0.44951885752E+02  0.00000000000E+00 0. -1.
        -13    1    3    3    0    0  0.48439587663E+02 -0.60055753457E+01  0.52683433906E+02  0.71819250876E+02  0.00000000000E+00 0. -1.
         13    1    3    3    0    0 -0.84756203956E+01 -0.84088775700E+02  0.11788283222E+03  0.14504868311E+03  0.00000000000E+00 0.  1.
         -2    1    1    2    0  502 -0.54332603059E+02  0.21898904403E+02 -0.31022083462E+02  0.66286977843E+02  0.00000000000E+00 0.  1.
<scales pt_clust_5="13000.00000" pt_clust_6="13000.00000" pt_clust_7="13000.00000" pt_clust_8="13000.00000" pt_clust_9="58.57981"></scales>
<clustering>
<clus scale="   58.580">  2  9  1 -1</clus>
<clus scale="   80.256">  5  6 -1 -1</clus>
<clus scale="   90.690">  7  8 -1 -1</clus>
<clus scale="  117.257">  2  5  1 -1</clus>
<clus scale="   58.580">  2  5  1 -1</clus>
</clustering>
</event>
<event>
 9    2  0.3745229E-005  0.9261418E+02  0.7546771E-02  0.1301762E+00
          2   -1    0    0  502    0 -0.00000000000E+00  0.00000000000E+00  0.27571949553E+02  0.27571949553E+02  0.00000000000E+00 0. -1.
         21   -1    0    0  501  502  0.00000000000E+00 -0.00000000000E+00 -0.62554545553E+03  0.62554545553E+03  0.00000000000E+00 0. -1.
         23    2    1    2    0    0 -0.20510983796E+02 -0.25109806875E+02 -0.12753368524E+03  0.15940255894E+03  0.89961836732E+02 0.  0.
         24    2    1    2    0    0 -0.11537708703E+02 -0.23209134238E+01 -0.41997448672E+03  0.42794013182E+03  0.81336840146E+02 0.  0.
        -11    1    4    4    0    0  0.11065058845E+01  0.21904281081E+02 -0.30818755802E+02  0.37826149608E+02  0.00000000000E+00 0.  1.
         12    1    4    4    0    0 -0.12644214587E+02 -0.24225194505E+02 -0.38915573092E+03  0.39011398221E+03  0.00000000000E+00 0. -1.
        -13    1    3    3    0    0  0.16983015091E+02 -0.26162678423E+02 -0.11605973149E+03  0.12017807544E+03  0.00000000000E+00 0. -1.
         13    1    3    3    0    0 -0.37493998887E+02  0.10528715479E+01 -0.11473953751E+02  0.39224483498E+02  0.00000000000E+00 0.  1.
          1    1    1    2  501    0  0.32048692498E+02  0.27430720299E+02 -0.50465334021E+02  0.65774714327E+02  0.00000000000E+00 0. -1.
<scales pt_clust_5="13000.00000" pt_clust_6="13000.00000" pt_clust_7="13000.00000" pt_clust_8="13000.00000" pt_clust_9="42.18489"></scales>
<clustering>
<clus scale="   42.185">  2  9  1 -1</clus>
<clus scale="   81.337">  5  6 -1 -1</clus>
<clus scale="   84.261">  2  5  1 -1</clus>
<clus scale="   89.962">  7  8 -1 -1</clus>
<clus scale="   42.185">  2  5  1 -1</clus>
</clustering>
</event>
<event>
 9    2  0.3745229E-005  0.3338479E+03  0.7546771E-02  0.1069447E+00
         21   -1    0    0  501  502  0.00000000000E+00  0.00000000000E+00  0.37703232834E+03  0.37703232834E+03  0.00000000000E+00 0. -1.
          2   -1    0    0  502    0 -0.00000000000E+00 -0.00000000000E+00 -0.26145572942E+03  0.26145572942E+03  0.00000000000E+00 0. -1.
         24    2    1    2    0    0 -0.37390337841E+02  0.17247535357E+03 -0.12275158078E+02  0.19433234566E+03  0.80427583012E+02 0.  0.
         23    2    1    2    0    0  0.11291050853E+02  0.10417148717E+03  0.32835493142E+01  0.13963660656E+03  0.92241062588E+02 0.  0.
        -11    1    3    3    0    0 -0.14706616304E+02  0.78989277315E+02  0.34408592008E+02  0.87404471841E+02  0.00000000000E+00 0.  1.
         12    1    3    3    0    0 -0.22683721538E+02  0.93486076256E+02 -0.46683750086E+02  0.10692787381E+03  0.00000000000E+00 0. -1.
        -11    1    4    4    0    0  0.39151132370E+02  0.12179999508E+02  0.13038383555E+02  0.43025143807E+02  0.00000000000E+00 0.  1.
         11    1    4    4    0    0 -0.27860081518E+02  0.91991487662E+02 -0.97548342408E+01  0.96611462754E+02  0.00000000000E+00 0. -1.
          1    1    1    2  501    0  0.26099286988E+02 -0.27664684074E+03  0.12456820769E+03  0.30451910554E+03  0.00000000000E+00 0. -1.
<scales pt_clust_5="13000.00000" pt_clust_6="13000.00000" pt_clust_7="13000.00000" pt_clust_8="13000.00000" pt_clust_9="277.87524"></scales>
<clustering>
<clus scale="   80.428">  5  6 -1 -1</clus>
<clus scale="   92.241">  7  8 -1 -1</clus>
<clus scale="   98.338">  5  7 -1 -1</clus>
<clus scale="  277.875">  1  9  2 -1</clus>
<clus scale="  277.875">  1  5  2 -1</clus>
</clustering>
</event>
<event>
 9    2  0.3745229E-005  0.1999926E+03  0.7546771E-02  0.1162259E+00
          2   -1    0    0  502    0 -0.00000000000E+00  0.00000000000E+00  0.26059391035E+04  0.26059391035E+04  0.00000000000E+00 0. -1.
         21   -1    0    0  501  502  0.00000000000E+00 -0.00000000000E+00 -0.38256289031E+02  0.38256289031E+02  0.00000000000E+00 0. -1.
         23    2    1    2    0    0 -0.30183018495E+02 -0.11400097707E+03  0.24040786633E+03  0.28291285837E+03  0.91304467907E+02 0.  0.
         24    2    1    2    0    0  0.12961617099E+03 -0.82370882777E+02  0.12013170425E+04  0.12140118319E+04  0.84123582353E+02 0.  0.
        -11    1    4    4    0    0  0.97346815702E+02 -0.36006213983E+02  0.51383976912E+03  0.52421766309E+03  0.00000000000E+00 0.  1.
         12    1    4    4    0    0  0.32269355286E+02 -0.46364668793E+02  0.68747727342E+03  0.68979416877E+03  0.00000000000E+00 0. -1.
        -13    1    3    3    0    0 -0.51615565235E+02 -0.92089449334E+02  0.22515789036E+03  0.24867792191E+03  0.00000000000E+00 0.  1.
         13    1    3    3    0    0  0.21432546739E+02 -0.21911527736E+02  0.15249975968E+02  0.34234936461E+02  0.00000000000E+00 0. -1.
          1    1    1    2  501    0 -0.99433152492E+02  0.19637185985E+03  0.11259579056E+04  0.11472707022E+04  0.00000000000E+00 0. -1.
<scales pt_clust_5="13000.00000" pt_clust_6="13000.00000" pt_clust_7="13000.00000" pt_clust_8="13000.00000" pt_clust_9="181.43948"></scales>
<clustering>
<clus scale="   84.124">  5  6 -1 -1</clus>
<clus scale="   91.304">  7  8 -1 -1</clus>
<clus scale="  149.143">  1  7  2 -1</clus>
<clus scale="  181.439">  2  9  1 -1</clus>
<clus scale="  181.439">  2  5  1 -1</clus>
</clustering>
</event>
<event>
 9    2  0.3745229E-005  0.1003696E+03  0.7546771E-02  0.1289099E+00
         21   -1    0    0  501  502  0.00000000000E+00  0.00000000000E+00  0.69169368229E+02  0.69169368229E+02  0.00000000000E+00 0.  1.
         -1   -1    0    0    0  501 -0.00000000000E+00 -0.00000000000E+00 -0.28440963138E+03  0.28440963138E+03  0.00000000000E+00 0.  1.
         23    2    1    2    0    0  0.99070712568E+01  0.84746605792E+01 -0.15926864898E+03  0.18678820446E+03  0.96712774994E+02 0.  0.
         24    2    1    2    0    0 -0.18602270138E+02 -0.62074670484E+02 -0.42096810035E+02  0.11074547656E+03  0.79329124503E+02 0.  0.
        -13    1    4    4    0    0 -0.26568340863E+02 -0.75484616792E+02 -0.48842399702E+02  0.93751715276E+02  0.00000000000E+00 0.  1.
         14    1    4    4    0    0  0.79660707258E+01  0.13409946308E+02  0.67455896665E+01  0.16993761289E+02  0.00000000000E+00 0. -1.
        -11    1    3    3    0    0  0.15214631725E+02 -0.29416316067E+02 -0.14016269126E+03  0.14402216736E+03  0.00000000000E+00 0.  1.
         11    1    3    3    0    0 -0.53075604680E+01  0.37890976646E+02 -0.19105957716E+02  0.42766037104E+02  0.00000000000E+00 0. -1.
         -2    1    1    2    0  502  0.86951988807E+01  0.53600009905E+02 -0.13874804145E+02  0.56045318586E+02  0.00000000000E+00 0.  1.
<scales pt_clust_5="13000.00000" pt_clust_6="13000.00000" pt_clust_7="13000.00000" pt_clust_8="13000.00000" pt_clust_9="54.30071"></scales>
<clustering>
<clus scale="   54.301">  1  9  2 -1</clus>
<clus scale="   79.329">  5  6 -1 -1</clus>
<clus scale="   83.748">  1  5  2 -1</clus>
<clus scale="   96.713">  7  8 -1 -1</clus>
<clus scale="   54.301">  1  5  2 -1</clus>
</clustering>
</event>
<event>
 9    2  0.3745229E-005  0.1166694E+03  0.7546771E-02  0.1252578E+00
         -3   -1    0    0    0  501 -0.00000000000E+00  0.00000000000E+00  0.22312346749E+03  0.22312346749E+03  0.00000000000E+00 0.  1.
         21   -1    0    0  501  502  0.00000000000E+00 -0.00000000000E+00 -0.16984137941E+03  0.16984137941E+03  0.00000000000E+00 0.  1.
         24    2    1    2    0    0  0.43920099226E+02  0.69523950467E+02  0.15335885089E+03  0.19141772822E+03  0.79744935436E+02 0.  0.
         23    2    1    2    0    0 -0.13260211119E+02 -0.97104083241E+01 -0.97183979545E+02  0.13427114409E+03  0.91180529861E+02 0.  0.
        -13    1    3    3    0    0  0.55416765309E+02  0.44863440339E+02  0.14714331333E+03  0.16350810626E+03  0.00000000000E+00 0.  1.
         14    1    3    3    0    0 -0.11496666083E+02  0.24660510128E+02  0.62155375596E+01  0.27909621960E+02  0.00000000000E+00 0. -1.
        -13    1    4    4    0    0 -0.47504823343E+02  0.15606083622E+02 -0.50055345328E+02  0.70751647915E+02  0.00000000000E+00 0.  1.
         13    1    4    4    0    0  0.34244612224E+02 -0.25316491947E+02 -0.47128634217E+02  0.63519496172E+02  0.00000000000E+00 0. -1.
         -4    1    1    2    0  502 -0.30659888107E+02 -0.59813542143E+02 -0.28927832656E+01  0.67275974593E+02  0.00000000000E+00 0.  1.
<scales pt_clust_5="13000.00000" pt_clust_6="13000.00000" pt_clust_7="13000.00000" pt_clust_8="13000.00000" pt_clust_9="67.21375"></scales>
<clustering>
<clus scale="   67.214">  2  9  1 -1</clus>
<clus scale="   79.745">  5  6 -1 -1</clus>
<clus scale="   91.181">  7  8 -1 -1</clus>
<clus scale="  107.968">  1  5  2 -1</clus>
<clus scale="   67.214">  2  5  1 -1</clus>
</clustering>
</event>
<event>
 9    2  0.3745229E-005  0.1144088E+03  0.7546771E-02  0.1252758E+00
          2   -1    0    0  502    0 -0.00000000000E+00  0.00000000000E+00  0.91265099269E+03  0.91265099269E+03  0.00000000000E+00 0. -1.
         21   -1    0    0  501  502  0.00000000000E+00 -0.00000000000E+00 -0.25903317440E+02  0.25903317440E+02  0.00000000000E+00 0.  1.
         24    2    1    2    0    0  0.44583098975E+02  0.54187673750E+02  0.60340357682E+03  0.61414440946E+03  0.90296857373E+02 0.  0.
         23    2    1    2    0    0 -0.63788901850E+02 -0.34369962637E+02  0.26969832173E+03  0.29362334907E+03  0.90703737747E+02 0.  0.
        -13    1    3    3    0    0  0.13741932302E+02  0.28298183216E+02  0.48672442556E+02  0.57953727586E+02  0.00000000000E+00 0.  1.
         14    1    3    3    0    0  0.30841166673E+02  0.25889490534E+02  0.55473113427E+03  0.55619068188E+03  0.00000000000E+00 0. -1.
        -13    1    4    4    0    0  0.27800791822E+01 -0.45804593426E+02  0.79574116670E+02  0.91857659795E+02  0.00000000000E+00 0. -1.
         13    1    4    4    0    0 -0.66568981032E+02  0.11434630788E+02  0.19012420506E+03  0.20176568927E+03  0.00000000000E+00 0.  1.
          1    1    1    2  501    0  0.19205802876E+02 -0.19817711113E+02  0.13645776696E+02  0.30786551601E+02  0.00000000000E+00 0. -1.
<scales pt_clust_5="13000.00000" pt_clust_6="13000.00000" pt_clust_7="13000.00000" pt_clust_8="13000.00000" pt_clust_9="27.59718"></scales>
<clustering>
<clus scale="   27.597">  2  9  1 -1</clus>
<clus scale="   90.297">  5  6 -1 -1</clus>
<clus scale="   90.704">  7  8 -1 -1</clus>
<clus scale="  114.087">  1  5  2 -1</clus>
<clus scale="   27.597">  2  5  1 -1</clus>
</clustering>
</event>
<event>
 9    2  0.3745229E-005  0.1514158E+03  0.7546771E-02  0.1215466E+00
          2   -1    0    0  502    0 -0.00000000000E+00  0.00000000000E+00  0.57270687366E+03  0.57270687366E+03  0.00000000000E+00 0. -1.
         21   -1    0    0  501  502  0.00000000000E+00 -0.00000000000E+00 -0.89268573899E+02  0.89268573899E+02  0.00000000000E+00 0.  1.
         23    2    1    2    0    0  0.12555644431E+02  0.52561962046E+02  0.29850920093E+03  0.31669100021E+03  0.90912279244E+02 0.  0.
         24    2    1    2    0    0 -0.11264957992E+03 -0.99458305478E+02  0.60514264072E+02  0.17885994777E+03  0.75809118033E+02 0.  0.
        -11    1    4    4    0    0 -0.10345349964E+03 -0.10052883529E+03  0.30488003544E+02  0.14743877262E+03  0.00000000000E+00 0.  1.
         12    1    4    4    0    0 -0.91960802757E+01  0.10705298096E+01  0.30026260528E+02  0.31421175150E+02  0.00000000000E+00 0. -1.
        -13    1    3    3    0    0  0.12350360322E+01 -0.23564211258E+02  0.35300332275E+02  0.42460697415E+02  0.00000000000E+00 0.  1.
         13    1    3    3    0    0  0.11320608398E+02  0.76126173304E+02  0.26320886865E+03  0.27423030280E+03  0.00000000000E+00 0. -1.
          1    1    1    2  501    0  0.10009393549E+03  0.46896343433E+02  0.12441483477E+03  0.16642449957E+03  0.00000000000E+00 0. -1.
<scales pt_clust_5="13000.00000" pt_clust_6="13000.00000" pt_clust_7="13000.00000" pt_clust_8="13000.00000" pt_clust_9="131.07154"></scales>
<clustering>
<clus scale="   75.809">  5  6 -1 -1</clus>
<clus scale="   90.912">  7  8 -1 -1</clus>
<clus scale="  105.761">  1  7  2 -1</clus>
<clus scale="  131.072">  2  9  1 -1</clus>
<clus scale="  131.072">  2  5  1 -1</clus>
</clustering>
</event>
<event>
 9    2  0.3745229E-005  0.9774215E+02  0.7546771E-02  0.1291176E+00
          2   -1    0    0  502    0 -0.00000000000E+00  0.00000000000E+00  0.76572020707E+03  0.76572020707E+03  0.00000000000E+00 0. -1.
         21   -1    0    0  501  502  0.00000000000E+00 -0.00000000000E+00 -0.19564811186E+02  0.19564811186E+02  0.00000000000E+00 0. -1.
         24    2    1    2    0    0 -0.54898909361E+02  0.86329792636E+01  0.27491351720E+03  0.29124719393E+03  0.78479726371E+02 0.  0.
         23    2    1    2    0    0  0.18305494436E+02  0.15724426393E+02  0.21920489013E+03  0.23819606694E+03  0.90023517681E+02 0.  0.
        -11    1    3    3    0    0 -0.59140429036E+02 -0.23578393605E+02  0.18034834631E+03  0.19125652148E+03  0.00000000000E+00 0.  1.
         12    1    3    3    0    0  0.42415196745E+01  0.32211372868E+02  0.94565170891E+02  0.99990672449E+02  0.00000000000E+00 0. -1.
        -13    1    4    4    0    0  0.37265491932E+02  0.40469110019E+02  0.17935023287E+03  0.18759789920E+03  0.00000000000E+00 0.  1.
         13    1    4    4    0    0 -0.18959997496E+02 -0.24744683626E+02  0.39854657257E+02  0.50598167732E+02  0.00000000000E+00 0. -1.
          1    1    1    2  501    0  0.36593414925E+02 -0.24357405656E+02  0.25203698855E+03  0.25584175739E+03  0.00000000000E+00 0. -1.
<scales pt_clust_5="13000.00000" pt_clust_6="13000.00000" pt_clust_7="13000.00000" pt_clust_8="13000.00000" pt_clust_9="43.95865"></scales>
<clustering>
<clus scale="   43.959">  2  9  1 -1</clus>
<clus scale="   78.480">  5  6 -1 -1</clus>
<clus scale="   87.226">  1  5  2 -1</clus>
<clus scale="   90.024">  7  8 -1 -1</clus>
<clus scale="   43.959">  2  5  1 -1</clus>
</clustering>
</event>
<event>
 9    2  0.3745229E-005  0.1472697E+03  0.7546771E-02  0.1204771E+00
         21   -1    0    0  501  502  0.00000000000E+00  0.00000000000E+00  0.44136563377E+02  0.44136563377E+02  0.00000000000E+00 0. -1.
          2   -1    0    0  502    0 -0.00000000000E+00 -0.00000000000E+00 -0.83448750579E+03  0.83448750579E+03  0.00000000000E+00 0. -1.
         24    2    1    2    0    0 -0.72247638964E+02 -0.87403767749E+02 -0.49688216889E+03  0.51604750549E+03  0.80956767509E+02 0.  0.
         23    2    1    2    0    0  0.11837971126E+03  0.76401134611E+02 -0.23772441300E+03  0.28938735846E+03  0.85914243842E+02 0.  0.
        -13    1    3    3    0    0 -0.38785110087E+02 -0.11160788695E+02 -0.67326050065E+02  0.78496146314E+02  0.00000000000E+00 0.  1.
         14    1    3    3    0    0 -0.33462528877E+02 -0.76242979054E+02 -0.42955611883E+03  0.43755135917E+03  0.00000000000E+00 0. -1.
        -11    1    4    4    0    0  0.15732555633E+02  0.57960247191E+02 -0.74549043275E+02  0.95731203974E+02  0.00000000000E+00 0.  1.
         11    1    4    4    0    0  0.10264715562E+03  0.18440887420E+02 -0.16317536973E+03  0.19365615449E+03  0.00000000000E+00 0. -1.
          1    1    1    2  501    0 -0.46132072294E+02  0.11002633138E+02 -0.55744360517E+02  0.73189205212E+02  0.00000000000E+00 0. -1.
<scales pt_clust_5="13000.00000" pt_clust_6="13000.00000" pt_clust_7="13000.00000" pt_clust_8="13000.00000" pt_clust_9="47.42601"></scales>
<clustering>
<clus scale="   47.426">  1  9  2 -1</clus>
<clus scale="   80.957">  5  6 -1 -1</clus>
<clus scale="   85.914">  7  8 -1 -1</clus>
<clus scale="  144.434">  2  5  1 -1</clus>
<clus scale="   47.426">  1  5  2 -1</clus>
</clustering>
</event>
<event>
 9    2  0.3745229E-005  0.9875536E+02  0.7546771E-02  0.1289209E+00
          2   -1    0    0  502    0 -0.00000000000E+00  0.00000000000E+00  0.79617108549E+03  0.79617108549E+03  0.00000000000E+00 0. -1.
         21   -1    0    0  501  502  0.00000000000E+00 -0.00000000000E+00 -0.40145601552E+02  0.40145601552E+02  0.00000000000E+00 0.  1.
         24    2    1    2    0    0  0.30982079320E+01  0.36014391112E+02  0.69205216992E+03  0.69768193541E+03  0.80729436060E+02 0.  0.
         23    2    1    2    0    0  0.89836392112E+01 -0.19818858068E+02  0.69377407194E+02  0.11771895510E+03  0.92579883633E+02 0.  0.
        -13    1    3    3    0    0  0.13616777555E+02  0.49773398597E+02  0.24897026613E+03  0.25426167870E+03  0.00000000000E+00 0.  1.
         14    1    3    3    0    0 -0.10518569623E+02 -0.13759007484E+02  0.44308190379E+03  0.44342025671E+03  0.00000000000E+00 0. -1.
        -13    1    4    4    0    0 -0.38727124200E+02 -0.22241388641E+02  0.47429459011E+02  0.65146167190E+02  0.00000000000E+00 0. -1.
         13    1    4    4    0    0  0.47710763411E+02  0.24225305730E+01  0.21947948183E+02  0.52572787915E+02  0.00000000000E+00 0.  1.
          1    1    1    2  501    0 -0.12081847143E+02 -0.16195533045E+02 -0.54040931814E+01  0.20915796521E+02  0.00000000000E+00 0. -1.
<scales pt_clust_5="13000.00000" pt_clust_6="13000.00000" pt_clust_7="13000.00000" pt_clust_8="13000.00000" pt_clust_9="20.20560"></scales>
<clustering>
<clus scale="   20.206">  2  9  1 -1</clus>
<clus scale="   80.729">  5  6 -1 -1</clus>
<clus scale="   87.743">  1  5  2 -1</clus>
<clus scale="   92.580">  7  8 -1 -1</clus>
<clus scale="   20.206">  2  5  1 -1</clus>
</clustering>
</event>
<event>
 9    2  0.3745229E-005  0.1138666E+03  0.7546771E-02  0.1264186E+00
          2   -1    0    0  502    0 -0.00000000000E+00  0.00000000000E+00  0.11032039849E+03  0.11032039849E+03  0.00000000000E+00 0. -1.
         21   -1    0    0  501  502  0.00000000000E+00 -0.00000000000E+00 -0.21756051741E+03  0.21756051741E+03  0.00000000000E+00 0. -1.
         24    2    1    2    0    0 -0.12718845681E+02  0.41949917779E+02  0.54065042923E+02  0.10732701746E+03  0.81697583648E+02 0.  0.
         23    2    1    2    0    0 -0.14215424672E+02 -0.44545116009E+02 -0.96553232214E+02  0.15037553735E+03  0.10537518648E+03 0.  0.
        -11    1    3    3    0    0  0.13103234292E+02  0.58623935188E+02  0.25137681445E+02  0.65118073945E+02  0.00000000000E+00 0.  1.
         12    1    3    3    0    0 -0.25822079973E+02 -0.16674017410E+02  0.28927361478E+02  0.42208943517E+02  0.00000000000E+00 0. -1.
        -13    1    4    4    0    0  0.20894229463E+02 -0.42502905969E+02  0.27121292179E+00  0.47361792587E+02  0.00000000000E+00 0.  1.
         13    1    4    4    0    0 -0.35109654134E+02 -0.20422100400E+01 -0.96824445136E+02  0.10301374477E+03  0.00000000000E+00 0. -1.
          1    1    1    2  501    0  0.26934270353E+02  0.25951982297E+01 -0.64751929631E+02  0.70178361082E+02  0.00000000000E+00 0. -1.
<scales pt_clust_5="13000.00000" pt_clust_6="13000.00000" pt_clust_7="13000.00000" pt_clust_8="13000.00000" pt_clust_9="27.05901"></scales>
<clustering>
<clus scale="   27.059">  2  9  1 -1</clus>
<clus scale="   81.698">  5  6 -1 -1</clus>
<clus scale="   92.391">  1  5  2 -1</clus>
<clus scale="  105.375">  7  8 -1 -1</clus>
<clus scale="   27.059">  2  5  1 -1</clus>
</clustering>
</event>
<event>
 9    2  0.3745229E-005  0.1024927E+03  0.7546771E-02  0.1280387E+00
         -3   -1    0    0    0  501 -0.00000000000E+00  0.00000000000E+00  0.90065079001E+02  0.90065079001E+02  0.00000000000E+00 0.  1.
         21   -1    0    0  501  502  0.00000000000E+00 -0.00000000000E+00 -0.35214901899E+03  0.35214901899E+03  0.00000000000E+00 0.  1.
         23    2    1    2    0    0  0.47439809432E+02 -0.17355649576E+02  0.36103725463E+02  0.11068316001E+03  0.91627118406E+02 0.  0.
         24    2    1    2    0    0 -0.35991482162E+01  0.27189646232E+02 -0.25648275944E+03  0.27022832586E+03  0.80546331269E+02 0.  0.
        -11    1    4    4    0    0 -0.13057830069E+02  0.42286748160E+02 -0.24515232262E+03  0.24911510850E+03  0.00000000000E+00 0.  1.
         12    1    4    4    0    0  0.94586818526E+01 -0.15097101929E+02 -0.11330436815E+02  0.21113217364E+02  0.00000000000E+00 0. -1.
        -13    1    3    3    0    0  0.39141589130E+02  0.34453589153E+02  0.18918899844E+02  0.55471060712E+02  0.00000000000E+00 0. -1.
         13    1    3    3    0    0  0.82982203014E+01 -0.51809238729E+02  0.17184825618E+02  0.55212099303E+02  0.00000000000E+00 0.  1.
         -4    1    1    2    0  502 -0.43840661215E+02 -0.98339966556E+01 -0.41704906013E+02  0.61302612111E+02  0.00000000000E+00 0.  1.
<scales pt_clust_5="13000.00000" pt_clust_6="13000.00000" pt_clust_7="13000.00000" pt_clust_8="13000.00000" pt_clust_9="44.93007"></scales>
<clustering>
<clus scale="   44.930">  2  9  1 -1</clus>
<clus scale="   80.546">  5  6 -1 -1</clus>
<clus scale="   91.627">  7  8 -1 -1</clus>
<clus scale="   92.720">  2  5  1 -1</clus>
<clus scale="   44.930">  2  5  1 -1</clus>
</clustering>
</event>
<event>
 9    2  0.3745229E-005  0.1429044E+03  0.7546771E-02  0.1220900E+00
         -3   -1    0    0    0  501 -0.00000000000E+00  0.00000000000E+00  0.82296825284E+02  0.82296825284E+02  0.00000000000E+00 0.  1.
         21   -1    0    0  501  502  0.00000000000E+00 -0.00000000000E+00 -0.33837053251E+03  0.33837053251E+03  0.00000000000E+00 0. -1.
         23    2    1    2    0    0  0.70727022795E+02  0.29069571175E+02 -0.15108185416E+02  0.14231600555E+03  0.11907240003E+03 0.  0.
         24    2    1    2    0    0 -0.71917380327E+02 -0.49972548912E+02 -0.20328864929E+03  0.23524800954E+03  0.79661696086E+02 0.  0.
        -13    1    4    4    0    0  0.15639406141E+02 -0.19590300590E+02 -0.33876518357E+02  0.42142489220E+02  0.00000000000E+00 0.  1.
         14    1    4    4    0    0 -0.87556786469E+02 -0.30382248322E+02 -0.16941213094E+03  0.19310552032E+03  0.00000000000E+00 0. -1.
        -13    1    3    3    0    0  0.26133277952E+02  0.35849842479E+01 -0.65346288661E+02  0.70469410174E+02  0.00000000000E+00 0. -1.
         13    1    3    3    0    0  0.44593744843E+02  0.25484586927E+02  0.50238103245E+02  0.71846595379E+02  0.00000000000E+00 0.  1.
         -4    1    1    2    0  502  0.11903575326E+01  0.20902977737E+02 -0.37676872514E+02  0.43103342698E+02  0.00000000000E+00 0.  1.
<scales pt_clust_5="13000.00000" pt_clust_6="13000.00000" pt_clust_7="13000.00000" pt_clust_8="13000.00000" pt_clust_9="20.93684"></scales>
<clustering>
<clus scale="   20.937">  2  9  1 -1</clus>
<clus scale="   79.662">  5  6 -1 -1</clus>
<clus scale="  112.203">  2  5  1 -1</clus>
<clus scale="  119.072">  7  8 -1 -1</clus>
<clus scale="   20.937">  2  5  1 -1</clus>
</clustering>
</event>
<event>
 9    2  0.3745229E-005  0.9700065E+02  0.7546771E-02  0.1291981E+00
         21   -1    0    0  501  502  0.00000000000E+00  0.00000000000E+00  0.14855189736E+02  0.14855189736E+02  0.00000000000E+00 0.  1.
          2   -1    0    0  502    0 -0.00000000000E+00 -0.00000000000E+00 -0.86693029051E+03  0.86693029051E+03  0.00000000000E+00 0. -1.
         24    2    1    2    0    0 -0.15059131353E+02  0.28877296455E+02 -0.48513245607E+03  0.49320976761E+03  0.82714564883E+02 0.  0.
         23    2    1    2    0    0  0.28033604500E+02 -0.89213337826E+01 -0.22993704865E+03  0.24951777238E+03  0.92317924653E+02 0.  0.
        -11    1    3    3    0    0 -0.13119992827E+02 -0.27392322198E+02 -0.12119036086E+03  0.12493829314E+03  0.00000000000E+00 0.  1.
         12    1    3    3    0    0 -0.19391385262E+01  0.56269618653E+02 -0.36394209522E+03  0.36827147448E+03  0.00000000000E+00 0. -1.
        -13    1    4    4    0    0 -0.27530755843E+02  0.19737626580E+02 -0.69095792642E+02  0.76952875067E+02  0.00000000000E+00 0.  1.
         13    1    4    4    0    0  0.55564360342E+02 -0.28658960362E+02 -0.16084125601E+03  0.17256489731E+03  0.00000000000E+00 0. -1.
          1    1    1    2  501    0 -0.12974473147E+02 -0.19955962673E+02 -0.13700559605E+03  0.13905794026E+03  0.00000000000E+00 0. -1.
<scales pt_clust_5="13000.00000" pt_clust_6="13000.00000" pt_clust_7="13000.00000" pt_clust_8="13000.00000" pt_clust_9="23.80290"></scales>
<clustering>
<clus scale="   23.803">  1  9  2 -1</clus>
<clus scale="   82.715">  5  6 -1 -1</clus>
<clus scale="   87.910">  2  5  1 -1</clus>
<clus scale="   92.318">  7  8 -1 -1</clus>
<clus scale="   23.803">  1  5  2 -1</clus>
</clustering>
</event>
<event>
 9    2  0.4134904E-005  0.1422349E+03  0.7546771E-02  0.1217266E+00
         21   -1    0    0  501  502  0.00000000000E+00  0.00000000000E+00  0.82627097617E+03  0.82627097617E+03  0.00000000000E+00 0. -1.
          2   -1    0    0  502    0 -0.00000000000E+00 -0.00000000000E+00 -0.38301178762E+03  0.38301178762E+03  0.00000000000E+00 0. -1.
         24    2    1    2    0    0 -0.88503014972E+02 -0.59496263415E+01 -0.32636436368E+03  0.34779962468E+03  0.81133835933E+02 0.  0.
         23    2    1    2    0    0  0.18378744933E+03 -0.14413857253E+02  0.23358013065E+03  0.31665624484E+03  0.10828626020E+03 0.  0.
        -11    1    3    3    0    0 -0.25338468823E+02  0.25561744478E+02 -0.44514847095E+02  0.57245195387E+02  0.00000000000E+00 0.  1.
         12    1    3    3    0    0 -0.63164546150E+02 -0.31511370820E+02 -0.28184951659E+03  0.29055442929E+03  0.00000000000E+00 0. -1.
        -11    1    4    4    0    0  0.14567225002E+03 -0.56407031557E+01  0.98278399821E+02  0.17581486236E+03  0.00000000000E+00 0. -1.
         11    1    4    4    0    0  0.38115199312E+02 -0.87731540975E+01  0.13530173083E+03  0.14084138247E+03  0.00000000000E+00 0.  1.
          1    1    1    2  501    0 -0.95284434356E+02  0.20363483595E+02  0.53604342159E+03  0.54482689427E+03  0.00000000000E+00 0. -1.
<scales pt_clust_5="13000.00000" pt_clust_6="13000.00000" pt_clust_7="13000.00000" pt_clust_8="13000.00000" pt_clust_9="97.43611"></scales>
<clustering>
<clus scale="   81.134">  5  6 -1 -1</clus>
<clus scale="   97.436">  1  9  2 -1</clus>
<clus scale="  108.286">  7  8 -1 -1</clus>
<clus scale="  122.831">  2  5  1 -1</clus>
<clus scale="   97.436">  1  5  2 -1</clus>
</clustering>
</event>
<event>
 9    2  0.3745229E-005  0.2146546E+03  0.7546771E-02  0.1138802E+00
         -1   -1    0    0    0  501 -0.00000000000E+00  0.00000000000E+00  0.26608978948E+03  0.26608978948E+03  0.00000000000E+00 0.  1.
         21   -1    0    0  501  502  0.00000000000E+00 -0.00000000000E+00 -0.51431354795E+03  0.51431354795E+03  0.00000000000E+00 0.  1.
         24    2    1    2    0    0 -0.18362519231E+03  0.75567758938E+02  0.11444644505E+03  0.24295976351E+03  0.80639695301E+02 0.  0.
         23    2    1    2    0    0  0.15220969508E+03 -0.11193546022E+03 -0.43223251130E+02  0.21440193796E+03  0.91665713519E+02 0.  0.
        -13    1    3    3    0    0 -0.10678612606E+03  0.68510450730E+02  0.10601794119E+03  0.16533832717E+03  0.00000000000E+00 0.  1.
         14    1    3    3    0    0 -0.76839066258E+02  0.70573082082E+01  0.84285038610E+01  0.77621436343E+02  0.00000000000E+00 0. -1.
        -13    1    4    4    0    0  0.11280861405E+03 -0.27592487923E+02 -0.33110780874E+02  0.12076196671E+03  0.00000000000E+00 0. -1.
         13    1    4    4    0    0  0.39401081023E+02 -0.84342972292E+02 -0.10112470256E+02  0.93639971249E+02  0.00000000000E+00 0.  1.
         -2    1    1    2    0  502  0.31415497238E+02  0.36367701277E+02 -0.31944695240E+03  0.32304163595E+03  0.00000000000E+00 0.  1.
<scales pt_clust_5="13000.00000" pt_clust_6="13000.00000" pt_clust_7="13000.00000" pt_clust_8="13000.00000" pt_clust_9="48.05771"></scales>
<clustering>
<clus scale="   48.058">  2  9  1 -1</clus>
<clus scale="   80.640">  5  6 -1 -1</clus>
<clus scale="   91.666">  7  8 -1 -1</clus>
<clus scale="  210.183">  1  5  2 -1</clus>
<clus scale="   48.058">  2  5  1 -1</clus>
</clustering>
</event>
<event>
 9    2  0.3745229E-005  0.9307927E+02  0.7546771E-02  0.1302902E+00
         21   -1    0    0  501  502  0.00000000000E+00  0.00000000000E+00  0.69017031938E+02  0.69017031938E+02  0.00000000000E+00 0.  1.
         -1   -1    0    0    0  501 -0.00000000000E+00 -0.00000000000E+00 -0.42512639438E+03  0.42512639438E+03  0.00000000000E+00 0.  1.
         23    2    1    2    0    0  0.15131110147E+02  0.12496338502E+02 -0.37115834992E+03  0.38274388810E+03  0.91374253430E+02 0.  0.
         24    2    1    2    0    0  0.89394605536E+01 -0.16434558567E+02 -0.21894907200E+01  0.81532046169E+02  0.79326363919E+02 0.  0.
        -11    1    4    4    0    0  0.40881233984E+02  0.49712191729E+01  0.75451594481E+01  0.41867860504E+02  0.00000000000E+00 0.  1.
         12    1    4    4    0    0 -0.31941773430E+02 -0.21405777740E+02 -0.97346501680E+01  0.39664185664E+02  0.00000000000E+00 0. -1.
        -13    1    3    3    0    0 -0.27876752639E+02  0.28162359795E+02 -0.96851747163E+02  0.10464460223E+03  0.00000000000E+00 0.  1.
         13    1    3    3    0    0  0.43007862786E+02 -0.15666021294E+02 -0.27430660276E+03  0.27809928587E+03  0.00000000000E+00 0. -1.
         -2    1    1    2    0  502 -0.24070570701E+02  0.39382200647E+01  0.17238478195E+02  0.29867492054E+02  0.00000000000E+00 0.  1.
<scales pt_clust_5="13000.00000" pt_clust_6="13000.00000" pt_clust_7="13000.00000" pt_clust_8="13000.00000" pt_clust_9="24.39061"></scales>
<clustering>
<clus scale="   24.391">  1  9  2 -1</clus>
<clus scale="   79.326">  5  6 -1 -1</clus>
<clus scale="   81.284">  1  5  2 -1</clus>
<clus scale="   91.374">  7  8 -1 -1</clus>
<clus scale="   24.391">  1  5  2 -1</clus>
</clustering>
</event>
<event>
 9    2  0.3745229E-005  0.1487955E+03  0.7546771E-02  0.1204462E+00
          2   -1    0    0  502    0 -0.00000000000E+00  0.00000000000E+00  0.28535111916E+03  0.28535111916E+03  0.00000000000E+00 0. -1.
         21   -1    0    0  501  502  0.00000000000E+00 -0.00000000000E+00 -0.29624381544E+03  0.29624381544E+03  0.00000000000E+00 0.  1.
         23    2    1    2    0    0 -0.11063879338E+03  0.38444578553E+01  0.12244181888E+03  0.19226215432E+03  0.98574918279E+02 0.  0.
         24    2    1    2    0    0  0.97547207764E+02 -0.14420678148E+03 -0.15428830655E+03  0.24681249092E+03  0.82464965702E+02 0.  0.
        -11    1    4    4    0    0  0.93917406080E+02 -0.97044084724E+02 -0.14583509517E+03  0.19876093311E+03  0.00000000000E+00 0.  1.
         12    1    4    4    0    0  0.36298016842E+01 -0.47162696756E+02 -0.84532113723E+01  0.48051557811E+02  0.00000000000E+00 0. -1.
        -11    1    3    3    0    0 -0.79958204904E+02  0.48308562121E+02  0.67840125795E+02  0.11545264992E+03  0.00000000000E+00 0. -1.
         11    1    3    3    0    0 -0.30680588478E+02 -0.44464104266E+02  0.54601693086E+02  0.76809504395E+02  0.00000000000E+00 0.  1.
          1    1    1    2  501    0  0.13091585619E+02  0.14036232362E+03  0.20953791388E+02  0.14252028937E+03  0.00000000000E+00 0. -1.
<scales pt_clust_5="13000.00000" pt_clust_6="13000.00000" pt_clust_7="13000.00000" pt_clust_8="13000.00000" pt_clust_9="140.97160"></scales>
<clustering>
<clus scale="   82.465">  5  6 -1 -1</clus>
<clus scale="   98.575">  7  8 -1 -1</clus>
<clus scale="  140.972">  2  9  1 -1</clus>
<clus scale="  140.972">  2  5  1 -1</clus>
<clus scale="  140.972">  2  5  1 -1</clus>
</clustering>
</event>
<event>
 9    2  0.3745229E-005  0.1150234E+03  0.7546771E-02  0.1255428E+00
         21   -1    0    0  501  502  0.00000000000E+00  0.00000000000E+00  0.50821857522E+03  0.50821857522E+03  0.00000000000E+00 0.  1.
          2   -1    0    0  502    0 -0.00000000000E+00 -0.00000000000E+00 -0.35917288421E+02  0.35917288421E+02  0.00000000000E+00 0. -1.
         24    2    1    2    0    0 -0.78624948207E+02  0.35759563656E+02  0.15139617846E+03  0.19151958190E+03  0.79361946328E+02 0.  0.
         23    2    1    2    0    0  0.52511654607E+02 -0.86407273093E+01  0.19857756286E+03  0.22462657992E+03  0.90509203405E+02 0.  0.
        -13    1    3    3    0    0 -0.93479518291E+02  0.24430986988E+02  0.11198635446E+03  0.14790617651E+03  0.00000000000E+00 0.  1.
         14    1    3    3    0    0  0.14854570084E+02  0.11328576668E+02  0.39409824004E+02  0.43613405390E+02  0.00000000000E+00 0. -1.
        -11    1    4    4    0    0  0.59771513529E+01 -0.39021319317E+02  0.13265691657E+03  0.13840609529E+03  0.00000000000E+00 0.  1.
         11    1    4    4    0    0  0.46534503254E+02  0.30380592008E+02  0.65920646284E+02  0.86220484633E+02  0.00000000000E+00 0. -1.
          1    1    1    2  501    0  0.26113293600E+02 -0.27118836347E+02  0.12232754549E+03  0.12798970182E+03  0.00000000000E+00 0. -1.
<scales pt_clust_5="13000.00000" pt_clust_6="13000.00000" pt_clust_7="13000.00000" pt_clust_8="13000.00000" pt_clust_9="37.64752"></scales>
<clustering>
<clus scale="   37.648">  1  9  2 -1</clus>
<clus scale="   79.362">  5  6 -1 -1</clus>
<clus scale="   90.509">  7  8 -1 -1</clus>
<clus scale="  106.474">  2  5  1 -1</clus>
<clus scale="   37.648">  1  5  2 -1</clus>
</clustering>
</event>
<event>
 9    2  0.3745229E-005  0.2792045E+03  0.7546771E-02  0.1096124E+00
         21   -1    0    0  501  502  0.00000000000E+00  0.00000000000E+00  0.22428334076E+03  0.22428334076E+03  0.00000000000E+00 0.  1.
         -3   -1    0    0    0  501 -0.00000000000E+00 -0.00000000000E+00 -0.24502931213E+03  0.24502931213E+03  0.00000000000E+00 0.  1.
         24    2    1    2    0    0  0.15987562543E+03 -0.80170460955E+02  0.16580954084E+02  0.19018604848E+03  0.62516290521E+02 0.  0.
         23    2    1    2    0    0  0.64966892452E+01 -0.65291308436E+01 -0.75167483589E+01  0.89165521636E+02  0.88369407727E+02 0.  0.
        -11    1    3    3    0    0  0.65401139492E+02 -0.51301093520E+02  0.34124868188E+02  0.89853313083E+02  0.00000000000E+00 0.  1.
         12    1    3    3    0    0  0.94474485943E+02 -0.28869367435E+02 -0.17543914104E+02  0.10033273540E+03  0.00000000000E+00 0. -1.
        -11    1    4    4    0    0 -0.32420505429E+02 -0.10714558339E+02 -0.28748805269E+02  0.44636137121E+02  0.00000000000E+00 0. -1.
         11    1    4    4    0    0  0.38917194674E+02  0.41854274958E+01  0.21232056910E+02  0.44529384515E+02  0.00000000000E+00 0.  1.
         -4    1    1    2    0  502 -0.16637231468E+03  0.86699591799E+02 -0.29810177098E+02  0.18996108277E+03  0.00000000000E+00 0.  1.
<scales pt_clust_5="13000.00000" pt_clust_6="13000.00000" pt_clust_7="13000.00000" pt_clust_8="13000.00000" pt_clust_9="187.60757"></scales>
<clustering>
<clus scale="   62.516">  5  6 -1 -1</clus>
<clus scale="   88.369">  7  8 -1 -1</clus>
<clus scale="   88.551">  5  7 -1 -1</clus>
<clus scale="  187.608">  1  9  2 -1</clus>
<clus scale="  187.608">  1  5  2 -1</clus>
</clustering>
</event>
<event>
 9    2  0.3745229E-005  0.1089984E+03  0.7546771E-02  0.1275504E+00
          2   -1    0    0  502    0 -0.00000000000E+00  0.00000000000E+00  0.11965716594E+04  0.11965716594E+04  0.00000000000E+00 0. -1.
         21   -1    0    0  501  502  0.00000000000E+00 -0.00000000000E+00 -0.17958782891E+02  0.17958782891E+02  0.00000000000E+00 0.  1.
         24    2    1    2    0    0  0.31380963995E+02 -0.20382377162E+02  0.60260481106E+03  0.60903413906E+03  0.79936337370E+02 0.  0.
         23    2    1    2    0    0  0.32419368427E+02  0.26187418361E+02  0.26948626900E+03  0.29235130069E+03  0.10540226517E+03 0.  0.
        -11    1    3    3    0    0 -0.14301673349E+02 -0.18882909248E+02  0.59984744654E+02  0.64492415938E+02  0.00000000000E+00 0.  1.
         12    1    3    3    0    0  0.45682637344E+02 -0.14994679144E+01  0.54262006640E+03  0.54454172312E+03  0.00000000000E+00 0. -1.
        -11    1    4    4    0    0  0.46425294809E+02  0.58296623573E+02  0.21524742212E+03  0.22778335551E+03  0.00000000000E+00 0.  1.
         11    1    4    4    0    0 -0.14005926382E+02 -0.32109205213E+02  0.54238846887E+02  0.64567945181E+02  0.00000000000E+00 0. -1.
          1    1    1    2  501    0 -0.63800332422E+02 -0.58050411983E+01  0.30652179648E+03  0.31314500257E+03  0.00000000000E+00 0. -1.
<scales pt_clust_5="13000.00000" pt_clust_6="13000.00000" pt_clust_7="13000.00000" pt_clust_8="13000.00000" pt_clust_9="64.06391"></scales>
<clustering>
<clus scale="   64.064">  2  9  1 -1</clus>
<clus scale="   79.936">  5  6 -1 -1</clus>
<clus scale="   84.622">  1  5  2 -1</clus>
<clus scale="  105.402">  7  8 -1 -1</clus>
<clus scale="   64.064">  2  5  1 -1</clus>
</clustering>
</event>
<event>
 9    2  0.3745229E-005  0.1272324E+03  0.7546771E-02  0.1232683E+00
          2   -1    0    0  502    0 -0.00000000000E+00  0.00000000000E+00  0.65039245125E+03  0.65039245125E+03  0.00000000000E+00 0. -1.
         21   -1    0    0  501  502  0.00000000000E+00 -0.00000000000E+00 -0.89025421422E+02  0.89025421422E+02  0.00000000000E+00 0.  1.
         23    2    1    2    0    0  0.66243628245E+02 -0.73825717034E+02  0.57802078516E+03  0.59269258633E+03  0.85662238086E+02 0.  0.
         24    2    1    2    0    0 -0.46609498077E+02  0.38611981958E+02  0.36185721606E+01  0.10159798343E+03  0.81521320595E+02 0.  0.
        -13    1    4    4    0    0 -0.41611634357E+02  0.50765994824E+02 -0.24893942949E+02  0.70202726015E+02  0.00000000000E+00 0.  1.
         14    1    4    4    0    0 -0.49978637199E+01 -0.12154012866E+02  0.28512515109E+02  0.31395257418E+02  0.00000000000E+00 0. -1.
        -13    1    3    3    0    0  0.31299532108E+02  0.73065719629E+01  0.69708372628E+02  0.76761343908E+02  0.00000000000E+00 0.  1.
         13    1    3    3    0    0  0.34944096137E+02 -0.81132288997E+02  0.50831241254E+03  0.51593124243E+03  0.00000000000E+00 0. -1.
          1    1    1    2  501    0 -0.19634130168E+02  0.35213735076E+02 -0.20272327496E+02  0.45127302906E+02  0.00000000000E+00 0. -1.
<scales pt_clust_5="13000.00000" pt_clust_6="13000.00000" pt_clust_7="13000.00000" pt_clust_8="13000.00000" pt_clust_9="40.31757"></scales>
<clustering>
<clus scale="   40.318">  2  9  1 -1</clus>
<clus scale="   81.521">  5  6 -1 -1</clus>
<clus scale="   85.662">  7  8 -1 -1</clus>
<clus scale="  124.482">  2  5  1 -1</clus>
<clus scale="   40.318">  2  5  1 -1</clus>
</clustering>
</event>
<event>
 9    2  0.3745229E-005  0.9394353E+02  0.7546771E-02  0.1298875E+00
         -1   -1    0    0    0  501 -0.00000000000E+00  0.00000000000E+00  0.30807616976E+03  0.30807616976E+03  0.00000000000E+00 0.  1.
         21   -1    0    0  501  502  0.00000000000E+00 -0.00000000000E+00 -0.52383595385E+02  0.52383595385E+02  0.00000000000E+00 0.  1.
         23    2    1    2    0    0  0.32058877250E+02 -0.42055974845E+01  0.19132403509E+03  0.21336087242E+03  0.88727204472E+02 0.  0.
         24    2    1    2    0    0 -0.25875117675E+02 -0.31039276047E+02  0.22164488088E+02  0.91766967678E+02  0.79353345565E+02 0.  0.
        -13    1    4    4    0    0 -0.10078512879E+01 -0.28453732985E+02 -0.25320766535E+02  0.38102124651E+02  0.00000000000E+00 0.  1.
         14    1    4    4    0    0 -0.24867266387E+02 -0.25855430616E+01  0.47485254623E+02  0.53664843027E+02  0.00000000000E+00 0. -1.
        -11    1    3    3    0    0  0.99287583240E+01  0.26847503308E+02  0.13781231498E+02  0.31769340839E+02  0.00000000000E+00 0.  1.
         11    1    3    3    0    0  0.22130118926E+02 -0.31053100792E+02  0.17754280359E+03  0.18159153158E+03  0.00000000000E+00 0. -1.
         -2    1    1    2    0  502 -0.61837595752E+01  0.35244873531E+02  0.42204051196E+02  0.55331925053E+02  0.00000000000E+00 0.  1.
<scales pt_clust_5="13000.00000" pt_clust_6="13000.00000" pt_clust_7="13000.00000" pt_clust_8="13000.00000" pt_clust_9="35.78325"></scales>
<clustering>
<clus scale="   35.783">  2  9  1 -1</clus>
<clus scale="   79.353">  5  6 -1 -1</clus>
<clus scale="   85.146">  2  5  1 -1</clus>
<clus scale="   88.727">  7  8 -1 -1</clus>
<clus scale="   35.783">  2  5  1 -1</clus>
</clustering>
</event>
<event>
 9    2  0.3745229E-005  0.1647890E+03  0.7546771E-02  0.1202060E+00
          2   -1    0    0  502    0 -0.00000000000E+00  0.00000000000E+00  0.19493318653E+03  0.19493318653E+03  0.00000000000E+00 0. -1.
         21   -1    0    0  501  502  0.00000000000E+00 -0.00000000000E+00 -0.30207367247E+03  0.30207367247E+03  0.00000000000E+00 0. -1.
         23    2    1    2    0    0  0.65389160223E+02 -0.28637741199E+02  0.74289295794E+02  0.13216210306E+03  0.82777167861E+02 0.  0.
         24    2    1    2    0    0  0.10388424666E+03 -0.26999058327E+02 -0.52275741754E+02  0.14477725316E+03  0.81895140275E+02 0.  0.
        -13    1    4    4    0    0  0.35278995866E+02  0.16852094632E+01  0.20410705541E+02  0.40792700094E+02  0.00000000000E+00 0.  1.
         14    1    4    4    0    0  0.68605250794E+02 -0.28684267790E+02 -0.72686447294E+02  0.10398455306E+03  0.00000000000E+00 0. -1.
        -13    1    3    3    0    0  0.22296674308E+02 -0.60377774091E+01 -0.17022581130E+02  0.28694332360E+02  0.00000000000E+00 0.  1.
         13    1    3    3    0    0  0.43092485915E+02 -0.22599963790E+02  0.91311876923E+02  0.10346777070E+03  0.00000000000E+00 0. -1.
          1    1    1    2  501    0 -0.16927340688E+03  0.55636799526E+02 -0.12915403998E+03  0.22006750279E+03  0.00000000000E+00 0. -1.
<scales pt_clust_5="13000.00000" pt_clust_6="13000.00000" pt_clust_7="13000.00000" pt_clust_8="13000.00000" pt_clust_9="142.99872"></scales>
<clustering>
<clus scale="   81.895">  5  6 -1 -1</clus>
<clus scale="   82.777">  7  8 -1 -1</clus>
<clus scale="  109.307">  1  7  2 -1</clus>
<clus scale="  142.999">  2  9  1 -1</clus>
<clus scale="  142.999">  2  5  1 -1</clus>
</clustering>
</event>
<event>
 9    2  0.3745229E-005  0.9649031E+02  0.7546771E-02  0.1293939E+00
          2   -1    0    0  502    0 -0.00000000000E+00  0.00000000000E+00  0.28303043343E+03  0.28303043343E+03  0.00000000000E+00 0. -1.
         21   -1    0    0  501  502  0.00000000000E+00 -0.00000000000E+00 -0.80320870009E+02  0.80320870009E+02  0.00000000000E+00 0.  1.
         24    2    1    2    0    0  0.24590986411E+02  0.31503193135E+02  0.20611545439E+03  0.22463435410E+03  0.79873930126E+02 0.  0.
         23    2    1    2    0    0  0.19333529319E+01 -0.33839193775E+01  0.20414834574E+02  0.93311430961E+02  0.90967405774E+02 0.  0.
        -13    1    3    3    0    0 -0.17252089803E+02  0.42428251799E+02  0.97328811696E+02  0.10756713596E+03  0.00000000000E+00 0.  1.
         14    1    3    3    0    0  0.41843076214E+02 -0.10925058664E+02  0.10878664269E+03  0.11706721813E+03  0.00000000000E+00 0. -1.
        -11    1    4    4    0    0  0.14182328192E+02 -0.39314577205E+02  0.33071069948E+02  0.53296060655E+02  0.00000000000E+00 0. -1.
         11    1    4    4    0    0 -0.12248975261E+02  0.35930657828E+02 -0.12656235374E+02  0.40015370306E+02  0.00000000000E+00 0.  1.
          1    1    1    2  501    0 -0.26524339343E+02 -0.28119273757E+02 -0.23820725539E+02  0.45405518380E+02  0.00000000000E+00 0. -1.
<scales pt_clust_5="13000.00000" pt_clust_6="13000.00000" pt_clust_7="13000.00000" pt_clust_8="13000.00000" pt_clust_9="38.65532"></scales>
<clustering>
<clus scale="   38.655">  2  9  1 -1</clus>
<clus scale="   79.874">  5  6 -1 -1</clus>
<clus scale="   86.111">  1  5  2 -1</clus>
<clus scale="   90.967">  7  8 -1 -1</clus>
<clus scale="   38.655">  2  5  1 -1</clus>
</clustering>
</event>
<event>
 9    2  0.3745229E-005  0.1436992E+03  0.7546771E-02  0.1228719E+00
         21   -1    0    0  501  502  0.00000000000E+00  0.00000000000E+00  0.64071747256E+03  0.64071747256E+03  0.00000000000E+00 0. -1.
         -1   -1    0    0    0  501 -0.00000000000E+00 -0.00000000000E+00 -0.59475159609E+02  0.59475159609E+02  0.00000000000E+00 0.  1.
         23    2    1    2    0    0 -0.55159978981E+01  0.18400705784E+02  0.15510855046E+03  0.18124738485E+03  0.91776575877E+02 0.  0.
         24    2    1    2    0    0  0.22946113725E+02  0.10335912869E+03  0.89094032727E+02  0.16016251967E+03  0.80651425409E+02 0.  0.
        -11    1    4    4    0    0 -0.29487006133E+02  0.27765829078E+02  0.20412890270E+02  0.45355384292E+02  0.00000000000E+00 0.  1.
         12    1    4    4    0    0  0.52433119858E+02  0.75593299609E+02  0.68681142458E+02  0.11480713538E+03  0.00000000000E+00 0. -1.
        -13    1    3    3    0    0  0.32827919702E+02 -0.20399388513E+02  0.74277241507E+02  0.83731212636E+02  0.00000000000E+00 0.  1.
         13    1    3    3    0    0 -0.38343917600E+02  0.38800094297E+02  0.80831308958E+02  0.97516172209E+02  0.00000000000E+00 0. -1.
         -2    1    1    2    0  502 -0.17430115827E+02 -0.12175983447E+03  0.33703972976E+03  0.35878272766E+03  0.00000000000E+00 0.  1.
<scales pt_clust_5="13000.00000" pt_clust_6="13000.00000" pt_clust_7="13000.00000" pt_clust_8="13000.00000" pt_clust_9="118.93198"></scales>
<clustering>
<clus scale="   80.651">  5  6 -1 -1</clus>
<clus scale="   91.777">  7  8 -1 -1</clus>
<clus scale="   93.765">  2  7  1 -1</clus>
<clus scale="  118.932">  1  9  2 -1</clus>
<clus scale="  118.932">  1  5  2 -1</clus>
</clustering>
</event>
<event>
 9    2  0.3745229E-005  0.1111165E+03  0.7546771E-02  0.1266280E+00
         21   -1    0    0  501  502  0.00000000000E+00  0.00000000000E+00  0.32937842384E+03  0.32937842384E+03  0.00000000000E+00 0. -1.
         -3   -1    0    0    0  501 -0.00000000000E+00 -0.00000000000E+00 -0.50606096549E+02  0.50606096549E+02  0.00000000000E+00 0.  1.
         24    2    1    2    0    0  0.16233321873E+02  0.41521457736E+02  0.59267993290E+02  0.10788469347E+03  0.78350876612E+02 0.  0.
         23    2    1    2    0    0 -0.29148802186E+02 -0.66344890987E+02  0.12664714274E+03  0.17511802224E+03  0.96827298416E+02 0.  0.
        -11    1    3    3    0    0  0.19743117615E+02  0.16840226736E+02 -0.14703193811E+02  0.29825623848E+02  0.00000000000E+00 0.  1.
         12    1    3    3    0    0 -0.35097957418E+01  0.24681231000E+02  0.73971187101E+02  0.78059069626E+02  0.00000000000E+00 0. -1.
        -13    1    4    4    0    0  0.24909893918E+02 -0.56659221570E+02  0.44205332044E+02  0.76058409035E+02  0.00000000000E+00 0.  1.
         13    1    4    4    0    0 -0.54058696103E+02 -0.96856694172E+01  0.82441810700E+02  0.99059613203E+02  0.00000000000E+00 0. -1.
         -4    1    1    2    0  502  0.12915480313E+02  0.24823433251E+02  0.92857191253E+02  0.96981804673E+02  0.00000000000E+00 0.  1.
<scales pt_clust_5="13000.00000" pt_clust_6="13000.00000" pt_clust_7="13000.00000" pt_clust_8="13000.00000" pt_clust_9="27.98236"></scales>
<clustering>
<clus scale="   27.982">  1  9  2 -1</clus>
<clus scale="   78.351">  5  6 -1 -1</clus>
<clus scale="   95.447">  2  5  1 -1</clus>
<clus scale="   96.827">  7  8 -1 -1</clus>
<clus scale="   27.982">  1  5  2 -1</clus>
</clustering>
</event>
<event>
 9    2  0.3745229E-005  0.1291613E+03  0.7546771E-02  0.1248906E+00
         21   -1    0    0  501  502  0.00000000000E+00  0.00000000000E+00  0.79311958426E+03  0.79311958426E+03  0.00000000000E+00 0. -1.
          2   -1    0    0  502    0 -0.00000000000E+00 -0.00000000000E+00 -0.44984374226E+02  0.44984374226E+02  0.00000000000E+00 0. -1.
         24    2    1    2    0    0 -0.25514609222E+02  0.14188472983E+02  0.39689338840E+02  0.94375563230E+02  0.80493448604E+02 0.  0.
         23    2    1    2    0    0 -0.78349027202E+02  0.39718374178E+01  0.40665294849E+03  0.42404664720E+03  0.91074655807E+02 0.  0.
        -13    1    3    3    0    0  0.10105267187E+02  0.39932629468E+02  0.24214337362E+02  0.47781434209E+02  0.00000000000E+00 0.  1.
         14    1    3    3    0    0 -0.35619876409E+02 -0.25744156486E+02  0.15475001479E+02  0.46594129022E+02  0.00000000000E+00 0. -1.
        -13    1    4    4    0    0 -0.65918354225E+01 -0.33722128894E+02  0.72894670579E+02  0.80587016760E+02  0.00000000000E+00 0.  1.
         13    1    4    4    0    0 -0.71757191780E+02  0.37693966312E+02  0.33375827791E+03  0.34345963044E+03  0.00000000000E+00 0. -1.
          1    1    1    2  501    0  0.10386363642E+03 -0.18160310401E+02  0.30179292271E+03  0.31968174806E+03  0.00000000000E+00 0. -1.
<scales pt_clust_5="13000.00000" pt_clust_6="13000.00000" pt_clust_7="13000.00000" pt_clust_8="13000.00000" pt_clust_9="91.58629"></scales>
<clustering>
<clus scale="   80.493">  5  6 -1 -1</clus>
<clus scale="   85.624">  2  5  1 -1</clus>
<clus scale="   91.075">  7  8 -1 -1</clus>
<clus scale="   91.586">  1  9  2 -1</clus>
<clus scale="   91.586">  1  5  2 -1</clus>
</clustering>
</event>
<event>
 9    2  0.3745229E-005  0.1418986E+03  0.7546771E-02  0.1212700E+00
         21   -1    0    0  501  502  0.00000000000E+00  0.00000000000E+00  0.69974118242E+02  0.69974118242E+02  0.00000000000E+00 0.  1.
         -1   -1    0    0    0  501 -0.00000000000E+00 -0.00000000000E+00 -0.48176047525E+03  0.48176047525E+03  0.00000000000E+00 0.  1.
         24    2    1    2    0    0 -0.82541550054E+02  0.42194631106E+02 -0.14481798911E+03  0.19119483356E+03  0.83604545526E+02 0.  0.
         23    2    1    2    0    0  0.11235449507E+03 -0.76913449127E+02 -0.11236078605E+03  0.19930169872E+03  0.92504106147E+02 0.  0.
        -11    1    3    3    0    0 -0.16888876949E+02 -0.24750971238E+02 -0.46627363411E+02  0.55425226752E+02  0.00000000000E+00 0.  1.
         12    1    3    3    0    0 -0.65652673105E+02  0.66945602344E+02 -0.98190625698E+02  0.13576960681E+03  0.00000000000E+00 0. -1.
        -13    1    4    4    0    0  0.17393541849E+02 -0.53856304976E+02 -0.76608919088E+02  0.95246854896E+02  0.00000000000E+00 0. -1.
         13    1    4    4    0    0  0.94960953220E+02 -0.23057144151E+02 -0.35751866960E+02  0.10405484383E+03  0.00000000000E+00 0.  1.
         -2    1    1    2    0  502 -0.29812945015E+02  0.34718818021E+02 -0.15460758185E+03  0.16123806120E+03  0.00000000000E+00 0.  1.
<scales pt_clust_5="13000.00000" pt_clust_6="13000.00000" pt_clust_7="13000.00000" pt_clust_8="13000.00000" pt_clust_9="45.76254"></scales>
<clustering>
<clus scale="   45.763">  1  9  2 -1</clus>
<clus scale="   83.605">  5  6 -1 -1</clus>
<clus scale="   92.504">  7  8 -1 -1</clus>
<clus scale="  136.264">  2  5  1 -1</clus>
<clus scale="   45.763">  1  5  2 -1</clus>
</clustering>
</event>
<event>
 9    2  0.3745229E-005  0.9269665E+02  0.7546771E-02  0.1306360E+00
         21   -1    0    0  501  502  0.00000000000E+00  0.00000000000E+00  0.30370649265E+02  0.30370649265E+02  0.00000000000E+00 0. -1.
         -1   -1    0    0    0  501 -0.00000000000E+00 -0.00000000000E+00 -0.50675258842E+03  0.50675258842E+03  0.00000000000E+00 0.  1.
         23    2    1    2    0    0 -0.12273207793E+02  0.15919799228E+02 -0.38428263785E+03  0.39542659845E+03  0.91021851065E+02 0.  0.
         24    2    1    2    0    0  0.19273452376E+02  0.81921775672E+01 -0.50150466332E+02  0.92808035198E+02  0.75230873876E+02 0.  0.
        -13    1    4    4    0    0  0.33693795104E+02 -0.11495761193E+02 -0.57228445113E+02  0.67398214249E+02  0.00000000000E+00 0.  1.
         14    1    4    4    0    0 -0.14420342727E+02  0.19687938761E+02  0.70779787815E+01  0.25409820949E+02  0.00000000000E+00 0. -1.
        -11    1    3    3    0    0  0.11870818057E+02  0.49077489816E+02 -0.24877114790E+03  0.25384365336E+03  0.00000000000E+00 0.  1.
         11    1    3    3    0    0 -0.24144025850E+02 -0.33157690588E+02 -0.13551148995E+03  0.14158294508E+03  0.00000000000E+00 0. -1.
         -2    1    1    2    0  502 -0.70002445832E+01 -0.24111976795E+02 -0.41948834983E+02  0.48888604046E+02  0.00000000000E+00 0.  1.
<scales pt_clust_5="13000.00000" pt_clust_6="13000.00000" pt_clust_7="13000.00000" pt_clust_8="13000.00000" pt_clust_9="25.10759"></scales>
<clustering>
<clus scale="   25.108">  1  9  2 -1</clus>
<clus scale="   75.231">  5  6 -1 -1</clus>
<clus scale="   77.249">  1  5  2 -1</clus>
<clus scale="   91.022">  7  8 -1 -1</clus>
<clus scale="   25.108">  1  5  2 -1</clus>
</clustering>
</event>
<event>
 9    2  0.3745229E-005  0.2402456E+03  0.7546771E-02  0.1119629E+00
         21   -1    0    0  501  502  0.00000000000E+00  0.00000000000E+00  0.40355806780E+03  0.40355806780E+03  0.00000000000E+00 0.  1.
          4   -1    0    0  502    0 -0.00000000000E+00 -0.00000000000E+00 -0.95082854250E+02  0.95082854250E+02  0.00000000000E+00 0. -1.
         24    2    1    2    0    0  0.82005860035E+02 -0.83536947223E+02  0.15749210377E+03  0.21068618334E+03  0.76691084689E+02 0.  0.
         23    2    1    2    0    0  0.27800311329E+02 -0.15606434606E+02  0.65456865082E+02  0.11707014618E+03  0.91675513796E+02 0.  0.
        -13    1    3    3    0    0  0.70029648992E+02 -0.98337438559E+02  0.13219290649E+03  0.17902337302E+03  0.00000000000E+00 0.  1.
         14    1    3    3    0    0  0.11976211042E+02  0.14800491337E+02  0.25299197277E+02  0.31662810324E+02  0.00000000000E+00 0. -1.
        -11    1    4    4    0    0 -0.28005318121E+02  0.62814691894E+01  0.45678467084E+02  0.53946983728E+02  0.00000000000E+00 0. -1.
         11    1    4    4    0    0  0.55805629450E+02 -0.21887903795E+02  0.19778397998E+02  0.63123162454E+02  0.00000000000E+00 0.  1.
          3    1    1    2  501    0 -0.10980617136E+03  0.99143381829E+02  0.85526244700E+02  0.17088459253E+03  0.00000000000E+00 0. -1.
<scales pt_clust_5="13000.00000" pt_clust_6="13000.00000" pt_clust_7="13000.00000" pt_clust_8="13000.00000" pt_clust_9="147.94197"></scales>
<clustering>
<clus scale="   76.691">  5  6 -1 -1</clus>
<clus scale="   91.676">  7  8 -1 -1</clus>
<clus scale="   93.912">  5  7 -1 -1</clus>
<clus scale="  147.942">  1  9  2 -1</clus>
<clus scale="  147.942">  1  5  2 -1</clus>
</clustering>
</event>
<event>
 9    2  0.3745229E-005  0.1193327E+03  0.7546771E-02  0.1246666E+00
         21   -1    0    0  501  502  0.00000000000E+00  0.00000000000E+00  0.16194904454E+03  0.16194904454E+03  0.00000000000E+00 0.  1.
         -3   -1    0    0    0  501 -0.00000000000E+00 -0.00000000000E+00 -0.16451227099E+03  0.16451227099E+03  0.00000000000E+00 0.  1.
         24    2    1    2    0    0 -0.31810468246E+02 -0.56555148852E+02 -0.40659028899E+02  0.11312529081E+03  0.83269346332E+02 0.  0.
         23    2    1    2    0    0  0.45782586063E+02  0.10516167071E+03  0.60001052137E+02  0.15822110834E+03  0.90987750243E+02 0.  0.
        -13    1    3    3    0    0 -0.13812685131E+02 -0.55995490881E+02  0.10738229315E+02  0.58665107503E+02  0.00000000000E+00 0.  1.
         14    1    3    3    0    0 -0.17997783115E+02 -0.55965797109E+00 -0.51397258214E+02  0.54460183309E+02  0.00000000000E+00 0. -1.
        -13    1    4    4    0    0  0.64824465573E+02  0.64808693704E+02  0.66341326047E+02  0.11315277132E+03  0.00000000000E+00 0.  1.
         13    1    4    4    0    0 -0.19041879509E+02  0.40352977005E+02 -0.63402739096E+01  0.45068337019E+02  0.00000000000E+00 0. -1.
         -4    1    1    2    0  502 -0.13972117817E+02 -0.48606521858E+02 -0.21905249682E+02  0.55114916375E+02  0.00000000000E+00 0.  1.
<scales pt_clust_5="13000.00000" pt_clust_6="13000.00000" pt_clust_7="13000.00000" pt_clust_8="13000.00000" pt_clust_9="50.57486"></scales>
<clustering>
<clus scale="   50.575">  1  9  2 -1</clus>
<clus scale="   83.269">  5  6 -1 -1</clus>
<clus scale="   90.988">  7  8 -1 -1</clus>
<clus scale="  113.558">  2  5  1 -1</clus>
<clus scale="   50.575">  1  5  2 -1</clus>
</clustering>
</event>
<event>
 9    2  0.3745229E-005  0.2810636E+03  0.7546771E-02  0.1123499E+00
         21   -1    0    0  501  502  0.00000000000E+00  0.00000000000E+00  0.38973700295E+03  0.38973700295E+03  0.00000000000E+00 0. -1.
          2   -1    0    0  502    0 -0.00000000000E+00 -0.00000000000E+00 -0.50706752582E+03  0.50706752582E+03  0.00000000000E+00 0. -1.
         24    2    1    2    0    0  0.80416188832E+02  0.69309272539E+02 -0.71768365235E+02  0.15398466712E+03  0.85381735587E+02 0.  0.
         23    2    1    2    0    0 -0.30588063698E+03  0.61011554379E+02 -0.25174355894E+03  0.41066251106E+03  0.89350459845E+02 0.  0.
        -13    1    3    3    0    0 -0.13092240918E+02  0.16754655140E+02  0.52879008396E+01  0.21910890817E+02  0.00000000000E+00 0.  1.
         14    1    3    3    0    0  0.93508429750E+02  0.52554617399E+02 -0.77056266074E+02  0.13207377630E+03  0.00000000000E+00 0. -1.
        -13    1    4    4    0    0 -0.33307834015E+02  0.38556293683E+02 -0.38748648683E+02  0.64011384644E+02  0.00000000000E+00 0.  1.
         13    1    4    4    0    0 -0.27257280297E+03  0.22455260697E+02 -0.21299491026E+03  0.34665112642E+03  0.00000000000E+00 0. -1.
          1    1    1    2  501    0  0.22546444815E+03 -0.13032082692E+03  0.20618140130E+03  0.33215735059E+03  0.00000000000E+00 0. -1.
<scales pt_clust_5="13000.00000" pt_clust_6="13000.00000" pt_clust_7="13000.00000" pt_clust_8="13000.00000" pt_clust_9="266.48308"></scales>
<clustering>
<clus scale="   85.382">  5  6 -1 -1</clus>
<clus scale="   89.350">  7  8 -1 -1</clus>
<clus scale="  136.237">  2  5  1 -1</clus>
<clus scale="  266.483">  1  9  2 -1</clus>
<clus scale="  266.483">  1  5  2 -1</clus>
</clustering>
</event>
<event>
 9    2  0.3745229E-005  0.1405849E+03  0.7546771E-02  0.1223252E+00
         -3   -1    0    0    0  501 -0.00000000000E+00  0.00000000000E+00  0.39751480537E+03  0.39751480537E+03  0.00000000000E+00 0.  1.
         21   -1    0    0  501  502  0.00000000000E+00 -0.00000000000E+00 -0.10933158235E+03  0.10933158235E+03  0.00000000000E+00 0.  1.
         24    2    1    2    0    0  0.65861096242E+02 -0.43017849117E+02  0.18521191641E+03  0.21654044833E+03  0.79988076888E+02 0.  0.
         23    2    1    2    0    0  0.64545327270E+02  0.63359173932E+02  0.99781009522E+02  0.15828403672E+03  0.83169118220E+02 0.  0.
        -13    1    3    3    0    0  0.24345973145E+02 -0.41321818424E+02  0.16199203620E+03  0.16894270886E+03  0.00000000000E+00 0.  1.
         14    1    3    3    0    0  0.41515123097E+02 -0.16960306926E+01  0.23219880212E+02  0.47597739473E+02  0.00000000000E+00 0. -1.
        -13    1    4    4    0    0  0.34110716420E+02  0.67916858219E+02  0.10226023860E+03  0.12741034889E+03  0.00000000000E+00 0.  1.
         13    1    4    4    0    0  0.30434610850E+02 -0.45576842872E+01 -0.24792290771E+01  0.30873687834E+02  0.00000000000E+00 0. -1.
         -4    1    1    2    0  502 -0.13040642351E+03 -0.20341324816E+02  0.31902970830E+01  0.13202190267E+03  0.00000000000E+00 0.  1.
<scales pt_clust_5="13000.00000" pt_clust_6="13000.00000" pt_clust_7="13000.00000" pt_clust_8="13000.00000" pt_clust_9="113.34471"></scales>
<clustering>
<clus scale="   79.988">  5  6 -1 -1</clus>
<clus scale="   83.169">  7  8 -1 -1</clus>
<clus scale="  112.189">  1  5  2 -1</clus>
<clus scale="  113.345">  2  9  1 -1</clus>
<clus scale="  113.345">  2  5  1 -1</clus>
</clustering>
</event>
<event>
 9    2  0.3745229E-005  0.1774816E+03  0.7546771E-02  0.1195197E+00
         21   -1    0    0  501  502  0.00000000000E+00  0.00000000000E+00  0.31417917985E+03  0.31417917985E+03  0.00000000000E+00 0.  1.
          2   -1    0    0  502    0 -0.00000000000E+00 -0.00000000000E+00 -0.26556652632E+03  0.26556652632E+03  0.00000000000E+00 0. -1.
         24    2    1    2    0    0  0.52139358565E+02  0.30867084127E+02  0.11427374921E+03  0.15290298772E+03  0.81544738041E+02 0.  0.
         23    2    1    2    0    0  0.61726862503E+02  0.12667609951E+03  0.77918742823E+02  0.18518067957E+03  0.91452249079E+02 0.  0.
        -11    1    3    3    0    0  0.58908780796E+02  0.46559957778E+02  0.11312100897E+03  0.13577347603E+03  0.00000000000E+00 0.  1.
         12    1    3    3    0    0 -0.67694222310E+01 -0.15692873651E+02  0.11527402399E+01  0.17129511693E+02  0.00000000000E+00 0. -1.
        -13    1    4    4    0    0  0.32433027545E+02  0.13368632710E+03  0.68115445401E+02  0.15350455769E+03  0.00000000000E+00 0.  1.
         13    1    4    4    0    0  0.29293834958E+02 -0.70102275857E+01  0.98032974214E+01  0.31676121885E+02  0.00000000000E+00 0. -1.
          1    1    1    2  501    0 -0.11386622107E+03 -0.15754318364E+03 -0.14357983849E+03  0.24166203887E+03  0.00000000000E+00 0. -1.
<scales pt_clust_5="13000.00000" pt_clust_6="13000.00000" pt_clust_7="13000.00000" pt_clust_8="13000.00000" pt_clust_9="152.10597"></scales>
<clustering>
<clus scale="   81.545">  5  6 -1 -1</clus>
<clus scale="   91.452">  7  8 -1 -1</clus>
<clus scale="  101.592">  2  5  1 -1</clus>
<clus scale="  152.106">  1  9  2 -1</clus>
<clus scale="  152.106">  1  5  2 -1</clus>
</clustering>
</event>
<event>
 9    2  0.3745229E-005  0.1314428E+03  0.7546771E-02  0.1230257E+00
         21   -1    0    0  501  502  0.00000000000E+00  0.00000000000E+00  0.60021286489E+02  0.60021286489E+02  0.00000000000E+00 0.  1.
         -1   -1    0    0    0  501 -0.00000000000E+00 -0.00000000000E+00 -0.54297215376E+03  0.54297215376E+03  0.00000000000E+00 0.  1.
         24    2    1    2    0    0  0.79919603398E+02  0.46639339965E+02 -0.23835736539E+03  0.26752839807E+03  0.78707300159E+02 0.  0.
         23    2    1    2    0    0 -0.76406494141E+02 -0.21780002852E+02 -0.43226939177E+02  0.13253938793E+03  0.96880339650E+02 0.  0.
        -13    1    3    3    0    0  0.65441153705E+02  0.64452586272E+02 -0.21906843212E+03  0.23754506609E+03  0.00000000000E+00 0.  1.
         14    1    3    3    0    0  0.14478449693E+02 -0.17813246307E+02 -0.19288933271E+02  0.29983331974E+02  0.00000000000E+00 0. -1.
        -13    1    4    4    0    0 -0.65031980468E+02 -0.34284672318E+01 -0.71665065473E+02  0.96833849869E+02  0.00000000000E+00 0. -1.
         13    1    4    4    0    0 -0.11374513673E+02 -0.18351535620E+02  0.28438126296E+02  0.35705538059E+02  0.00000000000E+00 0.  1.
         -2    1    1    2    0  502 -0.35131092575E+01 -0.24859337113E+02 -0.20136656271E+03  0.20292565425E+03  0.00000000000E+00 0.  1.
<scales pt_clust_5="13000.00000" pt_clust_6="13000.00000" pt_clust_7="13000.00000" pt_clust_8="13000.00000" pt_clust_9="25.10636"></scales>
<clustering>
<clus scale="   25.106">  1  9  2 -1</clus>
<clus scale="   78.707">  5  6 -1 -1</clus>
<clus scale="   96.880">  7  8 -1 -1</clus>
<clus scale="  118.686">  2  5  1 -1</clus>
<clus scale="   25.106">  1  5  2 -1</clus>
</clustering>
</event>
<event>
 9    2  0.3745229E-005  0.1095882E+03  0.7546771E-02  0.1263093E+00
         21   -1    0    0  501  502  0.00000000000E+00  0.00000000000E+00  0.84479370884E+02  0.84479370884E+02  0.00000000000E+00 0.  1.
         -3   -1    0    0    0  501 -0.00000000000E+00 -0.00000000000E+00 -0.23974583879E+03  0.23974583879E+03  0.00000000000E+00 0.  1.
         24    2    1    2    0    0 -0.28888672003E+02 -0.50545989434E+02 -0.14701186299E+03  0.18479980847E+03  0.95650556368E+02 0.  0.
         23    2    1    2    0    0  0.33931999958E+02  0.30732532083E+02 -0.32933919046E+02  0.10737736235E+03  0.91374973446E+02 0.  0.
        -13    1    3    3    0    0 -0.52298851703E+02 -0.26716708442E+02 -0.13833772594E+03  0.15028732088E+03  0.00000000000E+00 0.  1.
         14    1    3    3    0    0  0.23410179699E+02 -0.23829280992E+02 -0.86741370502E+01  0.34512487591E+02  0.00000000000E+00 0. -1.
        -11    1    4    4    0    0  0.15070092184E+02  0.62256758211E+02 -0.12240544282E+02  0.65213821738E+02  0.00000000000E+00 0. -1.
         11    1    4    4    0    0  0.18861907774E+02 -0.31524226128E+02 -0.20693374763E+02  0.42163540612E+02  0.00000000000E+00 0.  1.
         -4    1    1    2    0  502 -0.50433279550E+01  0.19813457351E+02  0.24679314123E+02  0.32048038858E+02  0.00000000000E+00 0.  1.
<scales pt_clust_5="13000.00000" pt_clust_6="13000.00000" pt_clust_7="13000.00000" pt_clust_8="13000.00000" pt_clust_9="20.44525"></scales>
<clustering>
<clus scale="   20.445">  1  9  2 -1</clus>
<clus scale="   91.375">  7  8 -1 -1</clus>
<clus scale="   95.651">  5  6 -1 -1</clus>
<clus scale="  105.877">  1  7  2 -1</clus>
<clus scale="   20.445">  1  5  2 -1</clus>
</clustering>
</event>
<event>
 9    2  0.3745229E-005  0.9177310E+02  0.7546771E-02  0.1303244E+00
         21   -1    0    0  501  502  0.00000000000E+00  0.00000000000E+00  0.39056062022E+03  0.39056062022E+03  0.00000000000E+00 0.  1.
         -1   -1    0    0    0  501 -0.00000000000E+00 -0.00000000000E+00 -0.31738052320E+02  0.31738052320E+02  0.00000000000E+00 0.  1.
         24    2    1    2    0    0 -0.35395210410E+02  0.90920986134E+01  0.10914762662E+03  0.14050450371E+03  0.80578061459E+02 0.  0.
         23    2    1    2    0    0 -0.22298026370E+01 -0.21572785355E+02  0.17414941702E+03  0.19649754543E+03  0.88390660284E+02 0.  0.
        -11    1    3    3    0    0 -0.24619453368E+02  0.42667068135E+02  0.42313442944E+02  0.64938614408E+02  0.00000000000E+00 0.  1.
         12    1    3    3    0    0 -0.10775757042E+02 -0.33574969522E+02  0.66834183675E+02  0.75565889300E+02  0.00000000000E+00 0. -1.
        -13    1    4    4    0    0  0.17450876069E+02 -0.51199203592E+02  0.12106042353E+03  0.13259531542E+03  0.00000000000E+00 0.  1.
         13    1    4    4    0    0 -0.19680678706E+02  0.29626418237E+02  0.53088993483E+02  0.63902230015E+02  0.00000000000E+00 0. -1.
         -2    1    1    2    0  502  0.37625013047E+02  0.12480686741E+02  0.75525524270E+02  0.85296623406E+02  0.00000000000E+00 0.  1.
<scales pt_clust_5="13000.00000" pt_clust_6="13000.00000" pt_clust_7="13000.00000" pt_clust_8="13000.00000" pt_clust_9="39.64100"></scales>
<clustering>
<clus scale="   39.641">  1  9  2 -1</clus>
<clus scale="   80.578">  5  6 -1 -1</clus>
<clus scale="   84.275">  2  5  1 -1</clus>
<clus scale="   88.391">  7  8 -1 -1</clus>
<clus scale="   39.641">  1  5  2 -1</clus>
</clustering>
</event>
<event>
 9    2  0.3745229E-005  0.9905041E+02  0.7546771E-02  0.1286941E+00
         -3   -1    0    0    0  501 -0.00000000000E+00  0.00000000000E+00  0.72766984205E+02  0.72766984205E+02  0.00000000000E+00 0.  1.
         21   -1    0    0  501  502  0.00000000000E+00 -0.00000000000E+00 -0.23530014010E+03  0.23530014010E+03  0.00000000000E+00 0. -1.
         23    2    1    2    0    0 -0.29104221604E+02 -0.16924054841E+02  0.33171281725E+01  0.97484465669E+02  0.91426136088E+02 0.  0.
         24    2    1    2    0    0  0.35069234044E+02  0.43527404444E+02 -0.14664512265E+03  0.17723362854E+03  0.82355819306E+02 0.  0.
        -13    1    4    4    0    0 -0.92409884440E+01  0.18025612257E+02  0.16984839568E+01  0.20327405452E+02  0.00000000000E+00 0.  1.
         14    1    4    4    0    0  0.44310222488E+02  0.25501792187E+02 -0.14834360661E+03  0.15690622309E+03  0.00000000000E+00 0. -1.
        -13    1    3    3    0    0 -0.58485896785E+02  0.57652545920E+01 -0.63843461347E+01  0.59115126312E+02  0.00000000000E+00 0.  1.
         13    1    3    3    0    0  0.29381675181E+02 -0.22689309433E+02  0.97014743072E+01  0.38369339357E+02  0.00000000000E+00 0. -1.
         -4    1    1    2    0  502 -0.59650124392E+01 -0.26603349603E+02 -0.19205161417E+02  0.33349030099E+02  0.00000000000E+00 0.  1.
<scales pt_clust_5="13000.00000" pt_clust_6="13000.00000" pt_clust_7="13000.00000" pt_clust_8="13000.00000" pt_clust_9="27.26389"></scales>
<clustering>
<clus scale="   27.264">  2  9  1 -1</clus>
<clus scale="   82.356">  5  6 -1 -1</clus>
<clus scale="   90.745">  2  5  1 -1</clus>
<clus scale="   91.426">  7  8 -1 -1</clus>
<clus scale="   27.264">  2  5  1 -1</clus>
</clustering>
</event>
<event>
 9    2  0.3745229E-005  0.1462091E+03  0.7546771E-02  0.1207303E+00
          2   -1    0    0  502    0 -0.00000000000E+00  0.00000000000E+00  0.51427815818E+02  0.51427815818E+02  0.00000000000E+00 0. -1.
         21   -1    0    0  501  502  0.00000000000E+00 -0.00000000000E+00 -0.82786154830E+03  0.82786154830E+03  0.00000000000E+00 0.  1.
         24    2    1    2    0    0 -0.78387274171E+02  0.71923147119E+02 -0.14333703209E+03  0.19561612441E+03  0.80016620253E+02 0.  0.
         23    2    1    2    0    0  0.10761078629E+03 -0.97531864114E+02 -0.61912988775E+03  0.64238290305E+03  0.90782324171E+02 0.  0.
        -11    1    3    3    0    0 -0.13803938047E+02  0.25176955555E+02 -0.10169392489E+03  0.10566968419E+03  0.00000000000E+00 0.  1.
         12    1    3    3    0    0 -0.64583336124E+02  0.46746191565E+02 -0.41643107192E+02  0.89946440215E+02  0.00000000000E+00 0. -1.
        -11    1    4    4    0    0  0.19357895972E+02 -0.78026713406E+02 -0.31596590650E+03  0.32603274408E+03  0.00000000000E+00 0. -1.
         11    1    4    4    0    0  0.88252890316E+02 -0.19505150708E+02 -0.30316398124E+03  0.31635015897E+03  0.00000000000E+00 0.  1.
          1    1    1    2  501    0 -0.29223512116E+02  0.25608716995E+02 -0.13966812651E+02  0.41290336668E+02  0.00000000000E+00 0. -1.
<scales pt_clust_5="13000.00000" pt_clust_6="13000.00000" pt_clust_7="13000.00000" pt_clust_8="13000.00000" pt_clust_9="38.85642"></scales>
<clustering>
<clus scale="   38.856">  2  9  1 -1</clus>
<clus scale="   80.017">  5  6 -1 -1</clus>
<clus scale="   90.782">  7  8 -1 -1</clus>
<clus scale="  139.780">  1  5  2 -1</clus>
<clus scale="   38.856">  2  5  1 -1</clus>
</clustering>
</event>
<event>
 9    2  0.3745229E-005  0.1966081E+03  0.7546771E-02  0.1155221E+00
         -1   -1    0    0    0  501 -0.00000000000E+00  0.00000000000E+00  0.13615896954E+04  0.13615896954E+04  0.00000000000E+00 0.  1.
         21   -1    0    0  501  502  0.00000000000E+00 -0.00000000000E+00 -0.34272186310E+02  0.34272186310E+02  0.00000000000E+00 0.  1.
         23    2    1    2    0    0 -0.14346010759E+03 -0.78521339798E+01  0.49654269917E+03  0.52795066978E+03  0.10740018222E+03 0.  0.
         24    2    1    2    0    0  0.18558859121E+03 -0.12083164713E+02  0.65726217704E+03  0.68824802974E+03  0.84277239043E+02 0.  0.
        -11    1    4    4    0    0  0.18372654399E+03 -0.27199399898E+02  0.56518194745E+03  0.59491670345E+03  0.00000000000E+00 0.  1.
         12    1    4    4    0    0  0.18620472185E+01  0.15116235185E+02  0.92080229596E+02  0.93331326297E+02  0.00000000000E+00 0. -1.
        -13    1    3    3    0    0 -0.12416064059E+03 -0.29952733896E+02  0.47412106404E+03  0.49102323194E+03  0.00000000000E+00 0.  1.
         13    1    3    3    0    0 -0.19299467002E+02  0.22100599917E+02  0.22421635132E+02  0.36927437837E+02  0.00000000000E+00 0. -1.
         -2    1    1    2    0  502 -0.42128483619E+02  0.19935298693E+02  0.17351263284E+03  0.17966318215E+03  0.00000000000E+00 0.  1.
<scales pt_clust_5="13000.00000" pt_clust_6="13000.00000" pt_clust_7="13000.00000" pt_clust_8="13000.00000" pt_clust_9="46.60716"></scales>
<clustering>
<clus scale="   46.607">  2  9  1 -1</clus>
<clus scale="   84.277">  5  6 -1 -1</clus>
<clus scale="  107.400">  7  8 -1 -1</clus>
<clus scale="  184.993">  2  5  1 -1</clus>
<clus scale="   46.607">  2  5  1 -1</clus>
</clustering>
</event>
<event>
 9    2  0.3745229E-005  0.1164526E+03  0.7546771E-02  0.1252276E+00
          4   -1    0    0  502    0 -0.00000000000E+00  0.00000000000E+00  0.61123964668E+03  0.61123964668E+03  0.00000000000E+00 0. -1.
         21   -1    0    0  501  502  0.00000000000E+00 -0.00000000000E+00 -0.67192701067E+02  0.67192701067E+02  0.00000000000E+00 0.  1.
         24    2    1    2    0    0  0.56046581662E+02 -0.50420793449E+02  0.52585595365E+03  0.53711123097E+03  0.79249698526E+02 0.  0.
         23    2    1    2    0    0 -0.39014344029E+02  0.65558940866E+02  0.17849862588E+02  0.11853127265E+03  0.88943528341E+02 0.  0.
        -11    1    3    3    0    0  0.42400249324E+02  0.55056513463E+01  0.12425927440E+03  0.13140951493E+03  0.00000000000E+00 0.  1.
         12    1    3    3    0    0  0.13646332339E+02 -0.55926444795E+02  0.40159667925E+03  0.40570171604E+03  0.00000000000E+00 0. -1.
        -11    1    4    4    0    0 -0.20393216060E+01  0.47106638236E+02 -0.29551620706E+02  0.55646136297E+02  0.00000000000E+00 0.  1.
         11    1    4    4    0    0 -0.36975022423E+02  0.18452302630E+02  0.47401483293E+02  0.62885136351E+02  0.00000000000E+00 0. -1.
          3    1    1    2  501    0 -0.17032237634E+02 -0.15138147417E+02  0.34112937211E+00  0.22789844126E+02  0.00000000000E+00 0. -1.
<scales pt_clust_5="13000.00000" pt_clust_6="13000.00000" pt_clust_7="13000.00000" pt_clust_8="13000.00000" pt_clust_9="22.78729"></scales>
<clustering>
<clus scale="   22.787">  2  9  1 -1</clus>
<clus scale="   79.250">  5  6 -1 -1</clus>
<clus scale="   88.944">  7  8 -1 -1</clus>
<clus scale="  109.228">  1  5  2 -1</clus>
<clus scale="   22.787">  2  5  1 -1</clus>
</clustering>
</event>
<event>
 9    2  0.3745229E-005  0.9567808E+02  0.7546771E-02  0.1297369E+00
         -3   -1    0    0    0  501 -0.00000000000E+00  0.00000000000E+00  0.13415236141E+03  0.13415236141E+03  0.00000000000E+00 0.  1.
         21   -1    0    0  501  502  0.00000000000E+00 -0.00000000000E+00 -0.13262281709E+03  0.13262281709E+03  0.00000000000E+00 0. -1.
         24    2    1    2    0    0 -0.25050640239E+02  0.33487783325E+01  0.57686132801E+02  0.10064793551E+03  0.78508395167E+02 0.  0.
         23    2    1    2    0    0  0.25983112633E+02  0.36995419298E+02 -0.72118783911E+01  0.10269138221E+03  0.91922388994E+02 0.  0.
        -13    1    3    3    0    0 -0.22318288319E+02  0.34515696414E+01  0.77460465294E+02  0.80685457240E+02  0.00000000000E+00 0.  1.
         14    1    3    3    0    0 -0.27323519203E+01 -0.10279130892E+00 -0.19774332493E+02  0.19962478268E+02  0.00000000000E+00 0. -1.
        -13    1    4    4    0    0  0.69670379587E+01 -0.27806921377E+02  0.14001709358E+02  0.31903171619E+02  0.00000000000E+00 0. -1.
         13    1    4    4    0    0  0.19016074675E+02  0.64802340675E+02 -0.21213587749E+02  0.70788210587E+02  0.00000000000E+00 0.  1.
         -4    1    1    2    0  502 -0.93247239404E+00 -0.40344197630E+02 -0.48944710095E+02  0.63435860785E+02  0.00000000000E+00 0.  1.
<scales pt_clust_5="13000.00000" pt_clust_6="13000.00000" pt_clust_7="13000.00000" pt_clust_8="13000.00000" pt_clust_9="40.35497"></scales>
<clustering>
<clus scale="   40.355">  2  9  1 -1</clus>
<clus scale="   78.508">  5  6 -1 -1</clus>
<clus scale="   82.874">  1  5  2 -1</clus>
<clus scale="   91.922">  7  8 -1 -1</clus>
<clus scale="   40.355">  2  5  1 -1</clus>
</clustering>
</event>
<event>
 9    2  0.3745229E-005  0.1398593E+03  0.7546771E-02  0.1216409E+00
          2   -1    0    0  502    0 -0.00000000000E+00  0.00000000000E+00  0.51460294665E+03  0.51460294665E+03  0.00000000000E+00 0. -1.
         21   -1    0    0  501  502  0.00000000000E+00 -0.00000000000E+00 -0.11181509545E+03  0.11181509545E+03  0.00000000000E+00 0.  1.
         23    2    1    2    0    0  0.10405363229E+03  0.11528411342E+02  0.30183613004E+03  0.33264789715E+03  0.92679617093E+02 0.  0.
         24    2    1    2    0    0 -0.10029710856E+03 -0.42834263264E+02 -0.46640408376E+02  0.14284763325E+03  0.79597955609E+02 0.  0.
        -13    1    4    4    0    0 -0.65422766522E+02 -0.42680989351E+02 -0.66611803950E+02  0.10265932815E+03  0.00000000000E+00 0.  1.
         14    1    4    4    0    0 -0.34874342038E+02 -0.15327391259E+00  0.19971395574E+02  0.40188305098E+02  0.00000000000E+00 0. -1.
        -11    1    3    3    0    0  0.78302486788E+02 -0.35506179468E+02  0.17669676839E+03  0.19650373069E+03  0.00000000000E+00 0.  1.
         11    1    3    3    0    0  0.25751145502E+02  0.47034590810E+02  0.12513936165E+03  0.13614416646E+03  0.00000000000E+00 0. -1.
          1    1    1    2  501    0 -0.37565237297E+01  0.31305851922E+02  0.14759212954E+03  0.15092251170E+03  0.00000000000E+00 0. -1.
<scales pt_clust_5="13000.00000" pt_clust_6="13000.00000" pt_clust_7="13000.00000" pt_clust_8="13000.00000" pt_clust_9="31.53044"></scales>
<clustering>
<clus scale="   31.530">  2  9  1 -1</clus>
<clus scale="   79.598">  5  6 -1 -1</clus>
<clus scale="   92.680">  7  8 -1 -1</clus>
<clus scale="  131.556">  2  5  1 -1</clus>
<clus scale="   31.530">  2  5  1 -1</clus>
</clustering>
</event>
<event>
 9    2  0.3745229E-005  0.1955386E+03  0.7546771E-02  0.1172812E+00
          2   -1    0    0  502    0 -0.00000000000E+00  0.00000000000E+00  0.84680999841E+03  0.84680999841E+03  0.00000000000E+00 0. -1.
         21   -1    0    0  501  502  0.00000000000E+00 -0.00000000000E+00 -0.13545034872E+03  0.13545034872E+03  0.00000000000E+00 0. -1.
         23    2    1    2    0    0  0.14602169314E+02  0.83956781020E+02  0.45643674572E+03  0.47330100764E+03  0.91746261851E+02 0.  0.
         24    2    1    2    0    0  0.11641999580E+03  0.60650819976E+02  0.27280984607E+03  0.31300498584E+03  0.79465537582E+02 0.  0.
        -13    1    4    4    0    0  0.69205135468E+02  0.70943351609E+02  0.13882127290E+03  0.17056862467E+03  0.00000000000E+00 0.  1.
         14    1    4    4    0    0  0.47214860335E+02 -0.10292531633E+02  0.13398857316E+03  0.14243636117E+03  0.00000000000E+00 0. -1.
        -13    1    3    3    0    0 -0.16560001720E+02  0.91626628366E+02  0.34249987889E+03  0.35493075342E+03  0.00000000000E+00 0. -1.
         13    1    3    3    0    0  0.31162171034E+02 -0.76698473461E+01  0.11393686683E+03  0.11837025422E+03  0.00000000000E+00 0.  1.
          1    1    1    2  501    0 -0.13102216512E+03 -0.14460760100E+03 -0.17886942092E+02  0.19595435365E+03  0.00000000000E+00 0. -1.
<scales pt_clust_5="13000.00000" pt_clust_6="13000.00000" pt_clust_7="13000.00000" pt_clust_8="13000.00000" pt_clust_9="178.66328"></scales>
<clustering>
<clus scale="   79.466">  5  6 -1 -1</clus>
<clus scale="   91.746">  7  8 -1 -1</clus>
<clus scale="  125.217">  1  7  2 -1</clus>
<clus scale="  178.663">  2  9  1 -1</clus>
<clus scale="  178.663">  2  5  1 -1</clus>
</clustering>
</event>
<event>
 9    2  0.3745229E-005  0.1969192E+03  0.7546771E-02  0.1154488E+00
         -1   -1    0    0    0  501 -0.00000000000E+00  0.00000000000E+00  0.85979774783E+03  0.85979774783E+03  0.00000000000E+00 0.  1.
         21   -1    0    0  501  502  0.00000000000E+00 -0.00000000000E+00 -0.16648793293E+03  0.16648793293E+03  0.00000000000E+00 0.  1.
         23    2    1    2    0    0 -0.16054776925E+03 -0.53919253883E+02  0.65696113224E+03  0.68429606239E+03  0.89332522528E+02 0.  0.
         24    2    1    2    0    0  0.22745906280E+03 -0.74342460892E+01  0.67101942589E+02  0.24614006876E+03  0.65493278157E+02 0.  0.
        -13    1    4    4    0    0  0.20839727250E+03 -0.15202245422E+02  0.77771865419E+02  0.22295514011E+03  0.00000000000E+00 0.  1.
         14    1    4    4    0    0  0.19061790297E+02  0.77679993328E+01 -0.10669922831E+02  0.23184928643E+02  0.00000000000E+00 0. -1.
        -11    1    3    3    0    0 -0.12694967693E+03 -0.64600743943E+02  0.60473588607E+03  0.62128493342E+03  0.00000000000E+00 0.  1.
         11    1    3    3    0    0 -0.33598092312E+02  0.10681490060E+02  0.52225246168E+02  0.63011128971E+02  0.00000000000E+00 0. -1.
         -2    1    1    2    0  502 -0.66911293555E+02  0.61353499972E+02 -0.30753259923E+02  0.95849549607E+02  0.00000000000E+00 0.  1.
<scales pt_clust_5="13000.00000" pt_clust_6="13000.00000" pt_clust_7="13000.00000" pt_clust_8="13000.00000" pt_clust_9="90.78201"></scales>
<clustering>
<clus scale="   65.493">  5  6 -1 -1</clus>
<clus scale="   89.333">  7  8 -1 -1</clus>
<clus scale="   90.782">  2  9  1 -1</clus>
<clus scale="  187.313">  2  5  1 -1</clus>
<clus scale="   90.782">  2  5  1 -1</clus>
</clustering>
</event>
<event>
 9    2  0.3745229E-005  0.1250703E+03  0.7546771E-02  0.1249251E+00
         21   -1    0    0  501  502  0.00000000000E+00  0.00000000000E+00  0.18997863538E+03  0.18997863538E+03  0.00000000000E+00 0.  1.
         -1   -1    0    0    0  501 -0.00000000000E+00 -0.00000000000E+00 -0.31715899964E+03  0.31715899964E+03  0.00000000000E+00 0.  1.
         23    2    1    2    0    0 -0.11831571605E+01 -0.20942055081E+02 -0.19799590233E+03  0.21902872884E+03  0.91275611108E+02 0.  0.
         24    2    1    2    0    0  0.37737643607E+02 -0.72468475218E+02 -0.55954905275E+02  0.12645339914E+03  0.78636512417E+02 0.  0.
        -13    1    4    4    0    0  0.35732622811E+02 -0.87358111369E+02 -0.34989211523E+02  0.10066034412E+03  0.00000000000E+00 0.  1.
         14    1    4    4    0    0  0.20050207963E+01  0.14889636150E+02 -0.20965693752E+02  0.25793055026E+02  0.00000000000E+00 0. -1.
        -13    1    3    3    0    0 -0.32963253700E+02 -0.45190321146E+01 -0.23081787195E+02  0.40494032225E+02  0.00000000000E+00 0.  1.
         13    1    3    3    0    0  0.31780096539E+02 -0.16423022966E+02 -0.17491411514E+03  0.17853469661E+03  0.00000000000E+00 0. -1.
         -2    1    1    2    0  502 -0.36554486447E+02  0.93410530299E+02  0.12677044335E+03  0.16165550704E+03  0.00000000000E+00 0.  1.
<scales pt_clust_5="13000.00000" pt_clust_6="13000.00000" pt_clust_7="13000.00000" pt_clust_8="13000.00000" pt_clust_9="97.25673"></scales>
<clustering>
<clus scale="   78.637">  5  6 -1 -1</clus>
<clus scale="   91.276">  7  8 -1 -1</clus>
<clus scale="   93.655">  2  7  1 -1</clus>
<clus scale="   97.257">  1  9  2 -1</clus>
<clus scale="   97.257">  1  5  2 -1</clus>
</clustering>
</event>
<event>
 9    2  0.3745229E-005  0.1103972E+03  0.7546771E-02  0.1263581E+00
          2   -1    0    0  502    0 -0.00000000000E+00  0.00000000000E+00  0.11772323871E+04  0.11772323871E+04  0.00000000000E+00 0. -1.
         21   -1    0    0  501  502  0.00000000000E+00 -0.00000000000E+00 -0.20831438356E+02  0.20831438356E+02  0.00000000000E+00 0.  1.
         24    2    1    2    0    0 -0.29163749332E+02  0.88380327166E+02  0.69129692306E+03  0.70222136269E+03  0.81004937373E+02 0.  0.
         23    2    1    2    0    0 -0.54835568197E+01 -0.29188737225E+02  0.34036239642E+03  0.35348883895E+03  0.90695901699E+02 0.  0.
        -13    1    3    3    0    0  0.26519022569E+02  0.27692508949E+02  0.15703434079E+03  0.16164751095E+03  0.00000000000E+00 0.  1.
         14    1    3    3    0    0 -0.55682771901E+02  0.60687818218E+02  0.53426258227E+03  0.54057385174E+03  0.00000000000E+00 0. -1.
        -13    1    4    4    0    0 -0.12176118231E+02  0.30947938964E+02  0.15398429849E+03  0.15753474843E+03  0.00000000000E+00 0.  1.
         13    1    4    4    0    0  0.66925614115E+01 -0.60136676189E+02  0.18637809793E+03  0.19595409052E+03  0.00000000000E+00 0. -1.
          1    1    1    2  501    0  0.34647306152E+02 -0.59191589941E+02  0.12474162924E+03  0.14235362380E+03  0.00000000000E+00 0. -1.
<scales pt_clust_5="13000.00000" pt_clust_6="13000.00000" pt_clust_7="13000.00000" pt_clust_8="13000.00000" pt_clust_9="68.58630"></scales>
<clustering>
<clus scale="   68.586">  2  9  1 -1</clus>
<clus scale="   81.005">  5  6 -1 -1</clus>
<clus scale="   90.696">  7  8 -1 -1</clus>
<clus scale="  102.585">  1  5  2 -1</clus>
<clus scale="   68.586">  2  5  1 -1</clus>
</clustering>
</event>
<event>
 9    2  0.3745229E-005  0.1472388E+03  0.7546771E-02  0.1222908E+00
          2   -1    0    0  502    0 -0.00000000000E+00  0.00000000000E+00  0.48037525365E+03  0.48037525365E+03  0.00000000000E+00 0. -1.
         21   -1    0    0  501  502  0.00000000000E+00 -0.00000000000E+00 -0.80370422677E+02  0.80370422677E+02  0.00000000000E+00 0. -1.
         24    2    1    2    0    0 -0.55062262729E+02  0.74514111182E+01  0.47710342658E+02  0.10932118668E+03  0.81163222932E+02 0.  0.
         23    2    1    2    0    0 -0.57615818713E+02 -0.67528441059E+02  0.27228067340E+03  0.30073338128E+03  0.91783051749E+02 0.  0.
        -13    1    3    3    0    0 -0.37919470461E+02 -0.34323452646E+02  0.14173880586E+02  0.53074330259E+02  0.00000000000E+00 0.  1.
         14    1    3    3    0    0 -0.17142792268E+02  0.41774863764E+02  0.33536462072E+02  0.56246856424E+02  0.00000000000E+00 0. -1.
        -11    1    4    4    0    0 -0.67360239215E+02 -0.35380151612E+02  0.24766029328E+03  0.25908449939E+03  0.00000000000E+00 0. -1.
         11    1    4    4    0    0  0.97444205017E+01 -0.32148289447E+02  0.24620380120E+02  0.41648881889E+02  0.00000000000E+00 0.  1.
          1    1    1    2  501    0  0.11267808144E+03  0.60077029941E+02  0.80013814914E+02  0.15069110837E+03  0.00000000000E+00 0. -1.
<scales pt_clust_5="13000.00000" pt_clust_6="13000.00000" pt_clust_7="13000.00000" pt_clust_8="13000.00000" pt_clust_9="115.13093"></scales>
<clustering>
<clus scale="   81.163">  5  6 -1 -1</clus>
<clus scale="   91.783">  7  8 -1 -1</clus>
<clus scale="   98.361">  1  5  2 -1</clus>
<clus scale="  115.131">  2  9  1 -1</clus>
<clus scale="  115.131">  2  5  1 -1</clus>
</clustering>
</event>
<event>
 9    2  0.3745229E-005  0.9481479E+02  0.7546771E-02  0.1298267E+00
         -3   -1    0    0    0  501 -0.00000000000E+00  0.00000000000E+00  0.42716228608E+03  0.42716228608E+03  0.00000000000E+00 0.  1.
         21   -1    0    0  501  502  0.00000000000E+00 -0.00000000000E+00 -0.10277240386E+03  0.10277240386E+03  0.00000000000E+00 0.  1.
         24    2    1    2    0    0 -0.63587483073E+01 -0.22619353345E+02  0.35397779640E+03  0.36366416984E+03  0.79995495206E+02 0.  0.
         23    2    1    2    0    0 -0.24888187400E+02  0.42447781133E+02  0.18558913608E+02  0.10554445842E+03  0.91509362546E+02 0.  0.
        -11    1    3    3    0    0 -0.20575052352E+02 -0.48877052385E+02  0.24469498755E+03  0.25037558979E+03  0.00000000000E+00 0.  1.
         12    1    3    3    0    0  0.14216304045E+02  0.26257699040E+02  0.10928280885E+03  0.11328858005E+03  0.00000000000E+00 0. -1.
        -11    1    4    4    0    0 -0.15443224938E+02  0.69446135744E+02 -0.55200386344E+00  0.71144667225E+02  0.00000000000E+00 0. -1.
         11    1    4    4    0    0 -0.94449624620E+01 -0.26998354611E+02  0.19110917471E+02  0.34399791194E+02  0.00000000000E+00 0.  1.
         -4    1    1    2    0  502  0.31246935707E+02 -0.19828427788E+02 -0.48146827801E+02  0.60726061678E+02  0.00000000000E+00 0.  1.
<scales pt_clust_5="13000.00000" pt_clust_6="13000.00000" pt_clust_7="13000.00000" pt_clust_8="13000.00000" pt_clust_9="37.00726"></scales>
<clustering>
<clus scale="   37.007">  2  9  1 -1</clus>
<clus scale="   79.995">  5  6 -1 -1</clus>
<clus scale="   83.757">  1  5  2 -1</clus>
<clus scale="   91.509">  7  8 -1 -1</clus>
<clus scale="   37.007">  2  5  1 -1</clus>
</clustering>
</event>
<event>
 9    2  0.3745229E-005  0.9150815E+02  0.7546771E-02  0.1308385E+00
         21   -1    0    0  501  502  0.00000000000E+00  0.00000000000E+00  0.13297124589E+03  0.13297124589E+03  0.00000000000E+00 0.  1.
         -3   -1    0    0    0  501 -0.00000000000E+00 -0.00000000000E+00 -0.22482572122E+03  0.22482572122E+03  0.00000000000E+00 0.  1.
         24    2    1    2    0    0  0.48092937553E+01  0.37556408148E+01 -0.81673992001E+02  0.11238105790E+03  0.76952108874E+02 0.  0.
         23    2    1    2    0    0 -0.33179894470E+02  0.30337974014E+02  0.90068175919E+02  0.13579356095E+03  0.91138997246E+02 0.  0.
        -13    1    3    3    0    0 -0.29679331369E+02  0.15460262742E+02 -0.63269066577E+02  0.71574137928E+02  0.00000000000E+00 0.  1.
         14    1    3    3    0    0  0.34488625125E+02 -0.11704621927E+02 -0.18404925424E+02  0.40806919968E+02  0.00000000000E+00 0. -1.
        -11    1    4    4    0    0  0.51404886851E+00  0.27208857462E+02  0.97433276176E+02  0.10116239161E+03  0.00000000000E+00 0.  1.
         11    1    4    4    0    0 -0.33693943339E+02  0.31291165524E+01 -0.73651002574E+01  0.34631169341E+02  0.00000000000E+00 0. -1.
         -4    1    1    2    0  502  0.28370600715E+02 -0.34093614829E+02 -0.10024865925E+03  0.10962234826E+03  0.00000000000E+00 0.  1.
<scales pt_clust_5="13000.00000" pt_clust_6="13000.00000" pt_clust_7="13000.00000" pt_clust_8="13000.00000" pt_clust_9="44.35389"></scales>
<clustering>
<clus scale="   44.354">  1  9  2 -1</clus>
<clus scale="   76.952">  5  6 -1 -1</clus>
<clus scale="   77.389">  2  5  1 -1</clus>
<clus scale="   91.139">  7  8 -1 -1</clus>
<clus scale="   44.354">  1  5  2 -1</clus>
</clustering>
</event>
<event>
 9    2  0.3745229E-005  0.2139951E+03  0.7546771E-02  0.1139477E+00
         21   -1    0    0  501  502  0.00000000000E+00  0.00000000000E+00  0.39373955228E+03  0.39373955228E+03  0.00000000000E+00 0.  1.
         -3   -1    0    0    0  501 -0.00000000000E+00 -0.00000000000E+00 -0.18324276386E+03  0.18324276386E+03  0.00000000000E+00 0.  1.
         23    2    1    2    0    0  0.76220237067E+02  0.16784757996E+03  0.73676902899E+02  0.21935028242E+03  0.93294832330E+02 0.  0.
         24    2    1    2    0    0 -0.31550524452E+01 -0.21418771108E+03  0.14474360106E+03  0.27074869687E+03  0.80422738533E+02 0.  0.
        -11    1    4    4    0    0  0.23530100292E+02 -0.18902101314E+03  0.13268190680E+03  0.23213594599E+03  0.00000000000E+00 0.  1.
         12    1    4    4    0    0 -0.26685152738E+02 -0.25166697942E+02  0.12061694258E+02  0.38612750877E+02  0.00000000000E+00 0. -1.
        -11    1    3    3    0    0  0.47045621441E+02  0.17086889115E+03  0.61539380278E+02  0.18760747263E+03  0.00000000000E+00 0.  1.
         11    1    3    3    0    0  0.29174615626E+02 -0.30213111896E+01  0.12137522621E+02  0.31742809794E+02  0.00000000000E+00 0. -1.
         -4    1    1    2    0  502 -0.73065184622E+02  0.46340131120E+02 -0.79237155349E+01  0.86883336860E+02  0.00000000000E+00 0.  1.
<scales pt_clust_5="13000.00000" pt_clust_6="13000.00000" pt_clust_7="13000.00000" pt_clust_8="13000.00000" pt_clust_9="86.52131"></scales>
<clustering>
<clus scale="   80.423">  5  6 -1 -1</clus>
<clus scale="   86.521">  1  9  2 -1</clus>
<clus scale="   93.295">  7  8 -1 -1</clus>
<clus scale="  208.705">  1  5  2 -1</clus>
<clus scale="   86.521">  1  5  2 -1</clus>
</clustering>
</event>
<event>
 9    2  0.3745229E-005  0.1048011E+03  0.7546771E-02  0.1275053E+00
         21   -1    0    0  501  502  0.00000000000E+00  0.00000000000E+00  0.55439103915E+03  0.55439103915E+03  0.00000000000E+00 0. -1.
          2   -1    0    0  502    0 -0.00000000000E+00 -0.00000000000E+00 -0.35000690233E+02  0.35000690233E+02  0.00000000000E+00 0. -1.
         24    2    1    2    0    0  0.49557418600E+02 -0.64919900246E+01  0.61897149744E+02  0.11287032704E+03  0.80064785685E+02 0.  0.
         23    2    1    2    0    0 -0.67449588067E+02 -0.34301452245E+01  0.38489748834E+03  0.40109782694E+03  0.90400096322E+02 0.  0.
        -13    1    3    3    0    0  0.45927666911E+01 -0.38114767895E+02  0.33728561535E+02  0.51102298390E+02  0.00000000000E+00 0.  1.
         14    1    3    3    0    0  0.44964651909E+02  0.31622777870E+02  0.28168588210E+02  0.61768028649E+02  0.00000000000E+00 0. -1.
        -11    1    4    4    0    0 -0.43578735756E+01  0.37380481372E+02  0.13510248596E+03  0.14024611639E+03  0.00000000000E+00 0.  1.
         11    1    4    4    0    0 -0.63091714491E+02 -0.40810626597E+02  0.24979500238E+03  0.26085171055E+03  0.00000000000E+00 0. -1.
          1    1    1    2  501    0  0.17892169467E+02  0.99221352491E+01  0.72595710832E+02  0.75423575408E+02  0.00000000000E+00 0. -1.
<scales pt_clust_5="13000.00000" pt_clust_6="13000.00000" pt_clust_7="13000.00000" pt_clust_8="13000.00000" pt_clust_9="20.45919"></scales>
<clustering>
<clus scale="   20.459">  1  9  2 -1</clus>
<clus scale="   80.065">  5  6 -1 -1</clus>
<clus scale="   90.400">  7  8 -1 -1</clus>
<clus scale="   96.028">  2  5  1 -1</clus>
<clus scale="   20.459">  1  5  2 -1</clus>
</clustering>
</event>
<event>
 9    2  0.3745229E-005  0.1596975E+03  0.7546771E-02  0.1197558E+00
          2   -1    0    0  502    0 -0.00000000000E+00  0.00000000000E+00  0.61174196881E+03  0.61174196881E+03  0.00000000000E+00 0. -1.
         21   -1    0    0  501  502  0.00000000000E+00 -0.00000000000E+00 -0.99402111004E+02  0.99402111004E+02  0.00000000000E+00 0.  1.
         23    2    1    2    0    0  0.10435082339E+02  0.97352715169E+02  0.17003195440E+03  0.21552445350E+03  0.89182298929E+02 0.  0.
         24    2    1    2    0    0  0.12423828711E+03 -0.81485484070E+02  0.54083814999E+02  0.17708892042E+03  0.79752056990E+02 0.  0.
        -13    1    4    4    0    0  0.11781313543E+03 -0.46049826494E+02  0.60974369781E+02  0.14042220327E+03  0.00000000000E+00 0.  1.
         14    1    4    4    0    0  0.64251516796E+01 -0.35435657576E+02 -0.68905547817E+01  0.36666717158E+02  0.00000000000E+00 0. -1.
        -13    1    3    3    0    0 -0.30074999734E+02  0.97299335387E+01  0.68415444739E+02  0.75364781527E+02  0.00000000000E+00 0. -1.
         13    1    3    3    0    0  0.40510082073E+02  0.87622781631E+02  0.10161650966E+03  0.14015967197E+03  0.00000000000E+00 0.  1.
          1    1    1    2  501    0 -0.13467336945E+03 -0.15867231099E+02  0.28822408840E+03  0.31853070589E+03  0.00000000000E+00 0. -1.
<scales pt_clust_5="13000.00000" pt_clust_6="13000.00000" pt_clust_7="13000.00000" pt_clust_8="13000.00000" pt_clust_9="138.35797"></scales>
<clustering>
<clus scale="   79.752">  5  6 -1 -1</clus>
<clus scale="   89.182">  7  8 -1 -1</clus>
<clus scale="  132.438">  1  7  2 -1</clus>
<clus scale="  138.358">  2  9  1 -1</clus>
<clus scale="  138.358">  2  5  1 -1</clus>
</clustering>
</event>
<event>
 9    2  0.3745229E-005  0.1739339E+03  0.7546771E-02  0.1174632E+00
         21   -1    0    0  501  502  0.00000000000E+00  0.00000000000E+00  0.16736149555E+03  0.16736149555E+03  0.00000000000E+00 0.  1.
          4   -1    0    0  502    0 -0.00000000000E+00 -0.00000000000E+00 -0.30297258763E+03  0.30297258763E+03  0.00000000000E+00 0. -1.
         24    2    1    2    0    0 -0.33211760832E+02  0.11182798125E+03  0.74938836708E+01  0.14130279317E+03  0.79383893940E+02 0.  0.
         23    2    1    2    0    0  0.81312837441E+02 -0.17003671090E+03 -0.57846621773E+02  0.21514118200E+03  0.86111764315E+02 0.  0.
        -13    1    3    3    0    0 -0.57884824602E+02  0.79023344792E+02  0.16349365678E+02  0.99310843816E+02  0.00000000000E+00 0.  1.
         14    1    3    3    0    0  0.24673063770E+02  0.32804636459E+02 -0.88554820074E+01  0.41991949354E+02  0.00000000000E+00 0. -1.
        -13    1    4    4    0    0  0.38402169488E+02 -0.22785597805E+02 -0.41388779282E+02  0.60884654382E+02  0.00000000000E+00 0.  1.
         13    1    4    4    0    0  0.42910667953E+02 -0.14725111310E+03 -0.16457842490E+02  0.15425652761E+03  0.00000000000E+00 0. -1.
          3    1    1    2  501    0 -0.48101076609E+02  0.58208729650E+02 -0.85258353980E+02  0.11389010801E+03  0.00000000000E+00 0. -1.
<scales pt_clust_5="13000.00000" pt_clust_6="13000.00000" pt_clust_7="13000.00000" pt_clust_8="13000.00000" pt_clust_9="75.51143"></scales>
<clustering>
<clus scale="   75.511">  1  9  2 -1</clus>
<clus scale="   79.384">  5  6 -1 -1</clus>
<clus scale="   86.112">  7  8 -1 -1</clus>
<clus scale="  170.703">  2  5  1 -1</clus>
<clus scale="   75.511">  1  5  2 -1</clus>
</clustering>
</event>
<event>
 9    2  0.3745229E-005  0.1158734E+03  0.7546771E-02  0.1253956E+00
         -1   -1    0    0    0  501 -0.00000000000E+00  0.00000000000E+00  0.17475160542E+03  0.17475160542E+03  0.00000000000E+00 0.  1.
         21   -1    0    0  501  502  0.00000000000E+00 -0.00000000000E+00 -0.10030362760E+03  0.10030362760E+03  0.00000000000E+00 0.  1.
         24    2    1    2    0    0  0.10676746240E+02 -0.75102458087E+02  0.80876164540E+02  0.13693245338E+03  0.80344076809E+02 0.  0.
         23    2    1    2    0    0  0.55918359124E+01  0.60528637101E+02 -0.20970938245E+02  0.11188245484E+03  0.91558281506E+02 0.  0.
        -11    1    3    3    0    0  0.73121041947E+01 -0.92185875834E+02  0.73028377892E+02  0.11783397875E+03  0.00000000000E+00 0.  1.
         12    1    3    3    0    0  0.33646420458E+01  0.17083417747E+02  0.78477866474E+01  0.19098474632E+02  0.00000000000E+00 0. -1.
        -13    1    4    4    0    0 -0.22950760289E+02  0.16872477373E+02  0.28284319821E+02  0.40142504136E+02  0.00000000000E+00 0. -1.
         13    1    4    4    0    0  0.28542596202E+02  0.43656159728E+02 -0.49255258066E+02  0.71739950706E+02  0.00000000000E+00 0.  1.
         -2    1    1    2    0  502 -0.16268582153E+02  0.14573820986E+02  0.14542751524E+02  0.26240324794E+02  0.00000000000E+00 0.  1.
<scales pt_clust_5="13000.00000" pt_clust_6="13000.00000" pt_clust_7="13000.00000" pt_clust_8="13000.00000" pt_clust_9="21.84178"></scales>
<clustering>
<clus scale="   21.842">  2  9  1 -1</clus>
<clus scale="   80.344">  5  6 -1 -1</clus>
<clus scale="   91.558">  7  8 -1 -1</clus>
<clus scale="  107.233">  1  5  2 -1</clus>
<clus scale="   21.842">  2  5  1 -1</clus>
</clustering>
</event>
<event>
 9    2  0.3745229E-005  0.2962401E+03  0.7546771E-02  0.1104841E+00
         21   -1    0    0  501  502  0.00000000000E+00  0.00000000000E+00  0.12518819651E+03  0.12518819651E+03  0.00000000000E+00 0. -1.
          2   -1    0    0  502    0 -0.00000000000E+00 -0.00000000000E+00 -0.14508275331E+04  0.14508275331E+04  0.00000000000E+00 0. -1.
         23    2    1    2    0    0  0.95702466440E+02  0.13281846295E+03 -0.14262150711E+03  0.23476283412E+03  0.89291588691E+02 0.  0.
         24    2    1    2    0    0 -0.56240791274E+02 -0.37231404107E+03 -0.79389628495E+03  0.88263439154E+03  0.83614508833E+02 0.  0.
        -13    1    4    4    0    0 -0.10940496093E+02 -0.34775936355E+02 -0.33734012731E+02  0.49669344862E+02  0.00000000000E+00 0.  1.
         14    1    4    4    0    0 -0.45300295182E+02 -0.33753810471E+03 -0.76016227222E+03  0.83296504667E+03  0.00000000000E+00 0. -1.
        -11    1    3    3    0    0  0.95113621065E+02  0.58507566639E+02 -0.93916455365E+02  0.14591105803E+03  0.00000000000E+00 0.  1.
         11    1    3    3    0    0  0.58884537456E+00  0.74310896314E+02 -0.48705051747E+02  0.88851776097E+02  0.00000000000E+00 0. -1.
          1    1    1    2  501    0 -0.39461675165E+02  0.23949557811E+03 -0.38912154451E+03  0.45861850393E+03  0.00000000000E+00 0. -1.
<scales pt_clust_5="13000.00000" pt_clust_6="13000.00000" pt_clust_7="13000.00000" pt_clust_8="13000.00000" pt_clust_9="284.19507"></scales>
<clustering>
<clus scale="   83.615">  5  6 -1 -1</clus>
<clus scale="   89.292">  7  8 -1 -1</clus>
<clus scale="  186.474">  2  7  1 -1</clus>
<clus scale="  284.195">  1  9  2 -1</clus>
<clus scale="  284.195">  1  5  2 -1</clus>
</clustering>
</event>
<event>
 9    2  0.3745229E-005  0.4042661E+03  0.7546771E-02  0.1072743E+00
         21   -1    0    0  501  502  0.00000000000E+00  0.00000000000E+00  0.79593370932E+03  0.79593370932E+03  0.00000000000E+00 0. -1.
          2   -1    0    0  502    0 -0.00000000000E+00 -0.00000000000E+00 -0.33191228141E+03  0.33191228141E+03  0.00000000000E+00 0. -1.
         24    2    1    2    0    0 -0.52266380954E+02  0.14062131178E+03  0.93284510885E+02  0.19547727156E+03  0.83685338128E+02 0.  0.
         23    2    1    2    0    0  0.39125562755E+03  0.75616766429E+02  0.33459921510E+03  0.52866270079E+03  0.93427806385E+02 0.  0.
        -13    1    3    3    0    0  0.21049472026E+02  0.51273111989E+02  0.39092589404E+02  0.67825089989E+02  0.00000000000E+00 0.  1.
         14    1    3    3    0    0 -0.73315852980E+02  0.89348199795E+02  0.54191921481E+02  0.12765218157E+03  0.00000000000E+00 0. -1.
        -11    1    4    4    0    0  0.89412860142E+02 -0.17943815475E+02  0.98199932155E+02  0.13401442739E+03  0.00000000000E+00 0.  1.
         11    1    4    4    0    0  0.30184276741E+03  0.93560581904E+02  0.23639928294E+03  0.39464827340E+03  0.00000000000E+00 0. -1.
          1    1    1    2  501    0 -0.33898924660E+03 -0.21623807821E+03  0.36137701923E+02  0.40370601838E+03  0.00000000000E+00 0. -1.
<scales pt_clust_5="13000.00000" pt_clust_6="13000.00000" pt_clust_7="13000.00000" pt_clust_8="13000.00000" pt_clust_9="393.32232"></scales>
<clustering>
<clus scale="   83.685">  5  6 -1 -1</clus>
<clus scale="   93.428">  7  8 -1 -1</clus>
<clus scale="  171.783">  2  5  1 -1</clus>
<clus scale="  393.322">  1  9  2 -1</clus>
<clus scale="  393.322">  1  5  2 -1</clus>
</clustering>
</event>
<event>
 9    2  0.3745229E-005  0.1131815E+03  0.7546771E-02  0.1259216E+00
          2   -1    0    0  502    0 -0.00000000000E+00  0.00000000000E+00  0.11493434494E+04  0.11493434494E+04  0.00000000000E+00 0. -1.
         21   -1    0    0  501  502  0.00000000000E+00 -0.00000000000E+00 -0.21459792569E+02  0.21459792569E+02  0.00000000000E+00 0.  1.
         24    2    1    2    0    0 -0.67766179696E+02 -0.11136142947E+02  0.89132906901E+03  0.89753381616E+03  0.79894762668E+02 0.  0.
         23    2    1    2    0    0  0.49099126598E+02  0.20850234998E+02  0.14753875354E+03  0.18180008007E+03  0.91859287976E+02 0.  0.
        -11    1    3    3    0    0 -0.20507791261E+02  0.95465695600E+01  0.53082889622E+02  0.57701816812E+02  0.00000000000E+00 0.  1.
         12    1    3    3    0    0 -0.47258388435E+02 -0.20682712507E+02  0.83824617939E+03  0.83983199935E+03  0.00000000000E+00 0. -1.
        -13    1    4    4    0    0  0.85657478800E+01  0.46207824597E+02  0.32266994696E+02  0.57006087722E+02  0.00000000000E+00 0.  1.
         13    1    4    4    0    0  0.40533378718E+02 -0.25357589599E+02  0.11527175884E+03  0.12479399235E+03  0.00000000000E+00 0. -1.
          1    1    1    2  501    0  0.18667053098E+02 -0.97140920511E+01  0.89015834319E+02  0.91469345768E+02  0.00000000000E+00 0. -1.
<scales pt_clust_5="13000.00000" pt_clust_6="13000.00000" pt_clust_7="13000.00000" pt_clust_8="13000.00000" pt_clust_9="21.04336"></scales>
<clustering>
<clus scale="   21.043">  2  9  1 -1</clus>
<clus scale="   79.895">  5  6 -1 -1</clus>
<clus scale="   91.859">  7  8 -1 -1</clus>
<clus scale="  103.707">  1  5  2 -1</clus>
<clus scale="   21.043">  2  5  1 -1</clus>
</clustering>
</event>
<event>
 9    2  0.3745229E-005  0.1316339E+03  0.7546771E-02  0.1228030E+00
         21   -1    0    0  501  502  0.00000000000E+00  0.00000000000E+00  0.51439506607E+03  0.51439506607E+03  0.00000000000E+00 0. -1.
         -1   -1    0    0    0  501 -0.00000000000E+00 -0.00000000000E+00 -0.81451387219E+02  0.81451387219E+02  0.00000000000E+00 0.  1.
         23    2    1    2    0    0 -0.76054319375E+02 -0.35202545009E+02  0.65253125201E+02  0.14043836659E+03  0.91877558696E+02 0.  0.
         24    2    1    2    0    0  0.53247971667E+02  0.13525138796E+03  0.23302257898E+03  0.28609959939E+03  0.80157183238E+02 0.  0.
        -11    1    4    4    0    0  0.24780070964E+02  0.29048601832E+02  0.13354043555E+02  0.40450014396E+02  0.00000000000E+00 0.  1.
         12    1    4    4    0    0  0.28467900703E+02  0.10620278613E+03  0.21966853542E+03  0.24564958499E+03  0.00000000000E+00 0. -1.
        -11    1    3    3    0    0  0.21013684507E+02 -0.13139101593E+02  0.11764301980E+02  0.27433733401E+02  0.00000000000E+00 0.  1.
         11    1    3    3    0    0 -0.97068003883E+02 -0.22063443417E+02  0.53488823221E+02  0.11300463319E+03  0.00000000000E+00 0. -1.
         -2    1    1    2    0  502  0.22806347709E+02 -0.10004884295E+03  0.13466797467E+03  0.16930848731E+03  0.00000000000E+00 0.  1.
<scales pt_clust_5="13000.00000" pt_clust_6="13000.00000" pt_clust_7="13000.00000" pt_clust_8="13000.00000" pt_clust_9="102.61530"></scales>
<clustering>
<clus scale="   80.157">  5  6 -1 -1</clus>
<clus scale="   91.878">  7  8 -1 -1</clus>
<clus scale="  102.615">  1  9  2 -1</clus>
<clus scale="  123.738">  1  5  2 -1</clus>
<clus scale="  102.615">  1  5  2 -1</clus>
</clustering>
</event>
<event>
 9    2  0.3745229E-005  0.1224896E+03  0.7546771E-02  0.1241066E+00
          4   -1    0    0  502    0 -0.00000000000E+00  0.00000000000E+00  0.38363775489E+03  0.38363775489E+03  0.00000000000E+00 0. -1.
         21   -1    0    0  501  502  0.00000000000E+00 -0.00000000000E+00 -0.81423923906E+02  0.81423923906E+02  0.00000000000E+00 0.  1.
         23    2    1    2    0    0 -0.75911893870E+02  0.35157025439E+02  0.27499297772E+03  0.30144321738E+03  0.90819840582E+02 0.  0.
         24    2    1    2    0    0  0.78862918908E+02 -0.14008721456E+02  0.55083229856E+02  0.12851473884E+03  0.84061118426E+02 0.  0.
        -11    1    4    4    0    0  0.82419184944E+02 -0.34793047378E+02  0.58865730710E+02  0.10709179448E+03  0.00000000000E+00 0.  1.
         12    1    4    4    0    0 -0.35562660359E+01  0.20784325923E+02 -0.37825008545E+01  0.21422944356E+02  0.00000000000E+00 0. -1.
        -11    1    3    3    0    0  0.37911474564E+01 -0.20386029547E+02  0.91502005265E+02  0.93822065461E+02  0.00000000000E+00 0.  1.
         11    1    3    3    0    0 -0.79703041326E+02  0.55543054987E+02  0.18349097245E+03  0.20762115192E+03  0.00000000000E+00 0. -1.
          3    1    1    2  501    0 -0.29510250387E+01 -0.21148303984E+02 -0.27862376586E+02  0.35103722583E+02  0.00000000000E+00 0. -1.
<scales pt_clust_5="13000.00000" pt_clust_6="13000.00000" pt_clust_7="13000.00000" pt_clust_8="13000.00000" pt_clust_9="21.35320"></scales>
<clustering>
<clus scale="   21.353">  2  9  1 -1</clus>
<clus scale="   84.061">  5  6 -1 -1</clus>
<clus scale="   90.820">  7  8 -1 -1</clus>
<clus scale="  117.566">  2  5  1 -1</clus>
<clus scale="   21.353">  2  5  1 -1</clus>
</clustering>
</event>
<event>
 9    2  0.3745229E-005  0.1123739E+03  0.7546771E-02  0.1260460E+00
          2   -1    0    0  502    0 -0.00000000000E+00  0.00000000000E+00  0.39294288742E+03  0.39294288742E+03  0.00000000000E+00 0. -1.
         21   -1    0    0  501  502  0.00000000000E+00 -0.00000000000E+00 -0.59540482828E+02  0.59540482828E+02  0.00000000000E+00 0. -1.
         23    2    1    2    0    0  0.43423278008E+02 -0.49753583148E+02  0.28259341981E+03  0.30402680132E+03  0.90621492440E+02 0.  0.
         24    2    1    2    0    0 -0.19834528667E+02  0.70640998763E+02  0.38740025129E+02  0.11471678509E+03  0.79218634168E+02 0.  0.
        -13    1    4    4    0    0 -0.24759352164E+02 -0.29718959873E+01 -0.93696785897E+01  0.26639229760E+02  0.00000000000E+00 0.  1.
         14    1    4    4    0    0  0.49248234974E+01  0.73612894751E+02  0.48109703719E+02  0.88077555325E+02  0.00000000000E+00 0. -1.
        -11    1    3    3    0    0 -0.19811851051E+02  0.90867773798E+01  0.30065807314E+02  0.37135316542E+02  0.00000000000E+00 0.  1.
         11    1    3    3    0    0  0.63235129060E+02 -0.58840360528E+02  0.25252761249E+03  0.26689148478E+03  0.00000000000E+00 0. -1.
          1    1    1    2  501    0 -0.23588749341E+02 -0.20887415615E+02  0.12068959652E+02  0.33739783841E+02  0.00000000000E+00 0. -1.
<scales pt_clust_5="13000.00000" pt_clust_6="13000.00000" pt_clust_7="13000.00000" pt_clust_8="13000.00000" pt_clust_9="31.50735"></scales>
<clustering>
<clus scale="   31.507">  2  9  1 -1</clus>
<clus scale="   79.219">  5  6 -1 -1</clus>
<clus scale="   90.621">  7  8 -1 -1</clus>
<clus scale="  103.398">  2  5  1 -1</clus>
<clus scale="   31.507">  2  5  1 -1</clus>
</clustering>
</event>
<event>
 9    2  0.3745229E-005  0.1563837E+03  0.7546771E-02  0.1194625E+00
          4   -1    0    0  502    0 -0.00000000000E+00  0.00000000000E+00  0.79141219885E+03  0.79141219885E+03  0.00000000000E+00 0. -1.
         21   -1    0    0  501  502  0.00000000000E+00 -0.00000000000E+00 -0.70873060017E+02  0.70873060017E+02  0.00000000000E+00 0. -1.
         24    2    1    2    0    0 -0.10037832149E+03  0.36582280248E+02  0.18171519033E+03  0.22542874692E+03  0.79897677627E+02 0.  0.
         23    2    1    2    0    0  0.16645704323E+03 -0.40847373932E+02  0.15747610034E+03  0.24980254957E+03  0.90698050673E+02 0.  0.
        -13    1    3    3    0    0 -0.72869166956E+02 -0.15405023259E+02  0.10608881635E+03  0.12962278808E+03  0.00000000000E+00 0.  1.
         14    1    3    3    0    0 -0.27509154531E+02  0.51987303508E+02  0.75626373976E+02  0.95805958843E+02  0.00000000000E+00 0. -1.
        -11    1    4    4    0    0  0.13982019302E+03 -0.55870912646E+02  0.89244242870E+02  0.17503079770E+03  0.00000000000E+00 0. -1.
         11    1    4    4    0    0  0.26636850205E+02  0.15023538714E+02  0.68231857471E+02  0.74771751874E+02  0.00000000000E+00 0.  1.
          3    1    1    2  501    0 -0.66078721741E+02  0.42650936835E+01  0.38134784817E+03  0.38705396238E+03  0.00000000000E+00 0. -1.
<scales pt_clust_5="13000.00000" pt_clust_6="13000.00000" pt_clust_7="13000.00000" pt_clust_8="13000.00000" pt_clust_9="66.21626"></scales>
<clustering>
<clus scale="   66.216">  2  9  1 -1</clus>
<clus scale="   79.898">  5  6 -1 -1</clus>
<clus scale="   90.698">  7  8 -1 -1</clus>
<clus scale="  150.377">  1  5  2 -1</clus>
<clus scale="   66.216">  2  5  1 -1</clus>
</clustering>
</event>
<event>
 9    2  0.6915170E-005  0.9088341E+02  0.7546771E-02  0.1304540E+00
         21   -1    0    0  501  502  0.00000000000E+00  0.00000000000E+00  0.51720829359E+03  0.51720829359E+03  0.00000000000E+00 0. -1.
          4   -1    0    0  502    0 -0.00000000000E+00 -0.00000000000E+00 -0.86931127200E+02  0.86931127200E+02  0.00000000000E+00 0. -1.
         24    2    1    2    0    0 -0.91856777635E+01  0.23388165346E+02 -0.58151837266E+02  0.10293492248E+03  0.81133095187E+02 0.  0.
         23    2    1    2    0    0 -0.11619703115E+02 -0.16973912165E+02  0.41426523072E+03  0.42391108504E+03  0.87531682539E+02 0.  0.
        -13    1    3    3    0    0  0.62514799846E+01 -0.25579049992E+02 -0.41143240777E+02  0.48848081458E+02  0.00000000000E+00 0.  1.
         14    1    3    3    0    0 -0.15437157748E+02  0.48967215338E+02 -0.17008596489E+02  0.54086841023E+02  0.00000000000E+00 0. -1.
        -11    1    4    4    0    0  0.32898563721E+02 -0.25983858916E+02  0.24960861278E+03  0.25310459497E+03  0.00000000000E+00 0.  1.
         11    1    4    4    0    0 -0.44518266835E+02  0.90099467507E+01  0.16465661793E+03  0.17080649007E+03  0.00000000000E+00 0. -1.
          3    1    1    2  501    0  0.20805380878E+02 -0.64142531812E+01  0.74163772935E+02  0.77293413259E+02  0.00000000000E+00 0. -1.
<scales pt_clust_5="13000.00000" pt_clust_6="13000.00000" pt_clust_7="13000.00000" pt_clust_8="13000.00000" pt_clust_9="21.77169"></scales>
<clustering>
<clus scale="   21.772">  1  9  2 -1</clus>
<clus scale="   81.133">  5  6 -1 -1</clus>
<clus scale="   84.738">  2  5  1 -1</clus>
<clus scale="   87.532">  7  8 -1 -1</clus>
<clus scale="   21.772">  1  5  2 -1</clus>
</clustering>
</event>
<event>
 9    2  0.3745229E-005  0.1071507E+03  0.7546771E-02  0.1270710E+00
         21   -1    0    0  501  502  0.00000000000E+00  0.00000000000E+00  0.36724271770E+03  0.36724271770E+03  0.00000000000E+00 0.  1.
         -3   -1    0    0    0  501 -0.00000000000E+00 -0.00000000000E+00 -0.65578640899E+02  0.65578640899E+02  0.00000000000E+00 0.  1.
         24    2    1    2    0    0 -0.34365531234E+01 -0.55891955292E+02  0.20804518773E+01  0.97837516407E+02  0.80200565915E+02 0.  0.
         23    2    1    2    0    0  0.33884200935E+02  0.51134423850E+02  0.17612164336E+03  0.20773387459E+03  0.91496781459E+02 0.  0.
        -11    1    3    3    0    0 -0.33750946091E+02 -0.57704130785E+02 -0.35817212092E+01  0.66945663030E+02  0.00000000000E+00 0.  1.
         12    1    3    3    0    0  0.30314392968E+02  0.18121754927E+01  0.56621730865E+01  0.30891853378E+02  0.00000000000E+00 0. -1.
        -11    1    4    4    0    0  0.39644067601E+02  0.33978816181E+01  0.20312659833E+02  0.44674398093E+02  0.00000000000E+00 0.  1.
         11    1    4    4    0    0 -0.57598666663E+01  0.47736542231E+02  0.15580898352E+03  0.16305947650E+03  0.00000000000E+00 0. -1.
         -4    1    1    2    0  502 -0.30447647812E+02  0.47575314424E+01  0.12346198156E+03  0.12724996760E+03  0.00000000000E+00 0.  1.
<scales pt_clust_5="13000.00000" pt_clust_6="13000.00000" pt_clust_7="13000.00000" pt_clust_8="13000.00000" pt_clust_9="30.81710"></scales>
<clustering>
<clus scale="   30.817">  1  9  2 -1</clus>
<clus scale="   80.201">  5  6 -1 -1</clus>
<clus scale="   91.497">  7  8 -1 -1</clus>
<clus scale="   97.682">  2  5  1 -1</clus>
<clus scale="   30.817">  1  5  2 -1</clus>
</clustering>
</event>
<event>
 9    2  0.3745229E-005  0.2685438E+03  0.7546771E-02  0.1102116E+00
          2   -1    0    0  502    0 -0.00000000000E+00  0.00000000000E+00  0.25332310573E+03  0.25332310573E+03  0.00000000000E+00 0. -1.
         21   -1    0    0  501  502  0.00000000000E+00 -0.00000000000E+00 -0.24396863331E+03  0.24396863331E+03  0.00000000000E+00 0. -1.
         24    2    1    2    0    0  0.43220114609E+02  0.12412884912E+03  0.10482374202E+03  0.19155816769E+03  0.91818109483E+02 0.  0.
         23    2    1    2    0    0 -0.57806232500E+00  0.38740682779E+02  0.16935169660E+02  0.10329941659E+03  0.94248580038E+02 0.  0.
        -11    1    3    3    0    0  0.10499488064E+02  0.22281217888E+02  0.77257353360E+02  0.81088782013E+02  0.00000000000E+00 0.  1.
         12    1    3    3    0    0  0.32720626544E+02  0.10184763123E+03  0.27566388658E+02  0.11046938568E+03  0.00000000000E+00 0. -1.
        -11    1    4    4    0    0  0.15387357863E+02 -0.22798604867E+02  0.27449830395E+02  0.38859237699E+02  0.00000000000E+00 0. -1.
         11    1    4    4    0    0 -0.15965420188E+02  0.61539287646E+02 -0.10514660735E+02  0.64440178896E+02  0.00000000000E+00 0.  1.
          1    1    1    2  501    0 -0.42642052284E+02 -0.16286953190E+03 -0.11240443927E+03  0.20243415475E+03  0.00000000000E+00 0. -1.
<scales pt_clust_5="13000.00000" pt_clust_6="13000.00000" pt_clust_7="13000.00000" pt_clust_8="13000.00000" pt_clust_9="168.35923"></scales>
<clustering>
<clus scale="   91.818">  5  6 -1 -1</clus>
<clus scale="   94.249">  7  8 -1 -1</clus>
<clus scale="   96.079">  5  7 -1 -1</clus>
<clus scale="  168.359">  2  9  1 -1</clus>
<clus scale="  168.359">  2  5  1 -1</clus>
</clustering>
</event>
<event>
 9    2  0.3745229E-005  0.1020032E+03  0.7546771E-02  0.1278252E+00
         21   -1    0    0  501  502  0.00000000000E+00  0.00000000000E+00  0.23438775393E+03  0.23438775393E+03  0.00000000000E+00 0. -1.
          2   -1    0    0  502    0 -0.00000000000E+00 -0.00000000000E+00 -0.99543833191E+02  0.99543833191E+02  0.00000000000E+00 0. -1.
         23    2    1    2    0    0  0.27477526162E+02  0.33636741488E+02 -0.17472681711E+02  0.10050457114E+03  0.88934972826E+02 0.  0.
         24    2    1    2    0    0  0.39736431683E+00 -0.73997411314E+02  0.56033049915E+02  0.12536908857E+03  0.84272954775E+02 0.  0.
        -11    1    4    4    0    0 -0.24937886423E+02  0.79205870526E+01  0.16626004343E+02  0.31000933840E+02  0.00000000000E+00 0.  1.
         12    1    4    4    0    0  0.25335250740E+02 -0.81917998367E+02  0.39407045572E+02  0.94368154730E+02  0.00000000000E+00 0. -1.
        -13    1    3    3    0    0 -0.23100016167E+02  0.20832985599E+02  0.19360783516E+02  0.36639650301E+02  0.00000000000E+00 0.  1.
         13    1    3    3    0    0  0.50577542329E+02  0.12803755890E+02 -0.36833465226E+02  0.63864920837E+02  0.00000000000E+00 0. -1.
          1    1    1    2  501    0 -0.27874890479E+02  0.40360669826E+02  0.96283552536E+02  0.10805792741E+03  0.00000000000E+00 0. -1.
<scales pt_clust_5="13000.00000" pt_clust_6="13000.00000" pt_clust_7="13000.00000" pt_clust_8="13000.00000" pt_clust_9="49.05092"></scales>
<clustering>
<clus scale="   49.051">  1  9  2 -1</clus>
<clus scale="   84.273">  5  6 -1 -1</clus>
<clus scale="   88.935">  7  8 -1 -1</clus>
<clus scale="   97.965">  1  5  2 -1</clus>
<clus scale="   49.051">  1  5  2 -1</clus>
</clustering>
</event>
<event>
 9    2  0.3745229E-005  0.1324957E+03  0.7546771E-02  0.1226074E+00
         21   -1    0    0  501  502  0.00000000000E+00  0.00000000000E+00  0.36560667481E+03  0.36560667481E+03  0.00000000000E+00 0. -1.
          2   -1    0    0  502    0 -0.00000000000E+00 -0.00000000000E+00 -0.16028327210E+03  0.16028327210E+03  0.00000000000E+00 0. -1.
         23    2    1    2    0    0 -0.76660715791E+01  0.10364468935E+03 -0.11099868778E+03  0.17649299522E+03  0.89599544576E+02 0.  0.
         24    2    1    2    0    0  0.16443357213E+02 -0.54396584891E+02  0.20669647042E+03  0.22889718775E+03  0.80256583720E+02 0.  0.
        -13    1    4    4    0    0 -0.20771345161E+02 -0.38370223636E+02  0.46957465749E+02  0.64099348134E+02  0.00000000000E+00 0.  1.
         14    1    4    4    0    0  0.37214702374E+02 -0.16026361255E+02  0.15973900467E+03  0.16479783962E+03  0.00000000000E+00 0. -1.
        -11    1    3    3    0    0 -0.27491054776E+02 -0.30165406147E+01 -0.31970926441E+02  0.42272896133E+02  0.00000000000E+00 0.  1.
         11    1    3    3    0    0  0.19824983196E+02  0.10666122996E+03 -0.79027761339E+02  0.13422009908E+03  0.00000000000E+00 0. -1.
          1    1    1    2  501    0 -0.87772856336E+01 -0.49248104456E+02  0.10962562007E+03  0.12049976395E+03  0.00000000000E+00 0. -1.
<scales pt_clust_5="13000.00000" pt_clust_6="13000.00000" pt_clust_7="13000.00000" pt_clust_8="13000.00000" pt_clust_9="50.02416"></scales>
<clustering>
<clus scale="   50.024">  1  9  2 -1</clus>
<clus scale="   80.257">  5  6 -1 -1</clus>
<clus scale="   89.600">  7  8 -1 -1</clus>
<clus scale="  126.365">  1  5  2 -1</clus>
<clus scale="   50.024">  1  5  2 -1</clus>
</clustering>
</event>
<event>
 9    2  0.3745229E-005  0.1343717E+03  0.7546771E-02  0.1235950E+00
          2   -1    0    0  502    0 -0.00000000000E+00  0.00000000000E+00  0.66612855678E+03  0.66612855678E+03  0.00000000000E+00 0. -1.
         21   -1    0    0  501  502  0.00000000000E+00 -0.00000000000E+00 -0.40974324855E+02  0.40974324855E+02  0.00000000000E+00 0.  1.
         24    2    1    2    0    0  0.59699562073E+02 -0.19778783174E+01  0.20001540660E+03  0.22310001687E+03  0.78736935000E+02 0.  0.
         23    2    1    2    0    0  0.46902982994E+02 -0.30874361375E+02  0.26382341513E+03  0.28787526897E+03  0.10057962075E+03 0.  0.
        -11    1    3    3    0    0  0.73023624297E+02 -0.39608099986E+01  0.11005866703E+03  0.13214025848E+03  0.00000000000E+00 0.  1.
         12    1    3    3    0    0 -0.13324062224E+02  0.19829316813E+01  0.89956739570E+02  0.90959758390E+02  0.00000000000E+00 0. -1.
        -11    1    4    4    0    0  0.99970939431E+00 -0.34586230205E+02  0.20469532222E+02  0.40202095568E+02  0.00000000000E+00 0. -1.
         11    1    4    4    0    0  0.45903273599E+02  0.37118688296E+01  0.24335388291E+03  0.24767317340E+03  0.00000000000E+00 0.  1.
          1    1    1    2  501    0 -0.10660254507E+03  0.32852239693E+02  0.16131541019E+03  0.19612759580E+03  0.00000000000E+00 0. -1.
<scales pt_clust_5="13000.00000" pt_clust_6="13000.00000" pt_clust_7="13000.00000" pt_clust_8="13000.00000" pt_clust_9="89.10388"></scales>
<clustering>
<clus scale="   78.737">  5  6 -1 -1</clus>
<clus scale="   98.830">  1  5  2 -1</clus>
<clus scale="   89.104">  2  9  1 -1</clus>
<clus scale="  100.580">  7  8 -1 -1</clus>
<clus scale="   89.104">  2  5  1 -1</clus>
</clustering>
</event>
<event>
 9    2  0.3745229E-005  0.1247604E+03  0.7546771E-02  0.1237040E+00
         21   -1    0    0  501  502  0.00000000000E+00  0.00000000000E+00  0.44158344147E+03  0.44158344147E+03  0.00000000000E+00 0.  1.
         -3   -1    0    0    0  501 -0.00000000000E+00 -0.00000000000E+00 -0.79469562649E+02  0.79469562649E+02  0.00000000000E+00 0.  1.
         24    2    1    2    0    0  0.18995153404E+02  0.63583274448E+02  0.13226752202E+03  0.17173121089E+03  0.87139329624E+02 0.  0.
         23    2    1    2    0    0 -0.11982570583E+03 -0.43390977169E+02  0.16292230288E+03  0.22662966567E+03  0.92608595230E+02 0.  0.
        -11    1    3    3    0    0 -0.12085032979E+02  0.73584405584E+02  0.74703154948E+02  0.10555223411E+03  0.00000000000E+00 0.  1.
         12    1    3    3    0    0  0.31080186383E+02 -0.10001131136E+02  0.57564367076E+02  0.66178976771E+02  0.00000000000E+00 0. -1.
        -13    1    4    4    0    0 -0.43882433465E+02 -0.16186128804E+02  0.22299298689E+01  0.46825541317E+02  0.00000000000E+00 0. -1.
         13    1    4    4    0    0 -0.75943272368E+02 -0.27204848365E+02  0.16069237301E+03  0.17980412435E+03  0.00000000000E+00 0.  1.
         -4    1    1    2    0  502  0.10083055243E+03 -0.20192297280E+02  0.66924053925E+02  0.12269212756E+03  0.00000000000E+00 0.  1.
<scales pt_clust_5="13000.00000" pt_clust_6="13000.00000" pt_clust_7="13000.00000" pt_clust_8="13000.00000" pt_clust_9="102.83258"></scales>
<clustering>
<clus scale="   87.139">  5  6 -1 -1</clus>
<clus scale="   92.609">  7  8 -1 -1</clus>
<clus scale="  102.833">  1  9  2 -1</clus>
<clus scale="  120.756">  2  5  1 -1</clus>
<clus scale="  102.833">  1  5  2 -1</clus>
</clustering>
</event>
<event>
 9    2  0.3745229E-005  0.1283046E+03  0.7546771E-02  0.1248575E+00
          2   -1    0    0  502    0 -0.00000000000E+00  0.00000000000E+00  0.14575635160E+03  0.14575635160E+03  0.00000000000E+00 0. -1.
         21   -1    0    0  501  502  0.00000000000E+00 -0.00000000000E+00 -0.18970266652E+03  0.18970266652E+03  0.00000000000E+00 0. -1.
         24    2    1    2    0    0 -0.19350464864E+01 -0.29745636934E+02  0.43467913699E+02  0.98088021917E+02  0.82723957841E+02 0.  0.
         23    2    1    2    0    0 -0.65701141890E+02 -0.38701323897E+02 -0.64788177145E+02  0.13851970066E+03  0.95790224219E+02 0.  0.
        -11    1    3    3    0    0  0.14820877855E+02  0.25546939738E+02  0.20309373419E+02  0.35843760950E+02  0.00000000000E+00 0.  1.
         12    1    3    3    0    0 -0.16755924341E+02 -0.55292576672E+02  0.23158540280E+02  0.62244260968E+02  0.00000000000E+00 0. -1.
        -13    1    4    4    0    0 -0.89327954390E+02 -0.37765276710E+02 -0.61002719192E+02  0.11457325739E+03  0.00000000000E+00 0. -1.
         13    1    4    4    0    0  0.23626812500E+02 -0.93604718702E+00 -0.37854579539E+01  0.23946443268E+02  0.00000000000E+00 0.  1.
          1    1    1    2  501    0  0.67636188376E+02  0.68446960831E+02 -0.22626051475E+02  0.98851295542E+02  0.00000000000E+00 0. -1.
<scales pt_clust_5="13000.00000" pt_clust_6="13000.00000" pt_clust_7="13000.00000" pt_clust_8="13000.00000" pt_clust_9="85.35996"></scales>
<clustering>
<clus scale="   82.724">  5  6 -1 -1</clus>
<clus scale="   87.931">  1  5  2 -1</clus>
<clus scale="   85.360">  2  9  1 -1</clus>
<clus scale="   95.790">  7  8 -1 -1</clus>
<clus scale="   85.360">  2  5  1 -1</clus>
</clustering>
</event>
<event>
 9    2  0.3745229E-005  0.3449578E+03  0.7546771E-02  0.1064926E+00
         21   -1    0    0  501  502  0.00000000000E+00  0.00000000000E+00  0.10906040016E+03  0.10906040016E+03  0.00000000000E+00 0. -1.
          2   -1    0    0  502    0 -0.00000000000E+00 -0.00000000000E+00 -0.19803263250E+04  0.19803263250E+04  0.00000000000E+00 0. -1.
         24    2    1    2    0    0  0.30400172085E+03 -0.58027846763E+02 -0.10133417258E+04  0.10627117566E+04  0.81917928164E+02 0.  0.
         23    2    1    2    0    0 -0.38745988037E+03  0.12727312591E+03 -0.49399737609E+03  0.64693439200E+03  0.90371967421E+02 0.  0.
        -11    1    3    3    0    0  0.10426465278E+03 -0.60107482383E+02 -0.37187954829E+03  0.39086880881E+03  0.00000000000E+00 0.  1.
         12    1    3    3    0    0  0.19973706807E+03  0.20796356209E+01 -0.64146217752E+03  0.67184294775E+03  0.00000000000E+00 0. -1.
        -11    1    4    4    0    0 -0.29593683562E+03  0.63718561179E+02 -0.32159358704E+03  0.44165722109E+03  0.00000000000E+00 0. -1.
         11    1    4    4    0    0 -0.91523044748E+02  0.63554564735E+02 -0.17240378905E+03  0.20527717091E+03  0.00000000000E+00 0.  1.
          1    1    1    2  501    0  0.83458159515E+02 -0.69245279151E+02 -0.36392682288E+03  0.37974057656E+03  0.00000000000E+00 0. -1.
<scales pt_clust_5="13000.00000" pt_clust_6="13000.00000" pt_clust_7="13000.00000" pt_clust_8="13000.00000" pt_clust_9="108.44439"></scales>
<clustering>
<clus scale="   81.918">  5  6 -1 -1</clus>
<clus scale="   90.372">  7  8 -1 -1</clus>
<clus scale="  108.444">  1  9  2 -1</clus>
<clus scale="  342.840">  2  5  1 -1</clus>
<clus scale="  108.444">  1  5  2 -1</clus>
</clustering>
</event>
<event>
 9    2  0.3745229E-005  0.1068881E+03  0.7546771E-02  0.1270436E+00
         21   -1    0    0  501  502  0.00000000000E+00  0.00000000000E+00  0.27410051526E+03  0.27410051526E+03  0.00000000000E+00 0.  1.
         -1   -1    0    0    0  501 -0.00000000000E+00 -0.00000000000E+00 -0.25366472692E+03  0.25366472692E+03  0.00000000000E+00 0.  1.
         23    2    1    2    0    0  0.23212709382E+02  0.39495048533E+02 -0.11888879898E+03  0.15672020370E+03  0.91257805095E+02 0.  0.
         24    2    1    2    0    0 -0.10595572944E+03  0.15847388584E+01 -0.63511395224E+02  0.14816302459E+03  0.81789097891E+02 0.  0.
        -13    1    4    4    0    0 -0.87847537646E+02  0.21782826913E+02 -0.76107693734E+02  0.11825422810E+03  0.00000000000E+00 0.  1.
         14    1    4    4    0    0 -0.18108191792E+02 -0.20198088055E+02  0.12596298510E+02  0.29908796485E+02  0.00000000000E+00 0. -1.
        -11    1    3    3    0    0  0.16282280191E+02  0.64455675256E+02 -0.11144398059E+03  0.12976674277E+03  0.00000000000E+00 0.  1.
         11    1    3    3    0    0  0.69304291909E+01 -0.24960626723E+02 -0.74448183905E+01  0.26953460929E+02  0.00000000000E+00 0. -1.
         -2    1    1    2    0  502  0.82743020056E+02 -0.41079787391E+02  0.20283598254E+03  0.22288201389E+03  0.00000000000E+00 0.  1.
<scales pt_clust_5="13000.00000" pt_clust_6="13000.00000" pt_clust_7="13000.00000" pt_clust_8="13000.00000" pt_clust_9="92.37941"></scales>
<clustering>
<clus scale="   81.789">  5  6 -1 -1</clus>
<clus scale="   91.258">  7  8 -1 -1</clus>
<clus scale="   92.379">  1  9  2 -1</clus>
<clus scale="   98.927">  1  5  2 -1</clus>
<clus scale="   92.379">  1  5  2 -1</clus>
</clustering>
</event>
<event>
 9    2  0.3745229E-005  0.1030750E+03  0.7546771E-02  0.1277811E+00
         21   -1    0    0  501  502  0.00000000000E+00  0.00000000000E+00  0.24578510043E+02  0.24578510043E+02  0.00000000000E+00 0.  1.
          2   -1    0    0  502    0 -0.00000000000E+00 -0.00000000000E+00 -0.80039783591E+03  0.80039783591E+03  0.00000000000E+00 0. -1.
         24    2    1    2    0    0  0.59699529750E+02 -0.15889810364E+02 -0.57508589309E+03  0.58371267168E+03  0.78614112759E+02 0.  0.
         23    2    1    2    0    0 -0.30288194960E+02 -0.75785674394E+01 -0.11602602078E+03  0.14857528763E+03  0.87394331383E+02 0.  0.
        -13    1    3    3    0    0  0.34999339231E+02 -0.37429492631E+02 -0.17668404918E+03  0.18396514316E+03  0.00000000000E+00 0.  1.
         14    1    3    3    0    0  0.24700190519E+02  0.21539682267E+02 -0.39840184391E+03  0.39974752852E+03  0.00000000000E+00 0. -1.
        -11    1    4    4    0    0 -0.55754120734E+02 -0.84946586863E+01 -0.42093091527E+02  0.70374068799E+02  0.00000000000E+00 0.  1.
         11    1    4    4    0    0  0.25465925774E+02  0.91609124688E+00 -0.73932929254E+02  0.78201218832E+02  0.00000000000E+00 0. -1.
          1    1    1    2  501    0 -0.29411334790E+02  0.23468377804E+02 -0.84707411999E+02  0.92688386643E+02  0.00000000000E+00 0. -1.
<scales pt_clust_5="13000.00000" pt_clust_6="13000.00000" pt_clust_7="13000.00000" pt_clust_8="13000.00000" pt_clust_9="37.62700"></scales>
<clustering>
<clus scale="   37.627">  1  9  2 -1</clus>
<clus scale="   78.614">  5  6 -1 -1</clus>
<clus scale="   87.394">  7  8 -1 -1</clus>
<clus scale="   95.744">  2  5  1 -1</clus>
<clus scale="   37.627">  1  5  2 -1</clus>
</clustering>
</event>
<event>
 9    2  0.3745229E-005  0.2156931E+03  0.7546771E-02  0.1158695E+00
         21   -1    0    0  501  502  0.00000000000E+00  0.00000000000E+00  0.40440474612E+03  0.40440474612E+03  0.00000000000E+00 0.  1.
         -1   -1    0    0    0  501 -0.00000000000E+00 -0.00000000000E+00 -0.46665032688E+03  0.46665032688E+03  0.00000000000E+00 0.  1.
         24    2    1    2    0    0 -0.91397691311E+02  0.16873529260E+02 -0.31780405373E+02  0.13301575173E+03  0.89693601091E+02 0.  0.
         23    2    1    2    0    0 -0.93540063121E+02  0.66166372370E+02 -0.33880587631E+03  0.36902497721E+03  0.90897083232E+02 0.  0.
        -11    1    3    3    0    0 -0.76964537363E+02  0.49692800780E+02 -0.12964845376E+02  0.92525681173E+02  0.00000000000E+00 0.  1.
         12    1    3    3    0    0 -0.14433153949E+02 -0.32819271520E+02 -0.18815559997E+02  0.40490070561E+02  0.00000000000E+00 0. -1.
        -11    1    4    4    0    0 -0.72722163223E+02  0.64234749631E+02 -0.33367646211E+03  0.34749762223E+03  0.00000000000E+00 0.  1.
         11    1    4    4    0    0 -0.20817899898E+02  0.19316227387E+01 -0.51294141978E+01  0.21527354984E+02  0.00000000000E+00 0. -1.
         -2    1    1    2    0  502  0.18493775443E+03 -0.83039901630E+02  0.30834070092E+03  0.36901434406E+03  0.00000000000E+00 0.  1.
<scales pt_clust_5="13000.00000" pt_clust_6="13000.00000" pt_clust_7="13000.00000" pt_clust_8="13000.00000" pt_clust_9="195.60476"></scales>
<clustering>
<clus scale="   89.694">  5  6 -1 -1</clus>
<clus scale="   90.897">  7  8 -1 -1</clus>
<clus scale="  129.163">  2  5  1 -1</clus>
<clus scale="  195.605">  1  9  2 -1</clus>
<clus scale="  195.605">  1  5  2 -1</clus>
</clustering>
</event>
<event>
 9    2  0.3745229E-005  0.2025772E+03  0.7546771E-02  0.1148450E+00
          2   -1    0    0  502    0 -0.00000000000E+00  0.00000000000E+00  0.10307685741E+04  0.10307685741E+04  0.00000000000E+00 0. -1.
         21   -1    0    0  501  502  0.00000000000E+00 -0.00000000000E+00 -0.70068196826E+02  0.70068196826E+02  0.00000000000E+00 0. -1.
         24    2    1    2    0    0 -0.11554946044E+03 -0.14493480391E+03  0.78612669047E+03  0.81174744188E+03  0.81123120816E+02 0.  0.
         23    2    1    2    0    0  0.77419719773E+02  0.14955679987E+03  0.15347936302E+03  0.24526912291E+03  0.90774326661E+02 0.  0.
        -11    1    3    3    0    0 -0.41728562502E+02 -0.61542084677E+01  0.22981600913E+03  0.23365475656E+03  0.00000000000E+00 0.  1.
         12    1    3    3    0    0 -0.73820897935E+02 -0.13878059544E+03  0.55631068134E+03  0.57809268531E+03  0.00000000000E+00 0. -1.
        -11    1    4    4    0    0  0.59431128234E+02  0.59638700234E+02  0.12216857669E+03  0.14837113837E+03  0.00000000000E+00 0.  1.
         11    1    4    4    0    0  0.17988591539E+02  0.89918099636E+02  0.31310786330E+02  0.96897984542E+02  0.00000000000E+00 0. -1.
          1    1    1    2  501    0  0.38129740664E+02 -0.46219959579E+01  0.21094323761E+02  0.43820206123E+02  0.00000000000E+00 0. -1.
<scales pt_clust_5="13000.00000" pt_clust_6="13000.00000" pt_clust_7="13000.00000" pt_clust_8="13000.00000" pt_clust_9="38.40885"></scales>
<clustering>
<clus scale="   38.409">  2  9  1 -1</clus>
<clus scale="   81.123">  5  6 -1 -1</clus>
<clus scale="   90.774">  7  8 -1 -1</clus>
<clus scale="  198.440">  1  5  2 -1</clus>
<clus scale="   38.409">  2  5  1 -1</clus>
</clustering>
</event>
<event>
 9    2  0.3745229E-005  0.9190329E+02  0.7546771E-02  0.1306790E+00
         21   -1    0    0  501  502  0.00000000000E+00  0.00000000000E+00  0.68706334877E+02  0.68706334877E+02  0.00000000000E+00 0. -1.
         -1   -1    0    0    0  501 -0.00000000000E+00 -0.00000000000E+00 -0.26268356382E+03  0.26268356382E+03  0.00000000000E+00 0.  1.
         24    2    1    2    0    0 -0.84932807116E+01 -0.10775247806E+02 -0.20124169333E+03  0.21616416605E+03  0.77720562049E+02 0.  0.
         23    2    1    2    0    0  0.12355100043E+02 -0.90242249337E+01 -0.33153993693E+01  0.92447096022E+02  0.91111956170E+02 0.  0.
        -11    1    3    3    0    0 -0.13708423535E+01  0.33558989212E+02 -0.97457282556E+02  0.10308252465E+03  0.00000000000E+00 0.  1.
         12    1    3    3    0    0 -0.71224383580E+01 -0.44334237019E+02 -0.10378441078E+03  0.11308164140E+03  0.00000000000E+00 0. -1.
        -11    1    4    4    0    0 -0.74985011018E+01 -0.38157102588E+02  0.25847725236E+02  0.46693649424E+02  0.00000000000E+00 0. -1.
         11    1    4    4    0    0  0.19853601145E+02  0.29132877654E+02 -0.29163124605E+02  0.45753446598E+02  0.00000000000E+00 0.  1.
         -2    1    1    2    0  502 -0.38618193314E+01  0.19799472740E+02  0.10579863761E+02  0.22778636625E+02  0.00000000000E+00 0.  1.
<scales pt_clust_5="13000.00000" pt_clust_6="13000.00000" pt_clust_7="13000.00000" pt_clust_8="13000.00000" pt_clust_9="20.17257"></scales>
<clustering>
<clus scale="   20.173">  1  9  2 -1</clus>
<clus scale="   77.721">  5  6 -1 -1</clus>
<clus scale="   78.647">  2  5  1 -1</clus>
<clus scale="   91.112">  7  8 -1 -1</clus>
<clus scale="   20.173">  1  5  2 -1</clus>
</clustering>
</event>
<event>
 9    2  0.3745229E-005  0.1030424E+03  0.7546771E-02  0.1279164E+00
         21   -1    0    0  501  502  0.00000000000E+00  0.00000000000E+00  0.20092938538E+03  0.20092938538E+03  0.00000000000E+00 0.  1.
         -3   -1    0    0    0  501 -0.00000000000E+00 -0.00000000000E+00 -0.11399536007E+03  0.11399536007E+03  0.00000000000E+00 0.  1.
         23    2    1    2    0    0  0.55588715710E+02 -0.51073480661E+02 -0.24003991219E+02  0.12086618793E+03  0.91289857315E+02 0.  0.
         24    2    1    2    0    0  0.10955246085E+02  0.11905516141E+02  0.61314757885E+02  0.10227241426E+03  0.80239569126E+02 0.  0.
        -13    1    4    4    0    0  0.22320476274E+02 -0.28165909669E+02  0.12377946008E+02  0.38009678714E+02  0.00000000000E+00 0.  1.
         14    1    4    4    0    0 -0.11365230189E+02  0.40071425810E+02  0.48936811877E+02  0.64262735550E+02  0.00000000000E+00 0. -1.
        -13    1    3    3    0    0  0.40980763357E+02 -0.71950588398E+02 -0.38755596467E+02  0.91423773679E+02  0.00000000000E+00 0. -1.
         13    1    3    3    0    0  0.14607952353E+02  0.20877107737E+02  0.14751605248E+02  0.29442414249E+02  0.00000000000E+00 0.  1.
         -4    1    1    2    0  502 -0.66543961795E+02  0.39167964520E+02  0.49623258642E+02  0.91786143258E+02  0.00000000000E+00 0.  1.
<scales pt_clust_5="13000.00000" pt_clust_6="13000.00000" pt_clust_7="13000.00000" pt_clust_8="13000.00000" pt_clust_9="77.21547"></scales>
<clustering>
<clus scale="   77.215">  1  9  2 -1</clus>
<clus scale="   80.240">  5  6 -1 -1</clus>
<clus scale="   91.290">  7  8 -1 -1</clus>
<clus scale="   93.393">  1  5  2 -1</clus>
<clus scale="   77.215">  1  5  2 -1</clus>
</clustering>
</event>
<event>
 9    2  0.3745229E-005  0.1069548E+03  0.7546771E-02  0.1279352E+00
         21   -1    0    0  501  502  0.00000000000E+00  0.00000000000E+00  0.25025252407E+02  0.25025252407E+02  0.00000000000E+00 0. -1.
          2   -1    0    0  502    0 -0.00000000000E+00 -0.00000000000E+00 -0.85701553060E+03  0.85701553060E+03  0.00000000000E+00 0. -1.
         23    2    1    2    0    0  0.21697084815E+02  0.51753091055E+01 -0.55359784846E+03  0.56384146817E+03  0.10463783303E+03 0.  0.
         24    2    1    2    0    0  0.99066266627E+01 -0.44905824893E+02 -0.23071968095E+03  0.24855737746E+03  0.80215486993E+02 0.  0.
        -13    1    4    4    0    0 -0.30484464373E+02  0.14594796178E+01 -0.88460331245E+02  0.93577042339E+02  0.00000000000E+00 0.  1.
         14    1    4    4    0    0  0.40391091036E+02 -0.46365304511E+02 -0.14225934970E+03  0.15498033512E+03  0.00000000000E+00 0. -1.
        -13    1    3    3    0    0  0.18830406754E+02  0.54346758719E+02 -0.28022048390E+03  0.28606236033E+03  0.00000000000E+00 0. -1.
         13    1    3    3    0    0  0.28666780610E+01 -0.49171449614E+02 -0.27337736456E+03  0.27777910784E+03  0.00000000000E+00 0.  1.
          1    1    1    2  501    0 -0.31603711478E+02  0.39730515787E+02 -0.47672748787E+02  0.69641937371E+02  0.00000000000E+00 0. -1.
<scales pt_clust_5="13000.00000" pt_clust_6="13000.00000" pt_clust_7="13000.00000" pt_clust_8="13000.00000" pt_clust_9="50.76720"></scales>
<clustering>
<clus scale="   50.767">  1  9  2 -1</clus>
<clus scale="   80.215">  5  6 -1 -1</clus>
<clus scale="   83.215">  1  5  2 -1</clus>
<clus scale="  104.638">  7  8 -1 -1</clus>
<clus scale="   50.767">  1  5  2 -1</clus>
</clustering>
</event>
<event>
 9    2  0.3745229E-005  0.9256067E+02  0.7546771E-02  0.1303397E+00
         21   -1    0    0  501  502  0.00000000000E+00  0.00000000000E+00  0.39321176327E+03  0.39321176327E+03  0.00000000000E+00 0. -1.
         -1   -1    0    0    0  501 -0.00000000000E+00 -0.00000000000E+00 -0.11732766272E+03  0.11732766272E+03  0.00000000000E+00 0.  1.
         23    2    1    2    0    0  0.12461149311E+01  0.16362581239E+02 -0.90001054871E+02  0.12923612076E+03  0.91282518396E+02 0.  0.
         24    2    1    2    0    0  0.62243108001E+01  0.28193340381E+01  0.33178954370E+03  0.34147537692E+03  0.80463911457E+02 0.  0.
        -11    1    4    4    0    0  0.15650283884E+02 -0.33339714754E+02  0.97494846229E+02  0.10421954235E+03  0.00000000000E+00 0.  1.
         12    1    4    4    0    0 -0.94259730840E+01  0.36159048792E+02  0.23429469747E+03  0.23725583457E+03  0.00000000000E+00 0. -1.
        -13    1    3    3    0    0 -0.24956003656E+02 -0.30262983781E+01  0.76592563184E+01  0.26279741393E+02  0.00000000000E+00 0. -1.
         13    1    3    3    0    0  0.26202118587E+02  0.19388879617E+02 -0.97660311189E+02  0.10295637937E+03  0.00000000000E+00 0.  1.
         -2    1    1    2    0  502 -0.74704257312E+01 -0.19181915277E+02  0.34095611730E+02  0.39827928311E+02  0.00000000000E+00 0.  1.
<scales pt_clust_5="13000.00000" pt_clust_6="13000.00000" pt_clust_7="13000.00000" pt_clust_8="13000.00000" pt_clust_9="20.58526"></scales>
<clustering>
<clus scale="   20.585">  1  9  2 -1</clus>
<clus scale="   80.464">  5  6 -1 -1</clus>
<clus scale="   81.911">  1  5  2 -1</clus>
<clus scale="   91.283">  7  8 -1 -1</clus>
<clus scale="   20.585">  1  5  2 -1</clus>
</clustering>
</event>
<event>
 9    2  0.3745229E-005  0.1073287E+03  0.7546771E-02  0.1269200E+00
          2   -1    0    0  502    0 -0.00000000000E+00  0.00000000000E+00  0.23294045162E+03  0.23294045162E+03  0.00000000000E+00 0. -1.
         21   -1    0    0  501  502  0.00000000000E+00 -0.00000000000E+00 -0.12715147207E+03  0.12715147207E+03  0.00000000000E+00 0. -1.
         24    2    1    2    0    0 -0.47275052915E+02 -0.42005978844E+02  0.12756683276E+03  0.16432877236E+03  0.82043986473E+02 0.  0.
         23    2    1    2    0    0  0.18523490215E+02  0.47284512685E+02  0.52100468599E+02  0.11631177179E+03  0.90747036309E+02 0.  0.
        -13    1    3    3    0    0 -0.36530691774E+02  0.24980077963E+00  0.11236483742E+03  0.11815418118E+03  0.00000000000E+00 0.  1.
         14    1    3    3    0    0 -0.10744361141E+02 -0.42255779624E+02  0.15201995342E+02  0.46174591177E+02  0.00000000000E+00 0. -1.
        -11    1    4    4    0    0  0.51637290740E+02  0.48183922250E+02  0.31757103677E+02  0.77437805962E+02  0.00000000000E+00 0.  1.
         11    1    4    4    0    0 -0.33113800525E+02 -0.89940956504E+00  0.20343364922E+02  0.38873965827E+02  0.00000000000E+00 0. -1.
          1    1    1    2  501    0  0.28751562700E+02 -0.52785338407E+01 -0.73878321816E+02  0.79451379545E+02  0.00000000000E+00 0. -1.
<scales pt_clust_5="13000.00000" pt_clust_6="13000.00000" pt_clust_7="13000.00000" pt_clust_8="13000.00000" pt_clust_9="29.23209"></scales>
<clustering>
<clus scale="   29.232">  2  9  1 -1</clus>
<clus scale="   82.044">  5  6 -1 -1</clus>
<clus scale="   90.747">  7  8 -1 -1</clus>
<clus scale="  100.078">  1  5  2 -1</clus>
<clus scale="   29.232">  2  5  1 -1</clus>
</clustering>
</event>
<event>
 9    2  0.4937856E-005  0.2521235E+03  0.7546771E-02  0.1135736E+00
         21   -1    0    0  501  502  0.00000000000E+00  0.00000000000E+00  0.16688150649E+03  0.16688150649E+03  0.00000000000E+00 0. -1.
          2   -1    0    0  502    0 -0.00000000000E+00 -0.00000000000E+00 -0.12532184018E+04  0.12532184018E+04  0.00000000000E+00 0. -1.
         23    2    1    2    0    0 -0.61499406308E+02 -0.84928926570E+02 -0.45490049847E+02  0.14693708623E+03  0.92336683557E+02 0.  0.
         24    2    1    2    0    0  0.16895225305E+03  0.28163956983E+03 -0.98542877725E+03  0.10422681410E+04  0.85949355093E+02 0.  0.
        -11    1    4    4    0    0 -0.36903347403E+00  0.61583652655E+02 -0.19464272188E+03  0.20415305935E+03  0.00000000000E+00 0.  1.
         12    1    4    4    0    0  0.16932128652E+03  0.22005591718E+03 -0.79078605537E+03  0.83811508167E+03  0.00000000000E+00 0. -1.
        -13    1    3    3    0    0 -0.54447641755E+02 -0.36703480575E+02 -0.66866801469E+02  0.93716915857E+02  0.00000000000E+00 0. -1.
         13    1    3    3    0    0 -0.70517645527E+01 -0.48225445994E+02  0.21376751622E+02  0.53220170373E+02  0.00000000000E+00 0.  1.
          1    1    1    2  501    0 -0.10745284674E+03 -0.19671064326E+03 -0.55418068200E+02  0.23089468103E+03  0.00000000000E+00 0. -1.
<scales pt_clust_5="13000.00000" pt_clust_6="13000.00000" pt_clust_7="13000.00000" pt_clust_8="13000.00000" pt_clust_9="237.02106"></scales>
<clustering>
<clus scale="   85.949">  5  6 -1 -1</clus>
<clus scale="   92.337">  7  8 -1 -1</clus>
<clus scale="  139.718">  2  7  1 -1</clus>
<clus scale="  237.021">  1  9  2 -1</clus>
<clus scale="  237.021">  1  5  2 -1</clus>
</clustering>
</event>
<event>
 9    2  0.3745229E-005  0.9509568E+02  0.7546771E-02  0.1298517E+00
         21   -1    0    0  501  502  0.00000000000E+00  0.00000000000E+00  0.26662073546E+02  0.26662073546E+02  0.00000000000E+00 0.  1.
          2   -1    0    0  502    0 -0.00000000000E+00 -0.00000000000E+00 -0.52368009479E+03  0.52368009479E+03  0.00000000000E+00 0. -1.
         23    2    1    2    0    0 -0.15580608301E+02  0.29274331350E+02 -0.24105155174E+03  0.26065515780E+03  0.93463997671E+02 0.  0.
         24    2    1    2    0    0 -0.91875038888E+01  0.18455777959E+01 -0.10075362407E+03  0.12945924916E+03  0.80750158178E+02 0.  0.
        -13    1    4    4    0    0  0.18926128144E+02  0.33697028954E+02 -0.43952062786E+02  0.58527531214E+02  0.00000000000E+00 0.  1.
         14    1    4    4    0    0 -0.28113632033E+02 -0.31851451158E+02 -0.56801561285E+02  0.70931717950E+02  0.00000000000E+00 0. -1.
        -11    1    3    3    0    0 -0.53202514999E+02  0.20632328580E+02 -0.17592471804E+03  0.18494784942E+03  0.00000000000E+00 0.  1.
         11    1    3    3    0    0  0.37621906698E+02  0.86420027699E+01 -0.65126833696E+02  0.75707308383E+02  0.00000000000E+00 0. -1.
          1    1    1    2  501    0  0.24768112190E+02 -0.31119909146E+02 -0.15521284543E+03  0.16022776137E+03  0.00000000000E+00 0. -1.
<scales pt_clust_5="13000.00000" pt_clust_6="13000.00000" pt_clust_7="13000.00000" pt_clust_8="13000.00000" pt_clust_9="39.77323"></scales>
<clustering>
<clus scale="   39.773">  1  9  2 -1</clus>
<clus scale="   80.750">  5  6 -1 -1</clus>
<clus scale="   82.633">  1  5  2 -1</clus>
<clus scale="   93.464">  7  8 -1 -1</clus>
<clus scale="   39.773">  1  5  2 -1</clus>
</clustering>
</event>
<event>
 9    2  0.3745229E-005  0.9304097E+02  0.7546771E-02  0.1303607E+00
         -1   -1    0    0    0  501 -0.00000000000E+00  0.00000000000E+00  0.84823735040E+02  0.84823735040E+02  0.00000000000E+00 0.  1.
         21   -1    0    0  501  502  0.00000000000E+00 -0.00000000000E+00 -0.26072665708E+03  0.26072665708E+03  0.00000000000E+00 0.  1.
         23    2    1    2    0    0 -0.87890800717E+01 -0.66026348430E+01  0.20102018489E+02  0.93120809849E+02  0.90258248179E+02 0.  0.
         24    2    1    2    0    0  0.18946619977E+02  0.52126323845E+02 -0.69759176653E+02  0.11784290101E+03  0.77100444512E+02 0.  0.
        -11    1    4    4    0    0  0.14501977126E+02  0.41948768442E+02  0.27674130427E+01  0.44470946576E+02  0.00000000000E+00 0.  1.
         12    1    4    4    0    0  0.44446428515E+01  0.10177555403E+02 -0.72526589695E+02  0.73371954430E+02  0.00000000000E+00 0. -1.
        -13    1    3    3    0    0 -0.34880237705E+02  0.29429734479E+01  0.44173141516E+02  0.56360966160E+02  0.00000000000E+00 0.  1.
         13    1    3    3    0    0  0.26091157633E+02 -0.95456082909E+01 -0.24071123027E+02  0.36759843689E+02  0.00000000000E+00 0. -1.
         -2    1    1    2    0  502 -0.10157539906E+02 -0.45523689002E+02 -0.12624576388E+03  0.13458668127E+03  0.00000000000E+00 0.  1.
<scales pt_clust_5="13000.00000" pt_clust_6="13000.00000" pt_clust_7="13000.00000" pt_clust_8="13000.00000" pt_clust_9="46.64313"></scales>
<clustering>
<clus scale="   46.643">  2  9  1 -1</clus>
<clus scale="   77.100">  5  6 -1 -1</clus>
<clus scale="   80.340">  2  5  1 -1</clus>
<clus scale="   90.258">  7  8 -1 -1</clus>
<clus scale="   46.643">  2  5  1 -1</clus>
</clustering>
</event>
<event>
 9    2  0.3745229E-005  0.1107657E+03  0.7546771E-02  0.1262364E+00
         21   -1    0    0  501  502  0.00000000000E+00  0.00000000000E+00  0.57352260891E+03  0.57352260891E+03  0.00000000000E+00 0.  1.
         -3   -1    0    0    0  501 -0.00000000000E+00 -0.00000000000E+00 -0.12441136717E+03  0.12441136717E+03  0.00000000000E+00 0.  1.
         23    2    1    2    0    0  0.46349648762E+02  0.36058088579E+02 -0.89936330125E+02  0.14258649920E+03  0.93775746247E+02 0.  0.
         24    2    1    2    0    0 -0.34298493602E+02 -0.57608357788E+02  0.43236783137E+03  0.44584765279E+03  0.85691763572E+02 0.  0.
        -11    1    4    4    0    0  0.22803421505E+02 -0.33836319742E+02  0.10424599353E+03  0.11194695053E+03  0.00000000000E+00 0.  1.
         12    1    4    4    0    0 -0.57101915107E+02 -0.23772038046E+02  0.32812183784E+03  0.33390070225E+03  0.00000000000E+00 0. -1.
        -11    1    3    3    0    0  0.15911655832E+02  0.53879157086E+02 -0.12583403901E+02  0.57571576437E+02  0.00000000000E+00 0.  1.
         11    1    3    3    0    0  0.30437992930E+02 -0.17821068507E+02 -0.77352926223E+02  0.85014922759E+02  0.00000000000E+00 0. -1.
         -4    1    1    2    0  502 -0.12051155161E+02  0.21550269209E+02  0.10667974050E+03  0.10949982409E+03  0.00000000000E+00 0.  1.
<scales pt_clust_5="13000.00000" pt_clust_6="13000.00000" pt_clust_7="13000.00000" pt_clust_8="13000.00000" pt_clust_9="24.69098"></scales>
<clustering>
<clus scale="   24.691">  1  9  2 -1</clus>
<clus scale="   85.692">  5  6 -1 -1</clus>
<clus scale="   93.776">  7  8 -1 -1</clus>
<clus scale="  104.011">  1  5  2 -1</clus>
<clus scale="   24.691">  1  5  2 -1</clus>
</clustering>
</event>
<event>
 9    2  0.3745229E-005  0.1816984E+03  0.7546771E-02  0.1188749E+00
         21   -1    0    0  501  502  0.00000000000E+00  0.00000000000E+00  0.12111228030E+03  0.12111228030E+03  0.00000000000E+00 0. -1.
          2   -1    0    0  502    0 -0.00000000000E+00 -0.00000000000E+00 -0.51204112003E+03  0.51204112003E+03  0.00000000000E+00 0. -1.
         23    2    1    2    0    0 -0.46283793568E+02  0.42038958192E+02 -0.10397086523E+03  0.15072494125E+03  0.89434912328E+02 0.  0.
         24    2    1    2    0    0  0.30946182370E+02 -0.17369261240E+03 -0.35274963196E+02  0.19797764583E+03  0.82607720072E+02 0.  0.
        -11    1    4    4    0    0  0.58047295372E+02 -0.10825488521E+03 -0.32651939411E+02  0.12710136828E+03  0.00000000000E+00 0.  1.
         12    1    4    4    0    0 -0.27101113002E+02 -0.65437727189E+02 -0.26230237849E+01  0.70876277550E+02  0.00000000000E+00 0. -1.
        -11    1    3    3    0    0 -0.70018401314E+02  0.39278589795E+02 -0.58425350955E+02  0.99292022706E+02  0.00000000000E+00 0.  1.
         11    1    3    3    0    0  0.23734607746E+02  0.27603683973E+01 -0.45545514279E+02  0.51432918540E+02  0.00000000000E+00 0. -1.
          1    1    1    2  501    0  0.15337611197E+02  0.13165365421E+03 -0.25168301130E+03  0.28445081325E+03  0.00000000000E+00 0. -1.
<scales pt_clust_5="13000.00000" pt_clust_6="13000.00000" pt_clust_7="13000.00000" pt_clust_8="13000.00000" pt_clust_9="161.83422"></scales>
<clustering>
<clus scale="   82.608">  5  6 -1 -1</clus>
<clus scale="   89.435">  7  8 -1 -1</clus>
<clus scale="  109.124">  2  7  1 -1</clus>
<clus scale="  161.834">  1  9  2 -1</clus>
<clus scale="  161.834">  1  5  2 -1</clus>
</clustering>
</event>
<event>
 9    2  0.3745229E-005  0.9470148E+02  0.7546771E-02  0.1298833E+00
         -1   -1    0    0    0  501 -0.00000000000E+00  0.00000000000E+00  0.36079492893E+03  0.36079492893E+03  0.00000000000E+00 0.  1.
         21   -1    0    0  501  502  0.00000000000E+00 -0.00000000000E+00 -0.57903995407E+02  0.57903995407E+02  0.00000000000E+00 0. -1.
         23    2    1    2    0    0  0.12497479500E+02  0.14636321075E+02  0.26472445792E+03  0.28086118869E+03  0.91834415140E+02 0.  0.
         24    2    1    2    0    0 -0.29710139748E+02 -0.34025898587E+02  0.10860728256E+00  0.91787407416E+02  0.79902829650E+02 0.  0.
        -11    1    4    4    0    0  0.33140556520E+01 -0.19985814369E+02  0.35825753977E+02  0.41157021138E+02  0.00000000000E+00 0.  1.
         12    1    4    4    0    0 -0.33024195400E+02 -0.14040084218E+02 -0.35717146695E+02  0.50630386278E+02  0.00000000000E+00 0. -1.
        -13    1    3    3    0    0  0.23616799459E+02  0.47418483497E+02  0.20591511654E+03  0.21262008610E+03  0.00000000000E+00 0.  1.
         13    1    3    3    0    0 -0.11119319959E+02 -0.32782162422E+02  0.58809341386E+02  0.68241102597E+02  0.00000000000E+00 0. -1.
         -2    1    1    2    0  502  0.17212660248E+02  0.19389577512E+02  0.38057868319E+02  0.46050328228E+02  0.00000000000E+00 0.  1.
<scales pt_clust_5="13000.00000" pt_clust_6="13000.00000" pt_clust_7="13000.00000" pt_clust_8="13000.00000" pt_clust_9="25.92744"></scales>
<clustering>
<clus scale="   25.927">  2  9  1 -1</clus>
<clus scale="   79.903">  5  6 -1 -1</clus>
<clus scale="   83.182">  2  5  1 -1</clus>
<clus scale="   91.834">  7  8 -1 -1</clus>
<clus scale="   25.927">  2  5  1 -1</clus>
</clustering>
</event>
<event>
 9    2  0.3745229E-005  0.1038007E+03  0.7546771E-02  0.1278110E+00
          2   -1    0    0  502    0 -0.00000000000E+00  0.00000000000E+00  0.17099111144E+03  0.17099111144E+03  0.00000000000E+00 0. -1.
         21   -1    0    0  501  502  0.00000000000E+00 -0.00000000000E+00 -0.97982799393E+02  0.97982799393E+02  0.00000000000E+00 0.  1.
         23    2    1    2    0    0 -0.32263356005E+01  0.52063010754E+02  0.10157611206E+03  0.14610979335E+03  0.91155904042E+02 0.  0.
         24    2    1    2    0    0  0.23881708955E+02 -0.41108984241E+02 -0.93211351426E+01  0.92580966156E+02  0.78892757120E+02 0.  0.
        -11    1    4    4    0    0  0.47926276183E+02 -0.38450074841E+02 -0.22006267394E+02  0.65265703158E+02  0.00000000000E+00 0.  1.
         12    1    4    4    0    0 -0.24044567228E+02 -0.26589094000E+01  0.12685132251E+02  0.27315262998E+02  0.00000000000E+00 0. -1.
        -13    1    3    3    0    0  0.26018866321E+02  0.50423396599E+02  0.21215246815E+02  0.60577116361E+02  0.00000000000E+00 0.  1.
         13    1    3    3    0    0 -0.29245201921E+02  0.16396141547E+01  0.80360865248E+02  0.85532676992E+02  0.00000000000E+00 0. -1.
          1    1    1    2  501    0 -0.20655373354E+02 -0.10954026513E+02 -0.19246664875E+02  0.30283151323E+02  0.00000000000E+00 0. -1.
<scales pt_clust_5="13000.00000" pt_clust_6="13000.00000" pt_clust_7="13000.00000" pt_clust_8="13000.00000" pt_clust_9="23.38023"></scales>
<clustering>
<clus scale="   23.380">  2  9  1 -1</clus>
<clus scale="   78.893">  5  6 -1 -1</clus>
<clus scale="   91.156">  7  8 -1 -1</clus>
<clus scale="   93.216">  2  5  1 -1</clus>
<clus scale="   23.380">  2  5  1 -1</clus>
</clustering>
</event>
<event>
 9    2  0.3745229E-005  0.1047227E+03  0.7546771E-02  0.1274641E+00
         21   -1    0    0  501  502  0.00000000000E+00  0.00000000000E+00  0.25976408943E+03  0.25976408943E+03  0.00000000000E+00 0.  1.
          2   -1    0    0  502    0 -0.00000000000E+00 -0.00000000000E+00 -0.84229242293E+02  0.84229242293E+02  0.00000000000E+00 0. -1.
         24    2    1    2    0    0  0.47514297372E+02 -0.30924336647E+02 -0.27218210364E+02  0.10276313164E+03  0.81274271431E+02 0.  0.
         23    2    1    2    0    0 -0.30423760417E+02  0.13545518166E+02  0.19158472955E+03  0.21441898351E+03  0.90342158669E+02 0.  0.
        -11    1    3    3    0    0  0.28623030269E+02 -0.16846750357E+02  0.27543935446E+02  0.43148108176E+02  0.00000000000E+00 0.  1.
         12    1    3    3    0    0  0.18891267103E+02 -0.14077586291E+02 -0.54762145810E+02  0.59615023461E+02  0.00000000000E+00 0. -1.
        -11    1    4    4    0    0  0.20249163883E+02  0.20668383463E+02  0.19512152631E+02  0.34898922808E+02  0.00000000000E+00 0.  1.
         11    1    4    4    0    0 -0.50672924300E+02 -0.71228652967E+01  0.17207257692E+03  0.17952006070E+03  0.00000000000E+00 0. -1.
          1    1    1    2  501    0 -0.17090536955E+02  0.17378818481E+02  0.11168327956E+02  0.26811216581E+02  0.00000000000E+00 0. -1.
<scales pt_clust_5="13000.00000" pt_clust_6="13000.00000" pt_clust_7="13000.00000" pt_clust_8="13000.00000" pt_clust_9="24.37438"></scales>
<clustering>
<clus scale="   24.374">  1  9  2 -1</clus>
<clus scale="   81.274">  5  6 -1 -1</clus>
<clus scale="   90.342">  7  8 -1 -1</clus>
<clus scale="   97.008">  2  5  1 -1</clus>
<clus scale="   24.374">  1  5  2 -1</clus>
</clustering>
</event>
<event>
 9    2  0.3745229E-005  0.4606362E+03  0.7546771E-02  0.1024597E+00
         21   -1    0    0  501  502  0.00000000000E+00  0.00000000000E+00  0.22951481200E+03  0.22951481200E+03  0.00000000000E+00 0.  1.
          2   -1    0    0  502    0 -0.00000000000E+00 -0.00000000000E+00 -0.15885416424E+04  0.15885416424E+04  0.00000000000E+00 0. -1.
         24    2    1    2    0    0 -0.11297548549E+03  0.10194410171E+03 -0.74041796952E+02  0.18726650128E+03  0.80190364827E+02 0.  0.
         23    2    1    2    0    0 -0.26093889046E+03 -0.18303138458E+02  0.13044851103E+02  0.27739076868E+03  0.91385781052E+02 0.  0.
        -13    1    3    3    0    0 -0.10353438028E+03  0.82284729378E+02 -0.26385025605E+02  0.13485664302E+03  0.00000000000E+00 0.  1.
         14    1    3    3    0    0 -0.94411052040E+01  0.19659372330E+02 -0.47656771347E+02  0.52409858263E+02  0.00000000000E+00 0. -1.
        -13    1    4    4    0    0 -0.23665404478E+03 -0.41782421538E+02 -0.22157269875E+01  0.24032439973E+03  0.00000000000E+00 0.  1.
         13    1    4    4    0    0 -0.24284845682E+02  0.23479283080E+02  0.15260578091E+02  0.37066368953E+02  0.00000000000E+00 0. -1.
          1    1    1    2  501    0  0.37391437594E+03 -0.83640963251E+02 -0.12980298846E+04  0.13533991845E+04  0.00000000000E+00 0. -1.
<scales pt_clust_5="13000.00000" pt_clust_6="13000.00000" pt_clust_7="13000.00000" pt_clust_8="13000.00000" pt_clust_9="383.15521"></scales>
<clustering>
<clus scale="   80.190">  5  6 -1 -1</clus>
<clus scale="   91.386">  7  8 -1 -1</clus>
<clus scale="  164.970">  5  7 -1 -1</clus>
<clus scale="  383.155">  1  9  2 -1</clus>
<clus scale="  383.155">  1  5  2 -1</clus>
</clustering>
</event>
<event>
 9    2  0.3745229E-005  0.1043986E+03  0.7546771E-02  0.1276077E+00
         -3   -1    0    0    0  501 -0.00000000000E+00  0.00000000000E+00  0.71787791247E+02  0.71787791247E+02  0.00000000000E+00 0.  1.
         21   -1    0    0  501  502  0.00000000000E+00 -0.00000000000E+00 -0.41446635866E+03  0.41446635866E+03  0.00000000000E+00 0. -1.
         24    2    1    2    0    0 -0.36166240693E+02  0.34170370920E+02  0.22127665069E+02  0.97289784550E+02  0.80622933472E+02 0.  0.
         23    2    1    2    0    0  0.55296399385E+02 -0.24964610199E+02 -0.26202301947E+03  0.28401152891E+03  0.91244519137E+02 0.  0.
        -11    1    3    3    0    0 -0.48414839962E+02  0.53133511529E+02  0.20007628779E+02  0.74615494271E+02  0.00000000000E+00 0.  1.
         12    1    3    3    0    0  0.12248599269E+02 -0.18963140608E+02  0.21200362901E+01  0.22674290279E+02  0.00000000000E+00 0. -1.
        -11    1    4    4    0    0 -0.17577579830E+02 -0.27010686702E+02 -0.47175181673E+02  0.57131832412E+02  0.00000000000E+00 0.  1.
         11    1    4    4    0    0  0.72873979215E+02  0.20460765036E+01 -0.21484783780E+03  0.22687969650E+03  0.00000000000E+00 0. -1.
         -4    1    1    2    0  502 -0.19130158691E+02 -0.92057607214E+01 -0.10278321301E+03  0.10495283645E+03  0.00000000000E+00 0.  1.
<scales pt_clust_5="13000.00000" pt_clust_6="13000.00000" pt_clust_7="13000.00000" pt_clust_8="13000.00000" pt_clust_9="21.22991"></scales>
<clustering>
<clus scale="   21.230">  2  9  1 -1</clus>
<clus scale="   80.623">  5  6 -1 -1</clus>
<clus scale="   91.245">  7  8 -1 -1</clus>
<clus scale="   95.255">  1  5  2 -1</clus>
<clus scale="   21.230">  2  5  1 -1</clus>
</clustering>
</event>
<event>
 9    2  0.3745229E-005  0.1558525E+03  0.7546771E-02  0.1212927E+00
          2   -1    0    0  502    0 -0.00000000000E+00  0.00000000000E+00  0.23015498415E+03  0.23015498415E+03  0.00000000000E+00 0. -1.
         21   -1    0    0  501  502  0.00000000000E+00 -0.00000000000E+00 -0.22365532447E+03  0.22365532447E+03  0.00000000000E+00 0.  1.
         23    2    1    2    0    0 -0.16977432574E+02  0.48838804209E+02 -0.30484142470E+02  0.10679132156E+03  0.88326900805E+02 0.  0.
         24    2    1    2    0    0 -0.30355478252E+02  0.87175607038E+02  0.12750534040E+03  0.17691762492E+03  0.80753901790E+02 0.  0.
        -13    1    4    4    0    0  0.98977877809E+01  0.42652665508E+02  0.10330392933E+03  0.11220034711E+03  0.00000000000E+00 0.  1.
         14    1    4    4    0    0 -0.40253266033E+02  0.44522941529E+02  0.24201411074E+02  0.64717277807E+02  0.00000000000E+00 0. -1.
        -11    1    3    3    0    0  0.12040122103E+02  0.64083300297E+02 -0.34498076998E+02  0.73768226451E+02  0.00000000000E+00 0.  1.
         11    1    3    3    0    0 -0.29017554677E+02 -0.15244496087E+02  0.40139345289E+01  0.33023095112E+02  0.00000000000E+00 0. -1.
          1    1    1    2  501    0  0.47332910826E+02 -0.13601441125E+03 -0.90521538249E+02  0.17010136214E+03  0.00000000000E+00 0. -1.
<scales pt_clust_5="13000.00000" pt_clust_6="13000.00000" pt_clust_7="13000.00000" pt_clust_8="13000.00000" pt_clust_9="133.29968"></scales>
<clustering>
<clus scale="   80.754">  5  6 -1 -1</clus>
<clus scale="   88.327">  7  8 -1 -1</clus>
<clus scale="  102.348">  1  7  2 -1</clus>
<clus scale="  133.300">  2  9  1 -1</clus>
<clus scale="  133.300">  2  5  1 -1</clus>
</clustering>
</event>
<event>
 9    2  0.3745229E-005  0.2574017E+03  0.7546771E-02  0.1109208E+00
         21   -1    0    0  501  502  0.00000000000E+00  0.00000000000E+00  0.44441541264E+03  0.44441541264E+03  0.00000000000E+00 0.  1.
         -1   -1    0    0    0  501 -0.00000000000E+00 -0.00000000000E+00 -0.40708107514E+03  0.40708107514E+03  0.00000000000E+00 0.  1.
         23    2    1    2    0    0  0.15932576073E+03 -0.20854023725E+03 -0.27157016549E+03  0.38824474826E+03  0.90054989775E+02 0.  0.
         24    2    1    2    0    0 -0.11560068346E+03  0.14796539396E+03  0.74797910334E+02  0.21751388988E+03  0.80375923448E+02 0.  0.
        -11    1    4    4    0    0 -0.12069846542E+03  0.15225187256E+03  0.63509368640E+02  0.20440692786E+03  0.00000000000E+00 0.  1.
         12    1    4    4    0    0  0.50977819593E+01 -0.42864785938E+01  0.11288541694E+02  0.13106962013E+02  0.00000000000E+00 0. -1.
        -11    1    3    3    0    0  0.11423630569E+03 -0.20176793314E+03 -0.22741490281E+03  0.32477341393E+03  0.00000000000E+00 0.  1.
         11    1    3    3    0    0  0.45089455037E+02 -0.67723041157E+01 -0.44155262684E+02  0.63471334327E+02  0.00000000000E+00 0. -1.
         -2    1    1    2    0  502 -0.43725077263E+02  0.60574843290E+02  0.23410659266E+03  0.24573784965E+03  0.00000000000E+00 0.  1.
<scales pt_clust_5="13000.00000" pt_clust_6="13000.00000" pt_clust_7="13000.00000" pt_clust_8="13000.00000" pt_clust_9="74.70739"></scales>
<clustering>
<clus scale="   74.707">  1  9  2 -1</clus>
<clus scale="   80.376">  5  6 -1 -1</clus>
<clus scale="   90.055">  7  8 -1 -1</clus>
<clus scale="  254.177">  1  5  2 -1</clus>
<clus scale="   74.707">  1  5  2 -1</clus>
</clustering>
</event>
<event>
 9    2  0.3745229E-005  0.1052081E+03  0.7546771E-02  0.1272320E+00
         21   -1    0    0  501  502  0.00000000000E+00  0.00000000000E+00  0.19785243341E+03  0.19785243341E+03  0.00000000000E+00 0.  1.
         -1   -1    0    0    0  501 -0.00000000000E+00 -0.00000000000E+00 -0.23556855296E+03  0.23556855296E+03  0.00000000000E+00 0.  1.
         23    2    1    2    0    0 -0.56980636882E+01  0.63757001326E+02 -0.17628912418E+03  0.20827818437E+03  0.90578825525E+02 0.  0.
         24    2    1    2    0    0 -0.12448325556E+02  0.19508611586E+02  0.95652653862E+02  0.12972472065E+03  0.84519383709E+02 0.  0.
        -11    1    4    4    0    0 -0.31330749841E+02  0.42182835974E+02  0.81570270326E+02  0.97029462214E+02  0.00000000000E+00 0.  1.
         12    1    4    4    0    0  0.18882424284E+02 -0.22674224387E+02  0.14082383536E+02  0.32695258440E+02  0.00000000000E+00 0. -1.
        -11    1    3    3    0    0  0.20253075329E+02  0.73073881917E+02 -0.89974238837E+02  0.11766623531E+03  0.00000000000E+00 0.  1.
         11    1    3    3    0    0 -0.25951139017E+02 -0.93168805918E+01 -0.86314885346E+02  0.90611949061E+02  0.00000000000E+00 0. -1.
         -2    1    1    2    0  502  0.18146389245E+02 -0.83265612912E+02  0.42920350777E+02  0.95418081342E+02  0.00000000000E+00 0.  1.
<scales pt_clust_5="13000.00000" pt_clust_6="13000.00000" pt_clust_7="13000.00000" pt_clust_8="13000.00000" pt_clust_9="85.22003"></scales>
<clustering>
<clus scale="   84.519">  5  6 -1 -1</clus>
<clus scale="   85.220">  1  9  2 -1</clus>
<clus scale="   90.579">  7  8 -1 -1</clus>
<clus scale="  100.039">  1  5  2 -1</clus>
<clus scale="   85.220">  1  5  2 -1</clus>
</clustering>
</event>
<event>
 9    2  0.3745229E-005  0.1061773E+03  0.7546771E-02  0.1270919E+00
         -1   -1    0    0    0  501 -0.00000000000E+00  0.00000000000E+00  0.11819692647E+03  0.11819692647E+03  0.00000000000E+00 0.  1.
         21   -1    0    0  501  502  0.00000000000E+00 -0.00000000000E+00 -0.20127915540E+03  0.20127915540E+03  0.00000000000E+00 0.  1.
         23    2    1    2    0    0 -0.25405803603E+01 -0.66159539722E+02  0.52734155004E+02  0.12267459592E+03  0.88795417312E+02 0.  0.
         24    2    1    2    0    0 -0.88150834638E+01  0.26071276134E+02 -0.12845749141E+03  0.15449104661E+03  0.81294152597E+02 0.  0.
        -13    1    4    4    0    0 -0.24987942969E+02  0.50327999835E+02 -0.76584609715E+02  0.94986879654E+02  0.00000000000E+00 0.  1.
         14    1    4    4    0    0  0.16172859505E+02 -0.24256723702E+02 -0.51872881695E+02  0.59504166952E+02  0.00000000000E+00 0. -1.
        -13    1    3    3    0    0 -0.27829463523E+02  0.48493821661E+01 -0.37299119714E+01  0.28493995696E+02  0.00000000000E+00 0. -1.
         13    1    3    3    0    0  0.25288883163E+02 -0.71008921888E+02  0.56464066975E+02  0.94180600225E+02  0.00000000000E+00 0.  1.
         -2    1    1    2    0  502  0.11355663824E+02  0.40088263588E+02 -0.73588925270E+01  0.42310439346E+02  0.00000000000E+00 0.  1.
<scales pt_clust_5="13000.00000" pt_clust_6="13000.00000" pt_clust_7="13000.00000" pt_clust_8="13000.00000" pt_clust_9="41.66559"></scales>
<clustering>
<clus scale="   41.666">  2  9  1 -1</clus>
<clus scale="   81.294">  5  6 -1 -1</clus>
<clus scale="   88.795">  7  8 -1 -1</clus>
<clus scale="   99.989">  2  5  1 -1</clus>
<clus scale="   41.666">  2  5  1 -1</clus>
</clustering>
</event>
<event>
 9    2  0.3745229E-005  0.1364502E+03  0.7546771E-02  0.1220717E+00
          2   -1    0    0  502    0 -0.00000000000E+00  0.00000000000E+00  0.77583896936E+03  0.77583896936E+03  0.00000000000E+00 0. -1.
         21   -1    0    0  501  502  0.00000000000E+00 -0.00000000000E+00 -0.68832812132E+02  0.68832812132E+02  0.00000000000E+00 0.  1.
         23    2    1    2    0    0  0.99929415788E+02 -0.43107000543E+00  0.64443842668E+03  0.65825161297E+03  0.89488693358E+02 0.  0.
         24    2    1    2    0    0 -0.12554749715E+03  0.88894573230E+01  0.57400291357E+02  0.15895140742E+03  0.78291506437E+02 0.  0.
        -11    1    4    4    0    0 -0.69884939430E+02  0.39571962041E+02  0.50850565078E+02  0.95055904118E+02  0.00000000000E+00 0.  1.
         12    1    4    4    0    0 -0.55662557718E+02 -0.30682504718E+02  0.65497262796E+01  0.63895503299E+02  0.00000000000E+00 0. -1.
        -13    1    3    3    0    0  0.46380701046E+02  0.43553357707E+02  0.26444567152E+03  0.27199187044E+03  0.00000000000E+00 0.  1.
         13    1    3    3    0    0  0.53548714742E+02 -0.43984427712E+02  0.37999275515E+03  0.38625974253E+03  0.00000000000E+00 0. -1.
          1    1    1    2  501    0  0.25618081360E+02 -0.84583873176E+01  0.51674391895E+01  0.27468761100E+02  0.00000000000E+00 0. -1.
<scales pt_clust_5="13000.00000" pt_clust_6="13000.00000" pt_clust_7="13000.00000" pt_clust_8="13000.00000" pt_clust_9="26.97833"></scales>
<clustering>
<clus scale="   26.978">  2  9  1 -1</clus>
<clus scale="   78.292">  5  6 -1 -1</clus>
<clus scale="   89.489">  7  8 -1 -1</clus>
<clus scale="  129.383">  2  5  1 -1</clus>
<clus scale="   26.978">  2  5  1 -1</clus>
</clustering>
</event>
<event>
 9    2  0.3745229E-005  0.1386966E+03  0.7546771E-02  0.1224122E+00
         -3   -1    0    0    0  501 -0.00000000000E+00  0.00000000000E+00  0.23523512745E+03  0.23523512745E+03  0.00000000000E+00 0.  1.
         21   -1    0    0  501  502  0.00000000000E+00 -0.00000000000E+00 -0.16553153918E+03  0.16553153918E+03  0.00000000000E+00 0.  1.
         23    2    1    2    0    0 -0.70174111828E+02 -0.62661888492E+01  0.66039879273E+02  0.13238016272E+03  0.90551481128E+02 0.  0.
         24    2    1    2    0    0 -0.73149803236E+02  0.50321455196E+02  0.15230653687E+01  0.11842919840E+03  0.78358233383E+02 0.  0.
        -13    1    4    4    0    0 -0.87409275641E+02  0.34256985989E+02 -0.93625081583E+01  0.94348180248E+02  0.00000000000E+00 0.  1.
         14    1    4    4    0    0  0.14259472405E+02  0.16064469206E+02  0.10885573527E+02  0.24081018150E+02  0.00000000000E+00 0. -1.
        -13    1    3    3    0    0 -0.36165818780E+01  0.26556735586E+02 -0.75739588395E+01  0.27851476118E+02  0.00000000000E+00 0.  1.
         13    1    3    3    0    0 -0.66557529950E+02 -0.32822924435E+02  0.73613838113E+02  0.10452868660E+03  0.00000000000E+00 0. -1.
         -4    1    1    2    0  502  0.14332391506E+03 -0.44055266346E+02  0.21406436273E+01  0.14995730551E+03  0.00000000000E+00 0.  1.
<scales pt_clust_5="13000.00000" pt_clust_6="13000.00000" pt_clust_7="13000.00000" pt_clust_8="13000.00000" pt_clust_9="114.44105"></scales>
<clustering>
<clus scale="   78.358">  5  6 -1 -1</clus>
<clus scale="   90.551">  7  8 -1 -1</clus>
<clus scale="  114.731">  1  7  2 -1</clus>
<clus scale="  114.441">  2  9  1 -1</clus>
<clus scale="  114.441">  2  5  1 -1</clus>
</clustering>
</event>
<event>
 9    2  0.3745229E-005  0.9001412E+02  0.7546771E-02  0.1303692E+00
         -1   -1    0    0    0  501 -0.00000000000E+00  0.00000000000E+00  0.46385673101E+02  0.46385673101E+02  0.00000000000E+00 0.  1.
         21   -1    0    0  501  502  0.00000000000E+00 -0.00000000000E+00 -0.31370311722E+03  0.31370311722E+03  0.00000000000E+00 0.  1.
         24    2    1    2    0    0  0.55665495916E+01  0.11283677457E+02 -0.75374855868E+02  0.11581065701E+03  0.87019719189E+02 0.  0.
         23    2    1    2    0    0 -0.24411406108E+02  0.32372132540E+02 -0.93535711179E+02  0.13498553604E+03  0.88477646677E+02 0.  0.
        -11    1    3    3    0    0 -0.59214819151E+01  0.22728796255E+02  0.12393538693E+02  0.26556768038E+02  0.00000000000E+00 0.  1.
         12    1    3    3    0    0  0.11488031507E+02 -0.11445118798E+02 -0.87768394561E+02  0.89253888969E+02  0.00000000000E+00 0. -1.
        -13    1    4    4    0    0  0.17985219311E+02  0.48141677544E+02 -0.41646325723E+02  0.66147605223E+02  0.00000000000E+00 0.  1.
         13    1    4    4    0    0 -0.42396625419E+02 -0.15769545005E+02 -0.51889385456E+02  0.68837930820E+02  0.00000000000E+00 0. -1.
         -2    1    1    2    0  502  0.18844856517E+02 -0.43655809997E+02 -0.98406877067E+02  0.10929259727E+03  0.00000000000E+00 0.  1.
<scales pt_clust_5="13000.00000" pt_clust_6="13000.00000" pt_clust_7="13000.00000" pt_clust_8="13000.00000" pt_clust_9="47.54954"></scales>
<clustering>
<clus scale="   47.550">  2  9  1 -1</clus>
<clus scale="   87.020">  5  6 -1 -1</clus>
<clus scale="   88.478">  7  8 -1 -1</clus>
<clus scale="   88.581">  1  5  2 -1</clus>
<clus scale="   47.550">  2  5  1 -1</clus>
</clustering>
</event>
<event>
 9    2  0.3745229E-005  0.8939387E+02  0.7546771E-02  0.1309905E+00
         -1   -1    0    0    0  501 -0.00000000000E+00  0.00000000000E+00  0.26183744257E+02  0.26183744257E+02  0.00000000000E+00 0.  1.
         21   -1    0    0  501  502  0.00000000000E+00 -0.00000000000E+00 -0.41580236263E+03  0.41580236263E+03  0.00000000000E+00 0.  1.
         23    2    1    2    0    0  0.29821169593E+02 -0.57129145249E+01 -0.13039723181E+03  0.15391142168E+03  0.75916718262E+02 0.  0.
         24    2    1    2    0    0 -0.21852385326E+02 -0.25833935252E+02 -0.20984822814E+03  0.22894420216E+03  0.85054393720E+02 0.  0.
        -13    1    4    4    0    0 -0.53825399606E+02 -0.19268375288E+02 -0.11118726916E+03  0.12502420866E+03  0.00000000000E+00 0.  1.
         14    1    4    4    0    0  0.31973014280E+02 -0.65655599640E+01 -0.98660958986E+02  0.10391999349E+03  0.00000000000E+00 0. -1.
        -13    1    3    3    0    0  0.19412919236E+02 -0.35722954020E+02 -0.35969266406E+02  0.54284242677E+02  0.00000000000E+00 0.  1.
         13    1    3    3    0    0  0.10408250357E+02  0.30010039495E+02 -0.94427965403E+02  0.99627179003E+02  0.00000000000E+00 0. -1.
         -2    1    1    2    0  502 -0.79687842671E+01  0.31546849776E+02 -0.49373158425E+02  0.59130483056E+02  0.00000000000E+00 0.  1.
<scales pt_clust_5="13000.00000" pt_clust_6="13000.00000" pt_clust_7="13000.00000" pt_clust_8="13000.00000" pt_clust_9="32.53777"></scales>
<clustering>
<clus scale="   32.538">  2  9  1 -1</clus>
<clus scale="   75.917">  7  8 -1 -1</clus>
<clus scale="   80.749">  1  7  2 -1</clus>
<clus scale="   85.054">  5  6 -1 -1</clus>
<clus scale="   32.538">  2  5  1 -1</clus>
</clustering>
</event>
<event>
 9    2  0.3745229E-005  0.1803040E+03  0.7546771E-02  0.1196778E+00
          2   -1    0    0  502    0 -0.00000000000E+00  0.00000000000E+00  0.11201647111E+04  0.11201647111E+04  0.00000000000E+00 0. -1.
         21   -1    0    0  501  502  0.00000000000E+00 -0.00000000000E+00 -0.61418364449E+02  0.61418364449E+02  0.00000000000E+00 0. -1.
         23    2    1    2    0    0  0.21700131515E+02 -0.14325194764E+02  0.44103771673E+02  0.10347125622E+03  0.89916913174E+02 0.  0.
         24    2    1    2    0    0  0.15164753512E+03  0.25976734150E+02  0.34793027151E+03  0.38913397680E+03  0.81841385901E+02 0.  0.
        -13    1    4    4    0    0  0.17654588994E+02  0.31209317162E+02  0.11387820599E+03  0.11938991495E+03  0.00000000000E+00 0.  1.
         14    1    4    4    0    0  0.13399294612E+03 -0.52325830122E+01  0.23405206551E+03  0.26974406186E+03  0.00000000000E+00 0. -1.
        -13    1    3    3    0    0 -0.29467967894E+02 -0.39698122090E+01 -0.68590001370E+01  0.30515019641E+02  0.00000000000E+00 0. -1.
         13    1    3    3    0    0  0.51168099409E+02 -0.10355382555E+02  0.50962771810E+02  0.72956236577E+02  0.00000000000E+00 0.  1.
          1    1    1    2  501    0 -0.17334766663E+03 -0.11651539386E+02  0.66671230349E+03  0.68897784254E+03  0.00000000000E+00 0. -1.
<scales pt_clust_5="13000.00000" pt_clust_6="13000.00000" pt_clust_7="13000.00000" pt_clust_8="13000.00000" pt_clust_9="160.65972"></scales>
<clustering>
<clus scale="   81.841">  5  6 -1 -1</clus>
<clus scale="   89.917">  7  8 -1 -1</clus>
<clus scale="   93.601">  1  7  2 -1</clus>
<clus scale="  160.660">  2  9  1 -1</clus>
<clus scale="  160.660">  2  5  1 -1</clus>
</clustering>
</event>
<event>
 9    2  0.3745229E-005  0.1112706E+03  0.7546771E-02  0.1263170E+00
         -1   -1    0    0    0  501 -0.00000000000E+00  0.00000000000E+00  0.61079261868E+03  0.61079261868E+03  0.00000000000E+00 0.  1.
         21   -1    0    0  501  502  0.00000000000E+00 -0.00000000000E+00 -0.27045952473E+03  0.27045952473E+03  0.00000000000E+00 0.  1.
         23    2    1    2    0    0  0.47908994872E+02  0.40426882655E+02  0.59198659862E+03  0.60243688916E+03  0.92479553624E+02 0.  0.
         24    2    1    2    0    0 -0.23583061870E+02 -0.17746610582E+02 -0.20034103281E+03  0.21766694661E+03  0.79820218136E+02 0.  0.
        -11    1    4    4    0    0 -0.27011563805E+01  0.26452015398E+02 -0.12542976131E+03  0.12821712205E+03  0.00000000000E+00 0.  1.
         12    1    4    4    0    0 -0.20881905489E+02 -0.44198625980E+02 -0.74911271498E+02  0.89449824554E+02  0.00000000000E+00 0. -1.
        -13    1    3    3    0    0 -0.50270779936E+00 -0.27912547973E+02  0.13984008308E+03  0.14259948066E+03  0.00000000000E+00 0. -1.
         13    1    3    3    0    0  0.48411702671E+02  0.68339430627E+02  0.45214651555E+03  0.45983740850E+03  0.00000000000E+00 0.  1.
         -2    1    1    2    0  502 -0.24325933002E+02 -0.22680272072E+02 -0.51312471864E+02  0.61148307634E+02  0.00000000000E+00 0.  1.
<scales pt_clust_5="13000.00000" pt_clust_6="13000.00000" pt_clust_7="13000.00000" pt_clust_8="13000.00000" pt_clust_9="33.25877"></scales>
<clustering>
<clus scale="   33.259">  2  9  1 -1</clus>
<clus scale="   79.820">  5  6 -1 -1</clus>
<clus scale="   92.480">  7  8 -1 -1</clus>
<clus scale="  100.995">  2  5  1 -1</clus>
<clus scale="   33.259">  2  5  1 -1</clus>
</clustering>
</event>
<event>
 9    2  0.3745229E-005  0.1206927E+03  0.7546771E-02  0.1245212E+00
          4   -1    0    0  502    0 -0.00000000000E+00  0.00000000000E+00  0.14914449870E+03  0.14914449870E+03  0.00000000000E+00 0. -1.
         21   -1    0    0  501  502  0.00000000000E+00 -0.00000000000E+00 -0.21463243248E+03  0.21463243248E+03  0.00000000000E+00 0.  1.
         23    2    1    2    0    0  0.40422370323E+02  0.74332768915E+02  0.71580602864E+02  0.14364778690E+03  0.91386954306E+02 0.  0.
         24    2    1    2    0    0  0.19969455605E+02 -0.74525169117E+02 -0.89375856506E+02  0.14317590266E+03  0.80984661434E+02 0.  0.
        -13    1    4    4    0    0  0.46755018166E+02 -0.52773169249E+02 -0.81534076398E+02  0.10779074510E+03  0.00000000000E+00 0.  1.
         14    1    4    4    0    0 -0.26785562561E+02 -0.21751999869E+02 -0.78417801078E+01  0.35385157556E+02  0.00000000000E+00 0. -1.
        -13    1    3    3    0    0  0.22687860331E+02 -0.16809450949E+02  0.32098457748E+02  0.42750527920E+02  0.00000000000E+00 0.  1.
         13    1    3    3    0    0  0.17734509991E+02  0.91142219864E+02  0.39482145116E+02  0.10089725898E+03  0.00000000000E+00 0. -1.
          3    1    1    2  501    0 -0.60391825928E+02  0.19240020204E+00 -0.47692680137E+02  0.76953241617E+02  0.00000000000E+00 0. -1.
<scales pt_clust_5="13000.00000" pt_clust_6="13000.00000" pt_clust_7="13000.00000" pt_clust_8="13000.00000" pt_clust_9="60.39213"></scales>
<clustering>
<clus scale="   60.392">  2  9  1 -1</clus>
<clus scale="   80.985">  5  6 -1 -1</clus>
<clus scale="   91.387">  7  8 -1 -1</clus>
<clus scale="  113.021">  2  5  1 -1</clus>
<clus scale="   60.392">  2  5  1 -1</clus>
</clustering>
</event>
<event>
 9    2  0.3745229E-005  0.1307212E+03  0.7546771E-02  0.1250063E+00
          2   -1    0    0  502    0 -0.00000000000E+00  0.00000000000E+00  0.30549577332E+03  0.30549577332E+03  0.00000000000E+00 0. -1.
         21   -1    0    0  501  502  0.00000000000E+00 -0.00000000000E+00 -0.80588257310E+02  0.80588257310E+02  0.00000000000E+00 0. -1.
         24    2    1    2    0    0 -0.29484656691E+01 -0.77167407114E+01  0.10151020913E+03  0.12968325361E+03  0.80281891927E+02 0.  0.
         23    2    1    2    0    0 -0.47432598347E+02  0.83629723354E+02  0.61842149146E+02  0.14644592270E+03  0.91532370506E+02 0.  0.
        -11    1    3    3    0    0  0.36222773444E+02 -0.16500676904E+02  0.41679035430E+02  0.57632487788E+02  0.00000000000E+00 0.  1.
         12    1    3    3    0    0 -0.39171239113E+02  0.87839361927E+01  0.59831173702E+02  0.72050765820E+02  0.00000000000E+00 0. -1.
        -13    1    4    4    0    0  0.18070572829E+01  0.72176516908E+02  0.63084046206E+02  0.95876545279E+02  0.00000000000E+00 0. -1.
         13    1    4    4    0    0 -0.49239655630E+02  0.11453206446E+02 -0.12418970604E+01  0.50569377421E+02  0.00000000000E+00 0.  1.
          1    1    1    2  501    0  0.50381064016E+02 -0.75912982642E+02  0.61555157730E+02  0.10995485432E+03  0.00000000000E+00 0. -1.
<scales pt_clust_5="13000.00000" pt_clust_6="13000.00000" pt_clust_7="13000.00000" pt_clust_8="13000.00000" pt_clust_9="93.32668"></scales>
<clustering>
<clus scale="   80.282">  5  6 -1 -1</clus>
<clus scale="   80.706">  1  5  2 -1</clus>
<clus scale="   91.532">  7  8 -1 -1</clus>
<clus scale="   93.327">  2  9  1 -1</clus>
<clus scale="   93.327">  2  5  1 -1</clus>
</clustering>
</event>
<event>
 9    2  0.3745229E-005  0.1064799E+03  0.7546771E-02  0.1271451E+00
         21   -1    0    0  501  502  0.00000000000E+00  0.00000000000E+00  0.71994926766E+02  0.71994926766E+02  0.00000000000E+00 0. -1.
          2   -1    0    0  502    0 -0.00000000000E+00 -0.00000000000E+00 -0.39224472732E+03  0.39224472732E+03  0.00000000000E+00 0. -1.
         23    2    1    2    0    0  0.46011030232E+02 -0.26285646593E+02 -0.24631442147E+03  0.26734717097E+03  0.89419044315E+02 0.  0.
         24    2    1    2    0    0 -0.38628558742E+02  0.83308049583E+02 -0.31249756135E+02  0.12528160590E+03  0.79287684055E+02 0.  0.
        -13    1    4    4    0    0 -0.45944786689E+02  0.53198744985E+02  0.12777071242E+02  0.71444268080E+02  0.00000000000E+00 0.  1.
         14    1    4    4    0    0  0.73162279476E+01  0.30109304598E+02 -0.44026827377E+02  0.53837337821E+02  0.00000000000E+00 0. -1.
        -13    1    3    3    0    0 -0.23148407081E+02  0.79681600226E+01 -0.38078121899E+02  0.45269014699E+02  0.00000000000E+00 0.  1.
         13    1    3    3    0    0  0.69159437313E+02 -0.34253806615E+02 -0.20823629957E+03  0.22207815627E+03  0.00000000000E+00 0. -1.
          1    1    1    2  501    0 -0.73824714903E+01 -0.57022402990E+02 -0.42685622953E+02  0.71610877212E+02  0.00000000000E+00 0. -1.
<scales pt_clust_5="13000.00000" pt_clust_6="13000.00000" pt_clust_7="13000.00000" pt_clust_8="13000.00000" pt_clust_9="57.49831"></scales>
<clustering>
<clus scale="   57.498">  1  9  2 -1</clus>
<clus scale="   79.288">  5  6 -1 -1</clus>
<clus scale="   89.419">  7  8 -1 -1</clus>
<clus scale="   98.126">  1  5  2 -1</clus>
<clus scale="   57.498">  1  5  2 -1</clus>
</clustering>
</event>
<event>
 9    2  0.3745229E-005  0.1339417E+03  0.7546771E-02  0.1224449E+00
          2   -1    0    0  502    0 -0.00000000000E+00  0.00000000000E+00  0.82835169711E+02  0.82835169711E+02  0.00000000000E+00 0. -1.
         21   -1    0    0  501  502  0.00000000000E+00 -0.00000000000E+00 -0.35053082509E+03  0.35053082509E+03  0.00000000000E+00 0.  1.
         24    2    1    2    0    0 -0.64717367275E+02 -0.30782852138E+02 -0.10411810764E+03  0.15002852836E+03  0.80821144327E+02 0.  0.
         23    2    1    2    0    0  0.13206524325E+03  0.12123323834E+02 -0.11702841898E+03  0.19936880691E+03  0.92000363390E+02 0.  0.
        -11    1    3    3    0    0 -0.23729036048E+02 -0.15228774851E+02  0.82775934680E+01  0.29385392440E+02  0.00000000000E+00 0.  1.
         12    1    3    3    0    0 -0.40988331227E+02 -0.15554077287E+02 -0.11239570111E+03  0.12064313592E+03  0.00000000000E+00 0. -1.
        -13    1    4    4    0    0  0.10976282964E+03  0.32430548849E+01 -0.13151437462E+03  0.17133133662E+03  0.00000000000E+00 0.  1.
         13    1    4    4    0    0  0.22302413615E+02  0.88802689489E+01  0.14485955640E+02  0.28037470294E+02  0.00000000000E+00 0. -1.
          1    1    1    2  501    0 -0.67347875978E+02  0.18659528304E+02 -0.46549128762E+02  0.83968659533E+02  0.00000000000E+00 0. -1.
<scales pt_clust_5="13000.00000" pt_clust_6="13000.00000" pt_clust_7="13000.00000" pt_clust_8="13000.00000" pt_clust_9="69.88504"></scales>
<clustering>
<clus scale="   69.885">  2  9  1 -1</clus>
<clus scale="   80.821">  5  6 -1 -1</clus>
<clus scale="   92.000">  7  8 -1 -1</clus>
<clus scale="  126.524">  1  5  2 -1</clus>
<clus scale="   69.885">  2  5  1 -1</clus>
</clustering>
</event>
<event>
 9    2  0.3745229E-005  0.1899439E+03  0.7546771E-02  0.1159654E+00
          2   -1    0    0  502    0 -0.00000000000E+00  0.00000000000E+00  0.11211052056E+04  0.11211052056E+04  0.00000000000E+00 0. -1.
         21   -1    0    0  501  502  0.00000000000E+00 -0.00000000000E+00 -0.12185647060E+03  0.12185647060E+03  0.00000000000E+00 0. -1.
         23    2    1    2    0    0  0.13223433958E+03 -0.10141740045E+03  0.10017126718E+04  0.10195674664E+04  0.91203793937E+02 0.  0.
         24    2    1    2    0    0 -0.14656697935E+03  0.81806545023E+02 -0.27988545795E+02  0.18815905864E+03  0.80288743966E+02 0.  0.
        -13    1    4    4    0    0 -0.33429447765E+02  0.46853893682E+02 -0.38551767342E+02  0.69275205493E+02  0.00000000000E+00 0.  1.
         14    1    4    4    0    0 -0.11313753159E+03  0.34952651341E+02  0.10563221547E+02  0.11888385315E+03  0.00000000000E+00 0. -1.
        -11    1    3    3    0    0  0.14226399200E+03 -0.73780256758E+02  0.86652176099E+03  0.88121650687E+03  0.00000000000E+00 0. -1.
         11    1    3    3    0    0 -0.10029652421E+02 -0.27637143691E+02  0.13519091077E+03  0.13835095950E+03  0.00000000000E+00 0.  1.
          1    1    1    2  501    0  0.14332639774E+02  0.19610855427E+02  0.25524609034E+02  0.35235151196E+02  0.00000000000E+00 0. -1.
<scales pt_clust_5="13000.00000" pt_clust_6="13000.00000" pt_clust_7="13000.00000" pt_clust_8="13000.00000" pt_clust_9="24.29013"></scales>
<clustering>
<clus scale="   24.290">  2  9  1 -1</clus>
<clus scale="   80.289">  5  6 -1 -1</clus>
<clus scale="   91.204">  7  8 -1 -1</clus>
<clus scale="  184.951">  2  5  1 -1</clus>
<clus scale="   24.290">  2  5  1 -1</clus>
</clustering>
</event>
<event>
 9    2  0.3745229E-005  0.1856738E+03  0.7546771E-02  0.1163505E+00
          2   -1    0    0  502    0 -0.00000000000E+00  0.00000000000E+00  0.92743651455E+03  0.92743651455E+03  0.00000000000E+00 0. -1.
         21   -1    0    0  501  502  0.00000000000E+00 -0.00000000000E+00 -0.99961114650E+02  0.99961114650E+02  0.00000000000E+00 0. -1.
         24    2    1    2    0    0  0.16863377993E+03  0.64971838036E+02  0.47447860248E+03  0.51389779970E+03  0.79387107617E+02 0.  0.
         23    2    1    2    0    0 -0.15044145978E+03  0.10162862691E+03  0.22506067507E+03  0.30265788198E+03  0.89378271583E+02 0.  0.
        -11    1    3    3    0    0  0.69297345794E+02  0.94916763212E+00  0.10358519523E+03  0.12463111860E+03  0.00000000000E+00 0.  1.
         12    1    3    3    0    0  0.99336434141E+02  0.64022670404E+02  0.37089340725E+03  0.38926668110E+03  0.00000000000E+00 0. -1.
        -11    1    4    4    0    0 -0.71706749452E+02 -0.23554861697E+01  0.86115904129E+02  0.11208637373E+03  0.00000000000E+00 0.  1.
         11    1    4    4    0    0 -0.78734710324E+02  0.10398411308E+03  0.13894477095E+03  0.19057150825E+03  0.00000000000E+00 0. -1.
          1    1    1    2  501    0 -0.18192320160E+02 -0.16660046494E+03  0.12793612234E+03  0.21084194752E+03  0.00000000000E+00 0. -1.
<scales pt_clust_5="13000.00000" pt_clust_6="13000.00000" pt_clust_7="13000.00000" pt_clust_8="13000.00000" pt_clust_9="167.59080"></scales>
<clustering>
<clus scale="   79.387">  5  6 -1 -1</clus>
<clus scale="   89.378">  7  8 -1 -1</clus>
<clus scale="  167.591">  2  9  1 -1</clus>
<clus scale="  181.076">  1  5  2 -1</clus>
<clus scale="  167.591">  2  5  1 -1</clus>
</clustering>
</event>
<event>
 9    2  0.3745229E-005  0.1148185E+03  0.7546771E-02  0.1266485E+00
          2   -1    0    0  502    0 -0.00000000000E+00  0.00000000000E+00  0.61020208071E+03  0.61020208071E+03  0.00000000000E+00 0. -1.
         21   -1    0    0  501  502  0.00000000000E+00 -0.00000000000E+00 -0.32439370654E+02  0.32439370654E+02  0.00000000000E+00 0. -1.
         24    2    1    2    0    0  0.11457240083E+02  0.40956851580E+02  0.36279346117E+03  0.37405912588E+03  0.80575443831E+02 0.  0.
         23    2    1    2    0    0  0.71814276527E+01  0.28740640502E+01  0.17047725062E+03  0.20340497505E+03  0.11068539988E+03 0.  0.
        -13    1    3    3    0    0 -0.12667003688E+02  0.52383331176E+02  0.31257504853E+03  0.31718705416E+03  0.00000000000E+00 0.  1.
         14    1    3    3    0    0  0.24124243771E+02 -0.11426479596E+02  0.50218412644E+02  0.56872071722E+02  0.00000000000E+00 0. -1.
        -13    1    4    4    0    0  0.22559134759E+02 -0.50064454735E+02  0.72032135945E+02  0.90575895236E+02  0.00000000000E+00 0.  1.
         13    1    4    4    0    0 -0.15377707106E+02  0.52938518785E+02  0.98445114678E+02  0.11282907981E+03  0.00000000000E+00 0. -1.
          1    1    1    2  501    0 -0.18638667736E+02 -0.43830915630E+02  0.44491998263E+02  0.65177350432E+02  0.00000000000E+00 0. -1.
<scales pt_clust_5="13000.00000" pt_clust_6="13000.00000" pt_clust_7="13000.00000" pt_clust_8="13000.00000" pt_clust_9="47.62929"></scales>
<clustering>
<clus scale="   47.629">  2  9  1 -1</clus>
<clus scale="   80.575">  5  6 -1 -1</clus>
<clus scale="   86.165">  1  5  2 -1</clus>
<clus scale="  110.685">  7  8 -1 -1</clus>
<clus scale="   47.629">  2  5  1 -1</clus>
</clustering>
</event>
<event>
 9    2  0.3745229E-005  0.1115519E+03  0.7546771E-02  0.1262383E+00
          2   -1    0    0  502    0 -0.00000000000E+00  0.00000000000E+00  0.50198600990E+03  0.50198600990E+03  0.00000000000E+00 0. -1.
         21   -1    0    0  501  502  0.00000000000E+00 -0.00000000000E+00 -0.37800747019E+02  0.37800747019E+02  0.00000000000E+00 0.  1.
         24    2    1    2    0    0  0.26164766522E+02  0.70154947813E+02  0.21932526716E+03  0.24524138578E+03  0.80208807363E+02 0.  0.
         23    2    1    2    0    0 -0.30463017587E+02 -0.32026790424E+02  0.94218642699E+02  0.13909425795E+03  0.92284068061E+02 0.  0.
        -13    1    3    3    0    0  0.31433977098E+02  0.49353042712E+02  0.57629140349E+02  0.82127556633E+02  0.00000000000E+00 0.  1.
         14    1    3    3    0    0 -0.52692105759E+01  0.20801905100E+02  0.16169612681E+03  0.16311382915E+03  0.00000000000E+00 0. -1.
        -13    1    4    4    0    0 -0.46481434557E+02 -0.91698913566E+01  0.74657037972E+01  0.47961936983E+02  0.00000000000E+00 0.  1.
         13    1    4    4    0    0  0.16018416970E+02 -0.22856899067E+02  0.86752938902E+02  0.91132320970E+02  0.00000000000E+00 0. -1.
          1    1    1    2  501    0  0.42982510651E+01 -0.38128157389E+02  0.15064135302E+03  0.15545111318E+03  0.00000000000E+00 0. -1.
<scales pt_clust_5="13000.00000" pt_clust_6="13000.00000" pt_clust_7="13000.00000" pt_clust_8="13000.00000" pt_clust_9="38.36969"></scales>
<clustering>
<clus scale="   38.370">  2  9  1 -1</clus>
<clus scale="   80.209">  5  6 -1 -1</clus>
<clus scale="   92.284">  7  8 -1 -1</clus>
<clus scale="  101.789">  1  5  2 -1</clus>
<clus scale="   38.370">  2  5  1 -1</clus>
</clustering>
</event>
<event>
 9    2  0.3745229E-005  0.1844922E+03  0.7546771E-02  0.1193748E+00
         21   -1    0    0  501  502  0.00000000000E+00  0.00000000000E+00  0.20035279325E+03  0.20035279325E+03  0.00000000000E+00 0. -1.
          2   -1    0    0  502    0 -0.00000000000E+00 -0.00000000000E+00 -0.49974744511E+03  0.49974744511E+03  0.00000000000E+00 0. -1.
         24    2    1    2    0    0 -0.32155234972E+02 -0.33081305060E+02  0.41752810664E+02  0.10227459778E+03  0.81169355498E+02 0.  0.
         23    2    1    2    0    0 -0.13262413384E+03  0.13546256233E+02 -0.39253787104E+03  0.42411659474E+03  0.89533478678E+02 0.  0.
        -11    1    3    3    0    0  0.27303394549E+02 -0.13013718732E+02  0.17863759883E+02  0.35127569604E+02  0.00000000000E+00 0.  1.
         12    1    3    3    0    0 -0.59458629521E+02 -0.20067586328E+02  0.23889050781E+02  0.67147028175E+02  0.00000000000E+00 0. -1.
        -11    1    4    4    0    0 -0.51663974240E+02  0.43652314244E+02 -0.23395545769E+03  0.24353613069E+03  0.00000000000E+00 0. -1.
         11    1    4    4    0    0 -0.80960159605E+02 -0.30106058011E+02 -0.15858241335E+03  0.18058046405E+03  0.00000000000E+00 0.  1.
          1    1    1    2  501    0  0.16477936882E+03  0.19535048827E+02  0.51390408515E+02  0.17370904584E+03  0.00000000000E+00 0. -1.
<scales pt_clust_5="13000.00000" pt_clust_6="13000.00000" pt_clust_7="13000.00000" pt_clust_8="13000.00000" pt_clust_9="161.31071"></scales>
<clustering>
<clus scale="   81.169">  5  6 -1 -1</clus>
<clus scale="   89.533">  7  8 -1 -1</clus>
<clus scale="   93.364">  2  5  1 -1</clus>
<clus scale="  161.311">  1  9  2 -1</clus>
<clus scale="  161.311">  1  5  2 -1</clus>
</clustering>
</event>
<event>
 9    2  0.3745229E-005  0.1188759E+03  0.7546771E-02  0.1247729E+00
         21   -1    0    0  501  502  0.00000000000E+00  0.00000000000E+00  0.12833576184E+03  0.12833576184E+03  0.00000000000E+00 0.  1.
          2   -1    0    0  502    0 -0.00000000000E+00 -0.00000000000E+00 -0.28072387967E+03  0.28072387967E+03  0.00000000000E+00 0. -1.
         24    2    1    2    0    0  0.69781572125E+02  0.23494568678E+02 -0.70493454654E+02  0.12994634010E+03  0.80593185760E+02 0.  0.
         23    2    1    2    0    0 -0.61261045309E+02 -0.88531403381E+02  0.35768465135E+02  0.14440249632E+03  0.89341887088E+02 0.  0.
        -11    1    3    3    0    0  0.59229817510E+02  0.31297971229E+02 -0.96241673536E+01  0.67678348698E+02  0.00000000000E+00 0.  1.
         12    1    3    3    0    0  0.10551754616E+02 -0.78034025512E+01 -0.60869287300E+02  0.62267991402E+02  0.00000000000E+00 0. -1.
        -11    1    4    4    0    0 -0.19873361228E+02 -0.95138787881E+02  0.31986338360E+02  0.10232040504E+03  0.00000000000E+00 0.  1.
         11    1    4    4    0    0 -0.41387684081E+02  0.66073844999E+01  0.37821267751E+01  0.42082091280E+02  0.00000000000E+00 0. -1.
          1    1    1    2  501    0 -0.85205268161E+01  0.65036834702E+02 -0.11766312830E+03  0.13471080509E+03  0.00000000000E+00 0. -1.
<scales pt_clust_5="13000.00000" pt_clust_6="13000.00000" pt_clust_7="13000.00000" pt_clust_8="13000.00000" pt_clust_9="65.59263"></scales>
<clustering>
<clus scale="   65.593">  1  9  2 -1</clus>
<clus scale="   80.593">  5  6 -1 -1</clus>
<clus scale="   89.342">  7  8 -1 -1</clus>
<clus scale="  112.449">  2  5  1 -1</clus>
<clus scale="   65.593">  1  5  2 -1</clus>
</clustering>
</event>
<event>
 9    2  0.3745229E-005  0.1297808E+03  0.7546771E-02  0.1249459E+00
          2   -1    0    0  502    0 -0.00000000000E+00  0.00000000000E+00  0.95556655822E+03  0.95556655822E+03  0.00000000000E+00 0. -1.
         21   -1    0    0  501  502  0.00000000000E+00 -0.00000000000E+00 -0.24595877711E+02  0.24595877711E+02  0.00000000000E+00 0. -1.
         24    2    1    2    0    0  0.55467310796E+01  0.17202810346E+02  0.23890561094E+03  0.25306905619E+03  0.81494498901E+02 0.  0.
         23    2    1    2    0    0  0.83832102140E+02 -0.34822925245E+02  0.35943237571E+03  0.38221143864E+03  0.93024156253E+02 0.  0.
        -11    1    3    3    0    0  0.14749132467E+02 -0.26327514176E+02  0.45401746682E+02  0.54515993185E+02  0.00000000000E+00 0.  1.
         12    1    3    3    0    0 -0.92024013871E+01  0.43530324522E+02  0.19350386426E+03  0.19855306300E+03  0.00000000000E+00 0. -1.
        -11    1    4    4    0    0  0.31889742908E+02 -0.31991731930E+02  0.45922162919E+02  0.64414840385E+02  0.00000000000E+00 0. -1.
         11    1    4    4    0    0  0.51942359232E+02 -0.28311933155E+01  0.31351021279E+03  0.31779659825E+03  0.00000000000E+00 0.  1.
          1    1    1    2  501    0 -0.89378833220E+02  0.17620114899E+02  0.33263269386E+03  0.34488194111E+03  0.00000000000E+00 0. -1.
<scales pt_clust_5="13000.00000" pt_clust_6="13000.00000" pt_clust_7="13000.00000" pt_clust_8="13000.00000" pt_clust_9="90.49626"></scales>
<clustering>
<clus scale="   81.494">  5  6 -1 -1</clus>
<clus scale="   83.475">  1  5  2 -1</clus>
<clus scale="   90.496">  2  9  1 -1</clus>
<clus scale="   93.024">  7  8 -1 -1</clus>
<clus scale="   90.496">  2  5  1 -1</clus>
</clustering>
</event>
<event>
 9    2  0.3745229E-005  0.1133239E+03  0.7546771E-02  0.1265220E+00
         21   -1    0    0  501  502  0.00000000000E+00  0.00000000000E+00  0.10714807620E+03  0.10714807620E+03  0.00000000000E+00 0.  1.
          2   -1    0    0  502    0 -0.00000000000E+00 -0.00000000000E+00 -0.16304107625E+03  0.16304107625E+03  0.00000000000E+00 0. -1.
         24    2    1    2    0    0  0.40119211083E+02 -0.16500514876E+02 -0.75072700126E+02  0.11923556050E+03  0.81849804490E+02 0.  0.
         23    2    1    2    0    0 -0.18370972191E+02  0.42924785246E+02  0.18427104462E+02  0.11672210995E+03  0.10537771570E+03 0.  0.
        -13    1    3    3    0    0  0.15241496370E+02  0.27516550754E+02 -0.35631347175E+01  0.31656906135E+02  0.00000000000E+00 0.  1.
         14    1    3    3    0    0  0.24877714713E+02 -0.44017065630E+02 -0.71509565408E+02  0.87578654368E+02  0.00000000000E+00 0. -1.
        -13    1    4    4    0    0 -0.44753388627E+02 -0.44961338158E+01 -0.21005921564E+02  0.49642016011E+02  0.00000000000E+00 0. -1.
         13    1    4    4    0    0  0.26382416436E+02  0.47420919062E+02  0.39433026027E+02  0.67080093942E+02  0.00000000000E+00 0.  1.
          1    1    1    2  501    0 -0.21748238892E+02 -0.26424270371E+02  0.75259561866E+00  0.34231481997E+02  0.00000000000E+00 0. -1.
<scales pt_clust_5="13000.00000" pt_clust_6="13000.00000" pt_clust_7="13000.00000" pt_clust_8="13000.00000" pt_clust_9="34.22321"></scales>
<clustering>
<clus scale="   34.223">  1  9  2 -1</clus>
<clus scale="   81.850">  5  6 -1 -1</clus>
<clus scale="   91.854">  2  5  1 -1</clus>
<clus scale="  105.378">  7  8 -1 -1</clus>
<clus scale="   34.223">  1  5  2 -1</clus>
</clustering>
</event>
<event>
 9    2  0.3745229E-005  0.1680205E+03  0.7546771E-02  0.1181621E+00
         -3   -1    0    0    0  501 -0.00000000000E+00  0.00000000000E+00  0.74922549209E+02  0.74922549209E+02  0.00000000000E+00 0.  1.
         21   -1    0    0  501  502  0.00000000000E+00 -0.00000000000E+00 -0.66713464322E+03  0.66713464322E+03  0.00000000000E+00 0.  1.
         24    2    1    2    0    0  0.15156605924E+03 -0.23087382581E+02 -0.74772883103E+02  0.18678420597E+03  0.76105571453E+02 0.  0.
         23    2    1    2    0    0 -0.10135604698E+03  0.45120702175E+02 -0.42137368986E+03  0.44466061447E+03  0.88647332328E+02 0.  0.
        -11    1    3    3    0    0  0.73440955026E+02  0.25328652149E+02 -0.46875018996E+02  0.90732474344E+02  0.00000000000E+00 0.  1.
         12    1    3    3    0    0  0.78125104210E+02 -0.48416034731E+02 -0.27897864107E+02  0.96051731627E+02  0.00000000000E+00 0. -1.
        -13    1    4    4    0    0 -0.46749019844E+02 -0.24752933138E+02 -0.17455254471E+03  0.18239180195E+03  0.00000000000E+00 0. -1.
         13    1    4    4    0    0 -0.54607027133E+02  0.69873635312E+02 -0.24682114515E+03  0.26226881251E+03  0.00000000000E+00 0.  1.
         -4    1    1    2    0  502 -0.50210012258E+02 -0.22033319593E+02 -0.96065521052E+02  0.11061237199E+03  0.00000000000E+00 0.  1.
<scales pt_clust_5="13000.00000" pt_clust_6="13000.00000" pt_clust_7="13000.00000" pt_clust_8="13000.00000" pt_clust_9="54.83167"></scales>
<clustering>
<clus scale="   54.832">  2  9  1 -1</clus>
<clus scale="   76.106">  5  6 -1 -1</clus>
<clus scale="   88.647">  7  8 -1 -1</clus>
<clus scale="  161.755">  1  5  2 -1</clus>
<clus scale="   54.832">  2  5  1 -1</clus>
</clustering>
</event>
<event>
 9    2  0.3745229E-005  0.1453506E+03  0.7546771E-02  0.1232579E+00
         21   -1    0    0  501  502  0.00000000000E+00  0.00000000000E+00  0.55993612824E+02  0.55993612824E+02  0.00000000000E+00 0.  1.
          2   -1    0    0  502    0 -0.00000000000E+00 -0.00000000000E+00 -0.55162204384E+03  0.55162204384E+03  0.00000000000E+00 0. -1.
         24    2    1    2    0    0 -0.17346668209E+01 -0.27933739449E+02 -0.86236322877E+02  0.12015675508E+03  0.78852010375E+02 0.  0.
         23    2    1    2    0    0  0.11461257780E+03  0.65887048574E+00 -0.19057614435E+03  0.23973775336E+03  0.89545778768E+02 0.  0.
        -13    1    3    3    0    0 -0.15227479279E+02 -0.52638907836E+02 -0.49251463062E+02  0.73677929919E+02  0.00000000000E+00 0.  1.
         14    1    3    3    0    0  0.13492812458E+02  0.24705168387E+02 -0.36984859815E+02  0.46478825164E+02  0.00000000000E+00 0. -1.
        -11    1    4    4    0    0  0.13700540910E+02 -0.23310384376E+02 -0.94731564848E+02  0.98514710676E+02  0.00000000000E+00 0. -1.
         11    1    4    4    0    0  0.10091203689E+03  0.23969254862E+02 -0.95844579498E+02  0.14122304269E+03  0.00000000000E+00 0.  1.
          1    1    1    2  501    0 -0.11287791098E+03  0.27274868963E+02 -0.21881596379E+03  0.24772114821E+03  0.00000000000E+00 0. -1.
<scales pt_clust_5="13000.00000" pt_clust_6="13000.00000" pt_clust_7="13000.00000" pt_clust_8="13000.00000" pt_clust_9="114.49179"></scales>
<clustering>
<clus scale="   78.852">  5  6 -1 -1</clus>
<clus scale="   83.672">  2  5  1 -1</clus>
<clus scale="   89.546">  7  8 -1 -1</clus>
<clus scale="  114.492">  1  9  2 -1</clus>
<clus scale="  114.492">  1  5  2 -1</clus>
</clustering>
</event>
<event>
 9    2  0.3745229E-005  0.9413494E+02  0.7546771E-02  0.1300100E+00
         -3   -1    0    0    0  501 -0.00000000000E+00  0.00000000000E+00  0.11111566988E+03  0.11111566988E+03  0.00000000000E+00 0.  1.
         21   -1    0    0  501  502  0.00000000000E+00 -0.00000000000E+00 -0.20079296888E+03  0.20079296888E+03  0.00000000000E+00 0.  1.
         24    2    1    2    0    0 -0.20840009024E+02 -0.35066140286E+02  0.46437916380E+02  0.98933425859E+02  0.77248964419E+02 0.  0.
         23    2    1    2    0    0  0.15306822303E+02 -0.54856218695E+01 -0.24457834525E+02  0.94053254171E+02  0.89350087265E+02 0.  0.
        -11    1    3    3    0    0 -0.26081113952E+02 -0.56843705553E+02  0.23330442413E+02  0.66751336385E+02  0.00000000000E+00 0.  1.
         12    1    3    3    0    0  0.52411049286E+01  0.21777565267E+02  0.23107473966E+02  0.32182089474E+02  0.00000000000E+00 0. -1.
        -13    1    4    4    0    0  0.51574770639E+02 -0.13859297961E+01 -0.25475303068E+02  0.57540149759E+02  0.00000000000E+00 0.  1.
         13    1    4    4    0    0 -0.36267948336E+02 -0.40996920735E+01  0.10174685432E+01  0.36513104412E+02  0.00000000000E+00 0. -1.
         -4    1    1    2    0  502  0.55331867205E+01  0.40551762155E+02 -0.11165738085E+03  0.11892195873E+03  0.00000000000E+00 0.  1.
<scales pt_clust_5="13000.00000" pt_clust_6="13000.00000" pt_clust_7="13000.00000" pt_clust_8="13000.00000" pt_clust_9="40.92752"></scales>
<clustering>
<clus scale="   40.928">  2  9  1 -1</clus>
<clus scale="   77.249">  5  6 -1 -1</clus>
<clus scale="   82.737">  1  5  2 -1</clus>
<clus scale="   89.350">  7  8 -1 -1</clus>
<clus scale="   40.928">  2  5  1 -1</clus>
</clustering>
</event>
<event>
 9    2  0.3745229E-005  0.9468082E+02  0.7546771E-02  0.1297965E+00
          2   -1    0    0  502    0 -0.00000000000E+00  0.00000000000E+00  0.26495981562E+03  0.26495981562E+03  0.00000000000E+00 0. -1.
         21   -1    0    0  501  502  0.00000000000E+00 -0.00000000000E+00 -0.12479074982E+03  0.12479074982E+03  0.00000000000E+00 0.  1.
         23    2    1    2    0    0 -0.46621359885E+01  0.13661821222E+02  0.13847376170E+03  0.16671689868E+03  0.91712380599E+02 0.  0.
         24    2    1    2    0    0  0.66706967707E+02 -0.57720309126E+02 -0.51158351326E+02  0.13038259882E+03  0.81246486311E+02 0.  0.
        -13    1    4    4    0    0  0.52590680687E+02 -0.77770634148E+02 -0.48632880909E+02  0.10573177543E+03  0.00000000000E+00 0.  1.
         14    1    4    4    0    0  0.14116287020E+02  0.20050325022E+02 -0.25254704172E+01  0.24650823385E+02  0.00000000000E+00 0. -1.
        -13    1    3    3    0    0 -0.47277586212E+02  0.46434106945E+01  0.88340401951E+02  0.10030333014E+03  0.00000000000E+00 0. -1.
         13    1    3    3    0    0  0.42615450223E+02  0.90184105280E+01  0.50133359746E+02  0.66413568535E+02  0.00000000000E+00 0.  1.
          1    1    1    2  501    0 -0.62044831719E+02  0.44058487904E+02  0.52853655429E+02  0.92651067946E+02  0.00000000000E+00 0. -1.
<scales pt_clust_5="13000.00000" pt_clust_6="13000.00000" pt_clust_7="13000.00000" pt_clust_8="13000.00000" pt_clust_9="76.09676"></scales>
<clustering>
<clus scale="   76.097">  2  9  1 -1</clus>
<clus scale="   81.246">  5  6 -1 -1</clus>
<clus scale="   84.583">  2  5  1 -1</clus>
<clus scale="   91.712">  7  8 -1 -1</clus>
<clus scale="   76.097">  2  5  1 -1</clus>
</clustering>
</event>
<event>
 9    2  0.3745229E-005  0.1618898E+03  0.7546771E-02  0.1213778E+00
         21   -1    0    0  501  502  0.00000000000E+00  0.00000000000E+00  0.18820857027E+03  0.18820857027E+03  0.00000000000E+00 0.  1.
          2   -1    0    0  502    0 -0.00000000000E+00 -0.00000000000E+00 -0.23184558832E+03  0.23184558832E+03  0.00000000000E+00 0. -1.
         23    2    1    2    0    0  0.10715775939E+01 -0.79689897105E+01 -0.46791936579E+02  0.10115679029E+03  0.89322773227E+02 0.  0.
         24    2    1    2    0    0 -0.92931633380E+02  0.11242054497E+03  0.50774819400E+02  0.17187338318E+03  0.75416908888E+02 0.  0.
        -11    1    4    4    0    0 -0.52172313172E+02  0.10873179134E+03  0.51014773030E+02  0.13094678223E+03  0.00000000000E+00 0.  1.
         12    1    4    4    0    0 -0.40759320208E+02  0.36887536273E+01 -0.23995363014E+00  0.40926600945E+02  0.00000000000E+00 0. -1.
        -13    1    3    3    0    0 -0.39582016957E+02 -0.16805889120E+02 -0.40517513589E+02  0.59083355380E+02  0.00000000000E+00 0.  1.
         13    1    3    3    0    0  0.40653594551E+02  0.88368994096E+01 -0.62744229899E+01  0.42073434908E+02  0.00000000000E+00 0. -1.
          1    1    1    2  501    0  0.91860055786E+02 -0.10445155525E+03 -0.47619900874E+02  0.14702398513E+03  0.00000000000E+00 0. -1.
<scales pt_clust_5="13000.00000" pt_clust_6="13000.00000" pt_clust_7="13000.00000" pt_clust_8="13000.00000" pt_clust_9="143.25016"></scales>
<clustering>
<clus scale="   75.417">  5  6 -1 -1</clus>
<clus scale="   89.323">  7  8 -1 -1</clus>
<clus scale="   89.684">  2  7  1 -1</clus>
<clus scale="  143.250">  1  9  2 -1</clus>
<clus scale="  143.250">  1  5  2 -1</clus>
</clustering>
</event>
<event>
 9    2  0.3745229E-005  0.1626816E+03  0.7546771E-02  0.1204156E+00
         -1   -1    0    0    0  501 -0.00000000000E+00  0.00000000000E+00  0.47200733785E+03  0.47200733785E+03  0.00000000000E+00 0.  1.
         21   -1    0    0  501  502  0.00000000000E+00 -0.00000000000E+00 -0.96617865291E+02  0.96617865291E+02  0.00000000000E+00 0.  1.
         23    2    1    2    0    0  0.49935864333E+01  0.37710898643E+02  0.72495081594E+02  0.13055585343E+03  0.10169683489E+03 0.  0.
         24    2    1    2    0    0 -0.13608882981E+03  0.25484711074E+02  0.21596822270E+03  0.26855295920E+03  0.79427819945E+02 0.  0.
        -13    1    4    4    0    0 -0.13371719329E+03  0.42844205556E+02  0.17782451934E+03  0.22657774253E+03  0.00000000000E+00 0.  1.
         14    1    4    4    0    0 -0.23716365192E+01 -0.17359494482E+02  0.38143703365E+02  0.41975216674E+02  0.00000000000E+00 0. -1.
        -11    1    3    3    0    0  0.16218794329E+02  0.70829754586E+02  0.56785251832E+02  0.92219673876E+02  0.00000000000E+00 0. -1.
         11    1    3    3    0    0 -0.11225207896E+02 -0.33118855943E+02  0.15709829762E+02  0.38336179550E+02  0.00000000000E+00 0.  1.
         -2    1    1    2    0  502  0.13109524338E+03 -0.63195609717E+02  0.86926168258E+02  0.16951639051E+03  0.00000000000E+00 0.  1.
<scales pt_clust_5="13000.00000" pt_clust_6="13000.00000" pt_clust_7="13000.00000" pt_clust_8="13000.00000" pt_clust_9="141.97363"></scales>
<clustering>
<clus scale="   79.428">  5  6 -1 -1</clus>
<clus scale="  101.697">  7  8 -1 -1</clus>
<clus scale="  108.579">  1  7  2 -1</clus>
<clus scale="  141.974">  2  9  1 -1</clus>
<clus scale="  141.974">  2  5  1 -1</clus>
</clustering>
</event>
<event>
 9    2  0.3745229E-005  0.1218487E+03  0.7546771E-02  0.1246054E+00
          2   -1    0    0  502    0 -0.00000000000E+00  0.00000000000E+00  0.25659059696E+03  0.25659059696E+03  0.00000000000E+00 0. -1.
         21   -1    0    0  501  502  0.00000000000E+00 -0.00000000000E+00 -0.15892180552E+03  0.15892180552E+03  0.00000000000E+00 0.  1.
         24    2    1    2    0    0  0.48619288403E+02  0.61812428443E+02  0.16946048571E+03  0.20008961398E+03  0.71654629236E+02 0.  0.
         23    2    1    2    0    0 -0.39550465690E+02 -0.81538102414E+02  0.11740797391E+02  0.12911506623E+03  0.91214870080E+02 0.  0.
        -11    1    3    3    0    0  0.46654536398E+02  0.66103665420E+02  0.92126376781E+02  0.12261162118E+03  0.00000000000E+00 0.  1.
         12    1    3    3    0    0  0.19647520056E+01 -0.42912369770E+01  0.77334108932E+02  0.77477992808E+02  0.00000000000E+00 0. -1.
        -11    1    4    4    0    0 -0.67044993954E+02 -0.60473717695E+02 -0.54384488868E+01  0.90452631097E+02  0.00000000000E+00 0. -1.
         11    1    4    4    0    0  0.27494528264E+02 -0.21064384719E+02  0.17179246277E+02  0.38662435137E+02  0.00000000000E+00 0.  1.
          1    1    1    2  501    0 -0.90688227130E+01  0.19725673972E+02 -0.83532491661E+02  0.86307722262E+02  0.00000000000E+00 0. -1.
<scales pt_clust_5="13000.00000" pt_clust_6="13000.00000" pt_clust_7="13000.00000" pt_clust_8="13000.00000" pt_clust_9="21.71050"></scales>
<clustering>
<clus scale="   21.710">  2  9  1 -1</clus>
<clus scale="   71.655">  5  6 -1 -1</clus>
<clus scale="   91.215">  7  8 -1 -1</clus>
<clus scale="  107.988">  1  5  2 -1</clus>
<clus scale="   21.710">  2  5  1 -1</clus>
</clustering>
</event>
<event>
 9    2  0.3745229E-005  0.9218125E+02  0.7546771E-02  0.1303177E+00
         21   -1    0    0  501  502  0.00000000000E+00  0.00000000000E+00  0.25795431866E+03  0.25795431866E+03  0.00000000000E+00 0.  1.
          2   -1    0    0  502    0 -0.00000000000E+00 -0.00000000000E+00 -0.46896948973E+02  0.46896948973E+02  0.00000000000E+00 0. -1.
         23    2    1    2    0    0 -0.22579047643E+02 -0.44298009483E+01  0.44608866491E+02  0.10385277991E+03  0.90917613239E+02 0.  0.
         24    2    1    2    0    0  0.22343779713E+01  0.69038682684E+01  0.90113714931E+02  0.12196035457E+03  0.81860800298E+02 0.  0.
        -13    1    4    4    0    0  0.29210384807E+02 -0.96284860960E+01  0.84374062274E+02  0.89804992677E+02  0.00000000000E+00 0.  1.
         14    1    4    4    0    0 -0.26976006836E+02  0.16532354364E+02  0.57396526569E+01  0.32155361890E+02  0.00000000000E+00 0. -1.
        -11    1    3    3    0    0 -0.12403215872E+02  0.39601471450E+02  0.41288164649E+02  0.58539122347E+02  0.00000000000E+00 0. -1.
         11    1    3    3    0    0 -0.10175831771E+02 -0.44031272399E+02  0.33207018418E+01  0.45313657566E+02  0.00000000000E+00 0.  1.
          1    1    1    2  501    0  0.20344669672E+02 -0.24740673201E+01  0.76334788268E+02  0.79038133158E+02  0.00000000000E+00 0. -1.
<scales pt_clust_5="13000.00000" pt_clust_6="13000.00000" pt_clust_7="13000.00000" pt_clust_8="13000.00000" pt_clust_9="20.49455"></scales>
<clustering>
<clus scale="   20.495">  1  9  2 -1</clus>
<clus scale="   81.861">  5  6 -1 -1</clus>
<clus scale="   83.262">  1  5  2 -1</clus>
<clus scale="   90.918">  7  8 -1 -1</clus>
<clus scale="   20.495">  1  5  2 -1</clus>
</clustering>
</event>
<event>
 9    2  0.3745229E-005  0.1043432E+03  0.7546771E-02  0.1276348E+00
         -3   -1    0    0    0  501 -0.00000000000E+00  0.00000000000E+00  0.23244044781E+03  0.23244044781E+03  0.00000000000E+00 0.  1.
         21   -1    0    0  501  502  0.00000000000E+00 -0.00000000000E+00 -0.92551918787E+02  0.92551918787E+02  0.00000000000E+00 0. -1.
         23    2    1    2    0    0  0.14146989456E+02  0.55369547489E+02  0.17010987735E+03  0.20120345865E+03  0.90991962838E+02 0.  0.
         24    2    1    2    0    0 -0.15344497914E+02 -0.23255021737E+02 -0.34297200436E+02  0.91394628184E+02  0.80002690273E+02 0.  0.
        -11    1    4    4    0    0  0.24088344416E+02 -0.19070389571E+02 -0.40941839898E+02  0.51187521422E+02  0.00000000000E+00 0.  1.
         12    1    4    4    0    0 -0.39432842330E+02 -0.41846321659E+01  0.66446394618E+01  0.40207106762E+02  0.00000000000E+00 0. -1.
        -13    1    3    3    0    0 -0.40877809583E+01 -0.24093142669E+02  0.26370576893E+02  0.35952702298E+02  0.00000000000E+00 0.  1.
         13    1    3    3    0    0  0.18234770415E+02  0.79462690159E+02  0.14373930046E+03  0.16525075635E+03  0.00000000000E+00 0. -1.
         -4    1    1    2    0  502  0.11975084576E+01 -0.32114525752E+02  0.40758521068E+01  0.32394279760E+02  0.00000000000E+00 0.  1.
<scales pt_clust_5="13000.00000" pt_clust_6="13000.00000" pt_clust_7="13000.00000" pt_clust_8="13000.00000" pt_clust_9="32.13684"></scales>
<clustering>
<clus scale="   32.137">  2  9  1 -1</clus>
<clus scale="   80.003">  5  6 -1 -1</clus>
<clus scale="   90.992">  7  8 -1 -1</clus>
<clus scale="   94.913">  2  5  1 -1</clus>
<clus scale="   32.137">  2  5  1 -1</clus>
</clustering>
</event>
<event>
 9    2  0.3745229E-005  0.1757095E+03  0.7546771E-02  0.1174067E+00
         21   -1    0    0  501  502  0.00000000000E+00  0.00000000000E+00  0.90703208194E+03  0.90703208194E+03  0.00000000000E+00 0. -1.
          2   -1    0    0  502    0 -0.00000000000E+00 -0.00000000000E+00 -0.40647368870E+03  0.40647368870E+03  0.00000000000E+00 0. -1.
         23    2    1    2    0    0 -0.67900360409E+02  0.13710937053E+03 -0.34009368355E+03  0.38530405192E+03  0.96881682502E+02 0.  0.
         24    2    1    2    0    0 -0.48855989148E+02 -0.13029853012E+03  0.12765100951E+03  0.20567216593E+03  0.81496288157E+02 0.  0.
        -13    1    4    4    0    0 -0.50038219317E+01 -0.90113989320E+02  0.11262158732E+03  0.14432321794E+03  0.00000000000E+00 0.  1.
         14    1    4    4    0    0 -0.43852167216E+02 -0.40184540801E+02  0.15029422190E+02  0.61348947997E+02  0.00000000000E+00 0. -1.
        -13    1    3    3    0    0 -0.36743502464E+02  0.13655666796E+03 -0.31502853033E+03  0.34531258804E+03  0.00000000000E+00 0. -1.
         13    1    3    3    0    0 -0.31156857945E+02  0.55270256439E+00 -0.25065153223E+02  0.39991463879E+02  0.00000000000E+00 0.  1.
          1    1    1    2  501    0  0.11675634956E+03 -0.68108404066E+01  0.71300106729E+03  0.72252955279E+03  0.00000000000E+00 0. -1.
<scales pt_clust_5="13000.00000" pt_clust_6="13000.00000" pt_clust_7="13000.00000" pt_clust_8="13000.00000" pt_clust_9="116.95483"></scales>
<clustering>
<clus scale="   81.496">  5  6 -1 -1</clus>
<clus scale="   96.882">  7  8 -1 -1</clus>
<clus scale="  116.955">  1  9  2 -1</clus>
<clus scale="  167.718">  1  5  2 -1</clus>
<clus scale="  116.955">  1  5  2 -1</clus>
</clustering>
</event>
<event>
 9    2  0.3745229E-005  0.4326441E+03  0.7546771E-02  0.1033028E+00
          2   -1    0    0  502    0 -0.00000000000E+00  0.00000000000E+00  0.13318073181E+03  0.13318073181E+03  0.00000000000E+00 0. -1.
         21   -1    0    0  501  502  0.00000000000E+00 -0.00000000000E+00 -0.12618655288E+04  0.12618655288E+04  0.00000000000E+00 0. -1.
         24    2    1    2    0    0  0.20905317662E+02 -0.18969094341E+03 -0.29250343002E+03  0.35821680743E+03  0.79632519952E+02 0.  0.
         23    2    1    2    0    0  0.11713609323E+03 -0.16442901731E+03 -0.21581987309E+03  0.30929611319E+03  0.91258434905E+02 0.  0.
        -11    1    3    3    0    0  0.41978018782E+01 -0.18308299379E+03 -0.23474493792E+03  0.29772838299E+03  0.00000000000E+00 0.  1.
         12    1    3    3    0    0  0.16707515783E+02 -0.66079496142E+01 -0.57758492104E+02  0.60488424445E+02  0.00000000000E+00 0. -1.
        -13    1    4    4    0    0  0.32699324271E+02 -0.87753551727E+02 -0.45000063747E+02  0.10389868808E+03  0.00000000000E+00 0. -1.
         13    1    4    4    0    0  0.84436768961E+02 -0.76675465587E+02 -0.17081980935E+03  0.20539742511E+03  0.00000000000E+00 0.  1.
          1    1    1    2  501    0 -0.13804141089E+03  0.35411996072E+03 -0.62036149389E+03  0.72753333999E+03  0.00000000000E+00 0. -1.
<scales pt_clust_5="13000.00000" pt_clust_6="13000.00000" pt_clust_7="13000.00000" pt_clust_8="13000.00000" pt_clust_9="380.07417"></scales>
<clustering>
<clus scale="   79.633">  5  6 -1 -1</clus>
<clus scale="   91.258">  7  8 -1 -1</clus>
<clus scale="  145.258">  5  7 -1 -1</clus>
<clus scale="  380.074">  2  9  1 -1</clus>
<clus scale="  380.074">  2  5  1 -1</clus>
</clustering>
</event>
<event>
 9    2  0.3745229E-005  0.1184742E+03  0.7546771E-02  0.1251177E+00
         21   -1    0    0  501  502  0.00000000000E+00  0.00000000000E+00  0.99354524168E+02  0.99354524168E+02  0.00000000000E+00 0.  1.
          2   -1    0    0  502    0 -0.00000000000E+00 -0.00000000000E+00 -0.27866631283E+03  0.27866631283E+03  0.00000000000E+00 0. -1.
         23    2    1    2    0    0  0.14588584137E+02 -0.73136202293E+02 -0.16143655891E+03  0.20004032236E+03  0.91611337427E+02 0.  0.
         24    2    1    2    0    0  0.16059497747E+02  0.80618179920E+02  0.34891101850E+02  0.11650230172E+03  0.74821112772E+02 0.  0.
        -11    1    4    4    0    0  0.38106681392E+02  0.80544335657E+02  0.27595512427E+02  0.93279266074E+02  0.00000000000E+00 0.  1.
         12    1    4    4    0    0 -0.22047183645E+02  0.73844262794E-01  0.72955894237E+01  0.23223035647E+02  0.00000000000E+00 0. -1.
        -13    1    3    3    0    0  0.38501839414E+02 -0.36090796682E+01 -0.28191293387E+02  0.47855680093E+02  0.00000000000E+00 0.  1.
         13    1    3    3    0    0 -0.23913255277E+02 -0.69527122625E+02 -0.13324526552E+03  0.15218464227E+03  0.00000000000E+00 0. -1.
          1    1    1    2  501    0 -0.30648081884E+02 -0.74819776262E+01 -0.52766331602E+02  0.61478212914E+02  0.00000000000E+00 0. -1.
<scales pt_clust_5="13000.00000" pt_clust_6="13000.00000" pt_clust_7="13000.00000" pt_clust_8="13000.00000" pt_clust_9="31.54815"></scales>
<clustering>
<clus scale="   31.548">  1  9  2 -1</clus>
<clus scale="   74.821">  5  6 -1 -1</clus>
<clus scale="   91.611">  7  8 -1 -1</clus>
<clus scale="  106.027">  1  5  2 -1</clus>
<clus scale="   31.548">  1  5  2 -1</clus>
</clustering>
</event>
<event>
 9    2  0.3745229E-005  0.2050251E+03  0.7546771E-02  0.1167801E+00
          2   -1    0    0  502    0 -0.00000000000E+00  0.00000000000E+00  0.13049533168E+04  0.13049533168E+04  0.00000000000E+00 0. -1.
         21   -1    0    0  501  502  0.00000000000E+00 -0.00000000000E+00 -0.66275538970E+02  0.66275538970E+02  0.00000000000E+00 0.  1.
         24    2    1    2    0    0 -0.46335232580E+02  0.80431436852E+02  0.26554630488E+03  0.29215183796E+03  0.78877668415E+02 0.  0.
         23    2    1    2    0    0 -0.91329057477E+02 -0.17222815953E+03  0.21973870923E+03  0.30772836028E+03  0.91695734424E+02 0.  0.
        -11    1    3    3    0    0 -0.25574817070E+02  0.91614006360E+02  0.18219407869E+03  0.20552829426E+03  0.00000000000E+00 0.  1.
         12    1    3    3    0    0 -0.20760415510E+02 -0.11182569509E+02  0.83352226186E+02  0.86623543700E+02  0.00000000000E+00 0. -1.
        -11    1    4    4    0    0 -0.15024173910E+02 -0.10037023815E+03  0.63929983508E+02  0.11994562643E+03  0.00000000000E+00 0.  1.
         11    1    4    4    0    0 -0.76304883567E+02 -0.71857921378E+02  0.15580872572E+03  0.18778273385E+03  0.00000000000E+00 0. -1.
          1    1    1    2  501    0  0.13766429006E+03  0.91796722677E+02  0.75339276368E+03  0.77134865749E+03  0.00000000000E+00 0. -1.
<scales pt_clust_5="13000.00000" pt_clust_6="13000.00000" pt_clust_7="13000.00000" pt_clust_8="13000.00000" pt_clust_9="183.37723"></scales>
<clustering>
<clus scale="   78.878">  5  6 -1 -1</clus>
<clus scale="   91.696">  7  8 -1 -1</clus>
<clus scale="  121.811">  1  5  2 -1</clus>
<clus scale="  183.377">  2  9  1 -1</clus>
<clus scale="  183.377">  2  5  1 -1</clus>
</clustering>
</event>
<event>
 9    2  0.3745229E-005  0.9493995E+02  0.7546771E-02  0.1297775E+00
         21   -1    0    0  501  502  0.00000000000E+00  0.00000000000E+00  0.74174051759E+02  0.74174051759E+02  0.00000000000E+00 0.  1.
          2   -1    0    0  502    0 -0.00000000000E+00 -0.00000000000E+00 -0.35979974844E+03  0.35979974844E+03  0.00000000000E+00 0. -1.
         23    2    1    2    0    0  0.62943832139E+01 -0.20729268971E+02 -0.24821514109E+03  0.26539462993E+03  0.91401485094E+02 0.  0.
         24    2    1    2    0    0  0.32633784221E+02  0.55827547444E+02  0.19624577235E+01  0.10302365525E+03  0.80176950396E+02 0.  0.
        -11    1    4    4    0    0  0.40559695115E+02  0.56074241418E+02  0.28859634864E+02  0.74981917439E+02  0.00000000000E+00 0.  1.
         12    1    4    4    0    0 -0.79259108931E+01 -0.24669397385E+00 -0.26897177140E+02  0.28041737812E+02  0.00000000000E+00 0. -1.
        -11    1    3    3    0    0 -0.34077715874E+02 -0.91276938944E+01 -0.19202497809E+03  0.19523882228E+03  0.00000000000E+00 0. -1.
         11    1    3    3    0    0  0.40372099088E+02 -0.11601575076E+02 -0.56190163002E+02  0.70155807652E+02  0.00000000000E+00 0.  1.
          1    1    1    2  501    0 -0.38928167435E+02 -0.35098278473E+02 -0.39373013311E+02  0.65555515014E+02  0.00000000000E+00 0. -1.
<scales pt_clust_5="13000.00000" pt_clust_6="13000.00000" pt_clust_7="13000.00000" pt_clust_8="13000.00000" pt_clust_9="52.41461"></scales>
<clustering>
<clus scale="   52.415">  1  9  2 -1</clus>
<clus scale="   80.177">  5  6 -1 -1</clus>
<clus scale="   84.189">  1  5  2 -1</clus>
<clus scale="   91.401">  7  8 -1 -1</clus>
<clus scale="   52.415">  1  5  2 -1</clus>
</clustering>
</event>
<event>
 9    2  0.6794580E-005  0.1257179E+03  0.7546771E-02  0.1254823E+00
         21   -1    0    0  501  502  0.00000000000E+00  0.00000000000E+00  0.13533117477E+03  0.13533117477E+03  0.00000000000E+00 0. -1.
          4   -1    0    0  502    0 -0.00000000000E+00 -0.00000000000E+00 -0.38004189468E+03  0.38004189468E+03  0.00000000000E+00 0. -1.
         24    2    1    2    0    0 -0.10693934180E+02  0.15372332312E+02 -0.32409007855E+03  0.33447322835E+03  0.80543731235E+02 0.  0.
         23    2    1    2    0    0 -0.23542089545E+02 -0.19283963972E+02  0.63118196972E+02  0.14279693358E+03  0.12442249075E+03 0.  0.
        -13    1    3    3    0    0 -0.55430323665E+01  0.40251433983E+02 -0.86938750620E+02  0.95964834730E+02  0.00000000000E+00 0.  1.
         14    1    3    3    0    0 -0.51509018134E+01 -0.24879101670E+02 -0.23715132793E+03  0.23850839362E+03  0.00000000000E+00 0. -1.
        -11    1    4    4    0    0  0.47977699675E+02  0.10385170568E+02  0.13788112006E+02  0.50988464053E+02  0.00000000000E+00 0.  1.
         11    1    4    4    0    0 -0.71519789219E+02 -0.29669134541E+02  0.49330084966E+02  0.91808469528E+02  0.00000000000E+00 0. -1.
          3    1    1    2  501    0  0.34236023725E+02  0.39116316600E+01  0.16261161659E+02  0.38102907517E+02  0.00000000000E+00 0. -1.
<scales pt_clust_5="13000.00000" pt_clust_6="13000.00000" pt_clust_7="13000.00000" pt_clust_8="13000.00000" pt_clust_9="34.45876"></scales>
<clustering>
<clus scale="   34.459">  1  9  2 -1</clus>
<clus scale="   80.544">  5  6 -1 -1</clus>
<clus scale="   82.531">  2  5  1 -1</clus>
<clus scale="  124.422">  7  8 -1 -1</clus>
<clus scale="   34.459">  1  5  2 -1</clus>
</clustering>
</event>
<event>
 9    2  0.3745229E-005  0.2166560E+03  0.7546771E-02  0.1165283E+00
         21   -1    0    0  501  502  0.00000000000E+00  0.00000000000E+00  0.40705527201E+03  0.40705527201E+03  0.00000000000E+00 0.  1.
         -1   -1    0    0    0  501 -0.00000000000E+00 -0.00000000000E+00 -0.20620858342E+03  0.20620858342E+03  0.00000000000E+00 0.  1.
         23    2    1    2    0    0  0.19129677668E+02 -0.55600130188E+02  0.77328613024E+02  0.13395999448E+03  0.92240157662E+02 0.  0.
         24    2    1    2    0    0  0.65339554468E+01  0.21773628664E+03  0.19203210410E+03  0.30142489254E+03  0.80801322631E+02 0.  0.
        -13    1    4    4    0    0 -0.10710818968E+02  0.14666923108E+03  0.79375253324E+02  0.16711378109E+03  0.00000000000E+00 0.  1.
         14    1    4    4    0    0  0.17244774415E+02  0.71067055558E+02  0.11265685078E+03  0.13431111145E+03  0.00000000000E+00 0. -1.
        -13    1    3    3    0    0  0.31621722103E+02  0.15703108271E+02  0.36799434842E+02  0.50997248188E+02  0.00000000000E+00 0. -1.
         13    1    3    3    0    0 -0.12492044435E+02 -0.71303238459E+02  0.40529178182E+02  0.82962746296E+02  0.00000000000E+00 0.  1.
         -2    1    1    2    0  502 -0.25663633115E+02 -0.16213615645E+03 -0.68514028540E+02  0.17787896841E+03  0.00000000000E+00 0.  1.
<scales pt_clust_5="13000.00000" pt_clust_6="13000.00000" pt_clust_7="13000.00000" pt_clust_8="13000.00000" pt_clust_9="201.02490"></scales>
<clustering>
<clus scale="   80.801">  5  6 -1 -1</clus>
<clus scale="   92.240">  7  8 -1 -1</clus>
<clus scale="  109.387">  2  7  1 -1</clus>
<clus scale="  201.025">  1  9  2 -1</clus>
<clus scale="  201.025">  1  5  2 -1</clus>
</clustering>
</event>
<event>
 9    2  0.3745229E-005  0.1019651E+03  0.7546771E-02  0.1277471E+00
          2   -1    0    0  502    0 -0.00000000000E+00  0.00000000000E+00  0.71599493510E+03  0.71599493510E+03  0.00000000000E+00 0. -1.
         21   -1    0    0  501  502  0.00000000000E+00 -0.00000000000E+00 -0.44226515994E+02  0.44226515994E+02  0.00000000000E+00 0.  1.
         24    2    1    2    0    0 -0.26079692342E+02  0.40877075214E+02  0.59635402246E+03  0.60463176455E+03  0.87122700643E+02 0.  0.
         23    2    1    2    0    0  0.43220159719E+02 -0.25433900079E+02  0.34371437596E+02  0.10850665597E+03  0.89874541382E+02 0.  0.
        -11    1    3    3    0    0 -0.11509371854E+02  0.42775280552E+02  0.11781553532E+03  0.12586775055E+03  0.00000000000E+00 0.  1.
         12    1    3    3    0    0 -0.14570320488E+02 -0.18982053383E+01  0.47853848714E+03  0.47876401399E+03  0.00000000000E+00 0. -1.
        -13    1    4    4    0    0  0.12672810174E+02 -0.55614530173E+02  0.32219420396E+02  0.65510816929E+02  0.00000000000E+00 0.  1.
         13    1    4    4    0    0  0.30547349545E+02  0.30180630094E+02  0.21520172001E+01  0.42995839044E+02  0.00000000000E+00 0. -1.
          1    1    1    2  501    0 -0.17140467377E+02 -0.15443175135E+02  0.41042959051E+02  0.47083030572E+02  0.00000000000E+00 0. -1.
<scales pt_clust_5="13000.00000" pt_clust_6="13000.00000" pt_clust_7="13000.00000" pt_clust_8="13000.00000" pt_clust_9="23.07135"></scales>
<clustering>
<clus scale="   23.071">  2  9  1 -1</clus>
<clus scale="   87.123">  5  6 -1 -1</clus>
<clus scale="   89.875">  7  8 -1 -1</clus>
<clus scale="   99.548">  1  5  2 -1</clus>
<clus scale="   23.071">  2  5  1 -1</clus>
</clustering>
</event>
<event>
 9    2  0.3745229E-005  0.2394220E+03  0.7546771E-02  0.1120239E+00
         -1   -1    0    0    0  501 -0.00000000000E+00  0.00000000000E+00  0.10655364100E+04  0.10655364100E+04  0.00000000000E+00 0.  1.
         21   -1    0    0  501  502  0.00000000000E+00 -0.00000000000E+00 -0.79053465779E+02  0.79053465779E+02  0.00000000000E+00 0.  1.
         24    2    1    2    0    0  0.34333566589E+02  0.22699710800E+03  0.54704109129E+03  0.59993110716E+03  0.89201440288E+02 0.  0.
         23    2    1    2    0    0 -0.10897931689E+03 -0.19093310936E+03  0.29765153162E+03  0.38041171307E+03  0.88230909610E+02 0.  0.
        -13    1    3    3    0    0  0.63300059800E+02  0.17936334456E+03  0.40934548450E+03  0.45137770506E+03  0.00000000000E+00 0.  1.
         14    1    3    3    0    0 -0.28966493211E+02  0.47633763436E+02  0.13769560679E+03  0.14855340211E+03  0.00000000000E+00 0. -1.
        -11    1    4    4    0    0 -0.73232532677E+02 -0.81898902951E+02  0.20635080534E+03  0.23377572375E+03  0.00000000000E+00 0.  1.
         11    1    4    4    0    0 -0.35746784217E+02 -0.10903420641E+03  0.91300726275E+02  0.14663598933E+03  0.00000000000E+00 0. -1.
         -2    1    1    2    0  502  0.74645750305E+02 -0.36063998643E+02  0.14179032135E+03  0.16424705557E+03  0.00000000000E+00 0.  1.
<scales pt_clust_5="13000.00000" pt_clust_6="13000.00000" pt_clust_7="13000.00000" pt_clust_8="13000.00000" pt_clust_9="82.90119"></scales>
<clustering>
<clus scale="   82.901">  2  9  1 -1</clus>
<clus scale="   88.231">  7  8 -1 -1</clus>
<clus scale="   89.201">  5  6 -1 -1</clus>
<clus scale="  239.062">  2  7  1 -1</clus>
<clus scale="   82.901">  2  5  1 -1</clus>
</clustering>
</event>
<event>
 9    2  0.3745229E-005  0.1007696E+03  0.7546771E-02  0.1283428E+00
         21   -1    0    0  501  502  0.00000000000E+00  0.00000000000E+00  0.30178412874E+02  0.30178412874E+02  0.00000000000E+00 0. -1.
          2   -1    0    0  502    0 -0.00000000000E+00 -0.00000000000E+00 -0.57781270715E+03  0.57781270715E+03  0.00000000000E+00 0. -1.
         23    2    1    2    0    0 -0.24863140835E+02 -0.26712205783E+02 -0.27063243758E+03  0.28817896473E+03  0.92051516754E+02 0.  0.
         24    2    1    2    0    0 -0.15107869104E+02  0.57250859268E+02 -0.22804499908E+03  0.24961910078E+03  0.82457657479E+02 0.  0.
        -11    1    4    4    0    0  0.24459313308E+02  0.16562694179E+02 -0.15136480962E+03  0.15422025301E+03  0.00000000000E+00 0.  1.
         12    1    4    4    0    0 -0.39567182411E+02  0.40688165090E+02 -0.76680189455E+02  0.95398847777E+02  0.00000000000E+00 0. -1.
        -11    1    3    3    0    0  0.16646410277E+02  0.26140770868E+02 -0.10352109536E+03  0.10806044633E+03  0.00000000000E+00 0.  1.
         11    1    3    3    0    0 -0.41509551112E+02 -0.52852976651E+02 -0.16711134221E+03  0.18011851840E+03  0.00000000000E+00 0. -1.
          1    1    1    2  501    0  0.39971009939E+02 -0.30538653485E+02 -0.48956857620E+02  0.70193054501E+02  0.00000000000E+00 0. -1.
<scales pt_clust_5="13000.00000" pt_clust_6="13000.00000" pt_clust_7="13000.00000" pt_clust_8="13000.00000" pt_clust_9="50.30200"></scales>
<clustering>
<clus scale="   50.302">  1  9  2 -1</clus>
<clus scale="   82.458">  5  6 -1 -1</clus>
<clus scale="   92.052">  7  8 -1 -1</clus>
<clus scale="   92.088">  1  5  2 -1</clus>
<clus scale="   50.302">  1  5  2 -1</clus>
</clustering>
</event>
<event>
 9    2  0.3745229E-005  0.1501655E+03  0.7546771E-02  0.1208038E+00
         21   -1    0    0  501  502  0.00000000000E+00  0.00000000000E+00  0.20753444297E+03  0.20753444297E+03  0.00000000000E+00 0. -1.
         -1   -1    0    0    0  501 -0.00000000000E+00 -0.00000000000E+00 -0.16379900091E+03  0.16379900091E+03  0.00000000000E+00 0.  1.
         23    2    1    2    0    0  0.55691397102E+02 -0.56543661041E+02 -0.13851146963E+02  0.13933924464E+03  0.11368752574E+03 0.  0.
         24    2    1    2    0    0 -0.12215047485E+03  0.56937163397E+02  0.51357954643E+02  0.16524272177E+03  0.80653199016E+02 0.  0.
        -13    1    4    4    0    0 -0.32923937901E+02  0.50115154050E+02 -0.38668360342E+01  0.60087159803E+02  0.00000000000E+00 0.  1.
         14    1    4    4    0    0 -0.89226536947E+02  0.68220093473E+01  0.55224790677E+02  0.10515556197E+03  0.00000000000E+00 0. -1.
        -13    1    3    3    0    0  0.32922602953E+02  0.31541822826E+02 -0.16038446239E+02  0.48332350762E+02  0.00000000000E+00 0. -1.
         13    1    3    3    0    0  0.22768794149E+02 -0.88085483867E+02  0.21872992763E+01  0.91006893878E+02  0.00000000000E+00 0.  1.
         -2    1    1    2    0  502  0.66459077746E+02 -0.39350235555E+00  0.62286343828E+01  0.66751477476E+02  0.00000000000E+00 0.  1.
<scales pt_clust_5="13000.00000" pt_clust_6="13000.00000" pt_clust_7="13000.00000" pt_clust_8="13000.00000" pt_clust_9="66.46028"></scales>
<clustering>
<clus scale="   66.460">  1  9  2 -1</clus>
<clus scale="   80.653">  5  6 -1 -1</clus>
<clus scale="  113.688">  7  8 -1 -1</clus>
<clus scale="  127.003">  1  5  2 -1</clus>
<clus scale="   66.460">  1  5  2 -1</clus>
</clustering>
</event>
<event>
 9    2  0.3745229E-005  0.2446289E+03  0.7546771E-02  0.1152945E+00
          2   -1    0    0  502    0 -0.00000000000E+00  0.00000000000E+00  0.12781605224E+04  0.12781605224E+04  0.00000000000E+00 0. -1.
         21   -1    0    0  501  502  0.00000000000E+00 -0.00000000000E+00 -0.94163863348E+02  0.94163863348E+02  0.00000000000E+00 0.  1.
         23    2    1    2    0    0  0.23249118914E+02 -0.34020948505E+02  0.13564497777E+03  0.16930733683E+03  0.92560617124E+02 0.  0.
         24    2    1    2    0    0 -0.16265380028E+03 -0.16010727315E+03  0.18008988010E+03  0.30246278235E+03  0.83431241960E+02 0.  0.
        -11    1    4    4    0    0 -0.60808811915E+02 -0.95839203809E+02  0.12850040533E+03  0.17145033906E+03  0.00000000000E+00 0.  1.
         12    1    4    4    0    0 -0.10184498837E+03 -0.64268069341E+02  0.51589474770E+02  0.13101244330E+03  0.00000000000E+00 0. -1.
        -13    1    3    3    0    0 -0.19016062638E+02 -0.43203745694E+02  0.10829174794E+03  0.11813245512E+03  0.00000000000E+00 0.  1.
         13    1    3    3    0    0  0.42265181552E+02  0.91827971894E+01  0.27353229826E+02  0.51174881707E+02  0.00000000000E+00 0. -1.
          1    1    1    2  501    0  0.13940468137E+03  0.19412822165E+03  0.86826180117E+03  0.90055426655E+03  0.00000000000E+00 0. -1.
<scales pt_clust_5="13000.00000" pt_clust_6="13000.00000" pt_clust_7="13000.00000" pt_clust_8="13000.00000" pt_clust_9="229.96215"></scales>
<clustering>
<clus scale="   83.431">  5  6 -1 -1</clus>
<clus scale="   92.561">  7  8 -1 -1</clus>
<clus scale="  101.318">  1  7  2 -1</clus>
<clus scale="  229.962">  2  9  1 -1</clus>
<clus scale="  229.962">  2  5  1 -1</clus>
</clustering>
</event>
<event>
 9    2  0.3745229E-005  0.1679083E+03  0.7546771E-02  0.1181143E+00
         21   -1    0    0  501  502  0.00000000000E+00  0.00000000000E+00  0.39836579494E+03  0.39836579494E+03  0.00000000000E+00 0. -1.
         -1   -1    0    0    0  501 -0.00000000000E+00 -0.00000000000E+00 -0.11159270650E+03  0.11159270650E+03  0.00000000000E+00 0.  1.
         24    2    1    2    0    0  0.13104061816E+03 -0.53887234236E+01  0.12601506017E+03  0.19830236218E+03  0.79014868932E+02 0.  0.
         23    2    1    2    0    0 -0.15239808807E+03  0.61665105818E+02  0.16841652686E+03  0.25097809267E+03  0.87167160992E+02 0.  0.
        -13    1    3    3    0    0  0.30299545937E+01 -0.21160987760E+02  0.61960600759E+01  0.22256666154E+02  0.00000000000E+00 0.  1.
         14    1    3    3    0    0  0.12801066356E+03  0.15772264337E+02  0.11981900009E+03  0.17604569603E+03  0.00000000000E+00 0. -1.
        -11    1    4    4    0    0 -0.94657135949E+02 -0.83661589941E+01  0.93117287897E+02  0.13304433587E+03  0.00000000000E+00 0.  1.
         11    1    4    4    0    0 -0.57740952123E+02  0.70031264812E+02  0.75299238967E+02  0.11793375680E+03  0.00000000000E+00 0. -1.
         -2    1    1    2    0  502  0.21357469915E+02 -0.56276382394E+02 -0.76584985864E+01  0.60678046583E+02  0.00000000000E+00 0.  1.
<scales pt_clust_5="13000.00000" pt_clust_6="13000.00000" pt_clust_7="13000.00000" pt_clust_8="13000.00000" pt_clust_9="60.19283"></scales>
<clustering>
<clus scale="   60.193">  1  9  2 -1</clus>
<clus scale="   79.015">  5  6 -1 -1</clus>
<clus scale="   87.167">  7  8 -1 -1</clus>
<clus scale="  163.824">  2  5  1 -1</clus>
<clus scale="   60.193">  1  5  2 -1</clus>
</clustering>
</event>
<event>
 9    2  0.3745229E-005  0.9851695E+02  0.7546771E-02  0.1289477E+00
          2   -1    0    0  502    0 -0.00000000000E+00  0.00000000000E+00  0.61627772558E+03  0.61627772558E+03  0.00000000000E+00 0. -1.
         21   -1    0    0  501  502  0.00000000000E+00 -0.00000000000E+00 -0.29765113331E+02  0.29765113331E+02  0.00000000000E+00 0. -1.
         24    2    1    2    0    0 -0.33510577948E+02 -0.16072147025E+02  0.46614013782E+03  0.47443981459E+03  0.80157575013E+02 0.  0.
         23    2    1    2    0    0  0.18380063799E+02  0.32059109018E+02  0.10788223036E+03  0.14629449594E+03  0.91640005991E+02 0.  0.
        -11    1    3    3    0    0 -0.18435198293E+02 -0.48776890599E+02  0.25992557298E+03  0.26510440411E+03  0.00000000000E+00 0.  1.
         12    1    3    3    0    0 -0.15075379655E+02  0.32704743574E+02  0.20621456485E+03  0.20933541047E+03  0.00000000000E+00 0. -1.
        -11    1    4    4    0    0  0.32320432901E+01 -0.23437001529E+02 -0.41974667141E+00  0.23662530122E+02  0.00000000000E+00 0.  1.
         11    1    4    4    0    0  0.15148020509E+02  0.55496110546E+02  0.10830197703E+03  0.12263196581E+03  0.00000000000E+00 0. -1.
          1    1    1    2  501    0  0.15130514149E+02 -0.15986961993E+02  0.12490244066E+02  0.25308528384E+02  0.00000000000E+00 0. -1.
<scales pt_clust_5="13000.00000" pt_clust_6="13000.00000" pt_clust_7="13000.00000" pt_clust_8="13000.00000" pt_clust_9="22.01171"></scales>
<clustering>
<clus scale="   22.012">  2  9  1 -1</clus>
<clus scale="   80.158">  5  6 -1 -1</clus>
<clus scale="   87.937">  1  5  2 -1</clus>
<clus scale="   91.640">  7  8 -1 -1</clus>
<clus scale="   22.012">  2  5  1 -1</clus>
</clustering>
</event>
<event>
 9    2  0.3745229E-005  0.9771432E+02  0.7546771E-02  0.1291819E+00
         21   -1    0    0  501  502  0.00000000000E+00  0.00000000000E+00  0.38707569763E+02  0.38707569763E+02  0.00000000000E+00 0.  1.
         -3   -1    0    0    0  501 -0.00000000000E+00 -0.00000000000E+00 -0.45441077058E+03  0.45441077058E+03  0.00000000000E+00 0.  1.
         24    2    1    2    0    0  0.10935945779E+02  0.18139111653E+02 -0.12907842452E+03  0.15333715328E+03  0.80015127433E+02 0.  0.
         23    2    1    2    0    0  0.53751656800E+02 -0.35613100410E+02 -0.20782335604E+03  0.23634284773E+03  0.92248906906E+02 0.  0.
        -11    1    3    3    0    0  0.10544590990E+02  0.33653592192E+02 -0.13277892107E+03  0.13738265737E+03  0.00000000000E+00 0.  1.
         12    1    3    3    0    0  0.39135478918E+00 -0.15514480539E+02  0.37004965496E+01  0.15954495908E+02  0.00000000000E+00 0. -1.
        -11    1    4    4    0    0  0.78636298560E+02 -0.18916941282E+02 -0.16847051284E+03  0.18687919043E+03  0.00000000000E+00 0.  1.
         11    1    4    4    0    0 -0.24884641761E+02 -0.16696159128E+02 -0.39352843202E+02  0.49463657298E+02  0.00000000000E+00 0. -1.
         -4    1    1    2    0  502 -0.64687602579E+02  0.17473988757E+02 -0.78801420258E+02  0.10343833934E+03  0.00000000000E+00 0.  1.
<scales pt_clust_5="13000.00000" pt_clust_6="13000.00000" pt_clust_7="13000.00000" pt_clust_8="13000.00000" pt_clust_9="67.00617"></scales>
<clustering>
<clus scale="   67.006">  1  9  2 -1</clus>
<clus scale="   80.015">  5  6 -1 -1</clus>
<clus scale="   86.259">  2  5  1 -1</clus>
<clus scale="   92.249">  7  8 -1 -1</clus>
<clus scale="   67.006">  1  5  2 -1</clus>
</clustering>
</event>
<event>
 9    2  0.3745229E-005  0.1420657E+03  0.7546771E-02  0.1212790E+00
         21   -1    0    0  501  502  0.00000000000E+00  0.00000000000E+00  0.43240276718E+03  0.43240276718E+03  0.00000000000E+00 0.  1.
          2   -1    0    0  502    0 -0.00000000000E+00 -0.00000000000E+00 -0.46461395067E+03  0.46461395067E+03  0.00000000000E+00 0. -1.
         23    2    1    2    0    0  0.11163538708E+03  0.16866506210E+02 -0.43500128395E+03  0.45850272779E+03  0.90838844545E+02 0.  0.
         24    2    1    2    0    0 -0.52047508182E+02 -0.25509497447E+02  0.15809859125E+03  0.18652321386E+03  0.80225103199E+02 0.  0.
        -13    1    4    4    0    0 -0.53000377728E+02 -0.10074987334E+02  0.16185513323E+03  0.17060958226E+03  0.00000000000E+00 0.  1.
         14    1    4    4    0    0  0.95286954560E+00 -0.15434510113E+02 -0.37565419743E+01  0.15913631591E+02  0.00000000000E+00 0. -1.
        -13    1    3    3    0    0  0.80292721878E+02 -0.17562305039E+02 -0.36699319865E+03  0.37608425067E+03  0.00000000000E+00 0. -1.
         13    1    3    3    0    0  0.31342665202E+02  0.34428811249E+02 -0.68008085297E+02  0.82418477126E+02  0.00000000000E+00 0.  1.
          1    1    1    2  501    0 -0.59587878898E+02  0.86429912369E+01  0.24469150921E+03  0.25199077620E+03  0.00000000000E+00 0. -1.
<scales pt_clust_5="13000.00000" pt_clust_6="13000.00000" pt_clust_7="13000.00000" pt_clust_8="13000.00000" pt_clust_9="60.21143"></scales>
<clustering>
<clus scale="   60.211">  1  9  2 -1</clus>
<clus scale="   80.225">  5  6 -1 -1</clus>
<clus scale="   90.839">  7  8 -1 -1</clus>
<clus scale="  135.525">  1  5  2 -1</clus>
<clus scale="   60.211">  1  5  2 -1</clus>
</clustering>
</event>
<event>
 9    2  0.3745229E-005  0.9137569E+02  0.7546771E-02  0.1305122E+00
         21   -1    0    0  501  502  0.00000000000E+00  0.00000000000E+00  0.32400544956E+03  0.32400544956E+03  0.00000000000E+00 0.  1.
         -3   -1    0    0    0  501 -0.00000000000E+00 -0.00000000000E+00 -0.65000138586E+02  0.65000138586E+02  0.00000000000E+00 0.  1.
         23    2    1    2    0    0 -0.58007980691E+01 -0.67612094183E+01 -0.55410196261E+01  0.91908956263E+02  0.91308215029E+02 0.  0.
         24    2    1    2    0    0 -0.28117088528E+01 -0.15092089490E+02  0.98279707096E+02  0.12917899719E+03  0.82417447283E+02 0.  0.
        -13    1    4    4    0    0 -0.30817690747E+02 -0.32796410913E+02  0.32454260018E+02  0.55485255925E+02  0.00000000000E+00 0.  1.
         14    1    4    4    0    0  0.28005981894E+02  0.17704321422E+02  0.65825447078E+02  0.73693741267E+02  0.00000000000E+00 0. -1.
        -11    1    3    3    0    0 -0.11517565189E+02  0.27282586258E+02 -0.35479504946E+02  0.46214598257E+02  0.00000000000E+00 0.  1.
         11    1    3    3    0    0  0.57167671204E+01 -0.34043795676E+02  0.29938485320E+02  0.45694358006E+02  0.00000000000E+00 0. -1.
         -4    1    1    2    0  502  0.86125069219E+01  0.21853298909E+02  0.16626662350E+03  0.16791763469E+03  0.00000000000E+00 0.  1.
<scales pt_clust_5="13000.00000" pt_clust_6="13000.00000" pt_clust_7="13000.00000" pt_clust_8="13000.00000" pt_clust_9="23.48919"></scales>
<clustering>
<clus scale="   23.489">  1  9  2 -1</clus>
<clus scale="   82.417">  5  6 -1 -1</clus>
<clus scale="   82.492">  1  5  2 -1</clus>
<clus scale="   91.308">  7  8 -1 -1</clus>
<clus scale="   23.489">  1  5  2 -1</clus>
</clustering>
</event>
<event>
 9    2  0.3745229E-005  0.1103760E+03  0.7546771E-02  0.1267438E+00
          2   -1    0    0  502    0 -0.00000000000E+00  0.00000000000E+00  0.21249815940E+03  0.21249815940E+03  0.00000000000E+00 0. -1.
         21   -1    0    0  501  502  0.00000000000E+00 -0.00000000000E+00 -0.53275683900E+03  0.53275683900E+03  0.00000000000E+00 0.  1.
         23    2    1    2    0    0 -0.46580515596E+02 -0.13694748485E+02  0.17972046233E+03  0.21057700676E+03  0.98417176480E+02 0.  0.
         24    2    1    2    0    0  0.77625298180E+02  0.54868630825E+02 -0.42983293283E+03  0.44761733598E+03  0.81047367366E+02 0.  0.
        -11    1    4    4    0    0  0.63468445773E+02  0.71823436532E+02 -0.39426993999E+03  0.40575317032E+03  0.00000000000E+00 0.  1.
         12    1    4    4    0    0  0.14156852406E+02 -0.16954805707E+02 -0.35562992837E+02  0.41864165657E+02  0.00000000000E+00 0. -1.
        -13    1    3    3    0    0 -0.15974480900E+02 -0.35540993524E+02  0.15219170688E+02  0.41832635789E+02  0.00000000000E+00 0.  1.
         13    1    3    3    0    0 -0.30606034697E+02  0.21846245039E+02  0.16450129164E+03  0.16874437097E+03  0.00000000000E+00 0. -1.
          1    1    1    2  501    0 -0.31044782583E+02 -0.41173882340E+02 -0.70146209102E+02  0.87060655660E+02  0.00000000000E+00 0. -1.
<scales pt_clust_5="13000.00000" pt_clust_6="13000.00000" pt_clust_7="13000.00000" pt_clust_8="13000.00000" pt_clust_9="51.56614"></scales>
<clustering>
<clus scale="   51.566">  2  9  1 -1</clus>
<clus scale="   81.047">  5  6 -1 -1</clus>
<clus scale="   95.213">  2  5  1 -1</clus>
<clus scale="   98.417">  7  8 -1 -1</clus>
<clus scale="   51.566">  2  5  1 -1</clus>
</clustering>
</event>
<event>
 9    2  0.3745229E-005  0.1237313E+03  0.7546771E-02  0.1240078E+00
          2   -1    0    0  502    0 -0.00000000000E+00  0.00000000000E+00  0.15956116231E+03  0.15956116231E+03  0.00000000000E+00 0. -1.
         21   -1    0    0  501  502  0.00000000000E+00 -0.00000000000E+00 -0.18955594532E+03  0.18955594532E+03  0.00000000000E+00 0. -1.
         23    2    1    2    0    0  0.73002772402E+02 -0.15845655481E+02  0.24936503515E+02  0.12101659620E+03  0.91884154081E+02 0.  0.
         24    2    1    2    0    0 -0.10378051981E+03 -0.52584311989E+02 -0.56679741195E+02  0.15304728181E+03  0.81702945168E+02 0.  0.
        -11    1    4    4    0    0 -0.55696829934E+02 -0.14989369071E+02 -0.69870567298E+02  0.90601954860E+02  0.00000000000E+00 0.  1.
         12    1    4    4    0    0 -0.48083689875E+02 -0.37594942918E+02  0.13190826103E+02  0.62445326953E+02  0.00000000000E+00 0. -1.
        -11    1    3    3    0    0  0.27772226966E+02 -0.26644286314E+02  0.53901799166E+02  0.66231552430E+02  0.00000000000E+00 0.  1.
         11    1    3    3    0    0  0.45230545435E+02  0.10798630834E+02 -0.28965295651E+02  0.54785043766E+02  0.00000000000E+00 0. -1.
          1    1    1    2  501    0  0.30777747407E+02  0.68429967470E+02  0.17484546690E+01  0.75053229625E+02  0.00000000000E+00 0. -1.
<scales pt_clust_5="13000.00000" pt_clust_6="13000.00000" pt_clust_7="13000.00000" pt_clust_8="13000.00000" pt_clust_9="75.03290"></scales>
<clustering>
<clus scale="   75.033">  2  9  1 -1</clus>
<clus scale="   81.703">  5  6 -1 -1</clus>
<clus scale="   91.884">  7  8 -1 -1</clus>
<clus scale="  116.371">  2  5  1 -1</clus>
<clus scale="   75.033">  2  5  1 -1</clus>
</clustering>
</event>
<event>
 9    2  0.4095226E-005  0.1158519E+03  0.7546771E-02  0.1255214E+00
          2   -1    0    0  502    0 -0.00000000000E+00  0.00000000000E+00  0.64973139181E+03  0.64973139181E+03  0.00000000000E+00 0. -1.
         21   -1    0    0  501  502  0.00000000000E+00 -0.00000000000E+00 -0.12856983112E+03  0.12856983112E+03  0.00000000000E+00 0.  1.
         24    2    1    2    0    0 -0.33747100174E+02 -0.58429684381E+02  0.60534312106E+03  0.61436306301E+03  0.80304322317E+02 0.  0.
         23    2    1    2    0    0  0.11001565500E+02  0.62344731016E+02 -0.53797499995E+02  0.12578218970E+03  0.94440924986E+02 0.  0.
        -13    1    3    3    0    0  0.10830148153E+02 -0.51827209121E+02  0.21482701279E+03  0.22125550194E+03  0.00000000000E+00 0.  1.
         14    1    3    3    0    0 -0.44577248327E+02 -0.66024752596E+01  0.39051610828E+03  0.39310756107E+03  0.00000000000E+00 0. -1.
        -13    1    4    4    0    0 -0.71140343465E+01  0.82491021279E+02 -0.53703658357E+02  0.98688707547E+02  0.00000000000E+00 0.  1.
         13    1    4    4    0    0  0.18115599846E+02 -0.20146290263E+02 -0.93841637777E-01  0.27093482157E+02  0.00000000000E+00 0. -1.
          1    1    1    2  501    0  0.22745534674E+02 -0.39150466352E+01 -0.30384060377E+02  0.38155970212E+02  0.00000000000E+00 0. -1.
<scales pt_clust_5="13000.00000" pt_clust_6="13000.00000" pt_clust_7="13000.00000" pt_clust_8="13000.00000" pt_clust_9="23.08001"></scales>
<clustering>
<clus scale="   23.080">  2  9  1 -1</clus>
<clus scale="   80.304">  5  6 -1 -1</clus>
<clus scale="   94.441">  7  8 -1 -1</clus>
<clus scale="  104.649">  1  5  2 -1</clus>
<clus scale="   23.080">  2  5  1 -1</clus>
</clustering>
</event>
<event>
 9    2  0.3745229E-005  0.3462351E+03  0.7546771E-02  0.1064171E+00
         -1   -1    0    0    0  501 -0.00000000000E+00  0.00000000000E+00  0.10801741313E+03  0.10801741313E+03  0.00000000000E+00 0.  1.
         21   -1    0    0  501  502  0.00000000000E+00 -0.00000000000E+00 -0.95354877902E+03  0.95354877902E+03  0.00000000000E+00 0. -1.
         24    2    1    2    0    0  0.10911310931E+03  0.11352030637E+03 -0.17912258231E+03  0.25195318264E+03  0.81258699025E+02 0.  0.
         23    2    1    2    0    0  0.12997203099E+03  0.54581491170E+02 -0.22487635933E+03  0.28011248986E+03  0.89564289588E+02 0.  0.
        -11    1    3    3    0    0  0.11031742325E+03  0.63770455887E+02 -0.12857074163E+03  0.18101668575E+03  0.00000000000E+00 0.  1.
         12    1    3    3    0    0 -0.12043139356E+01  0.49749850483E+02 -0.50551840683E+02  0.70936496894E+02  0.00000000000E+00 0. -1.
        -11    1    4    4    0    0 -0.23023344637E+01  0.31383945187E+02 -0.30241960937E+02  0.43644346264E+02  0.00000000000E+00 0.  1.
         11    1    4    4    0    0  0.13227436545E+03  0.23197545983E+02 -0.19463439839E+03  0.23646814359E+03  0.00000000000E+00 0. -1.
         -2    1    1    2    0  502 -0.23908514030E+03 -0.16810179754E+03 -0.44153242425E+03  0.52950051965E+03  0.00000000000E+00 0.  1.
<scales pt_clust_5="13000.00000" pt_clust_6="13000.00000" pt_clust_7="13000.00000" pt_clust_8="13000.00000" pt_clust_9="292.26686"></scales>
<clustering>
<clus scale="   81.259">  5  6 -1 -1</clus>
<clus scale="   89.564">  7  8 -1 -1</clus>
<clus scale="  111.711">  5  7 -1 -1</clus>
<clus scale="  292.267">  2  9  1 -1</clus>
<clus scale="  292.267">  2  5  1 -1</clus>
</clustering>
</event>
<event>
 9    2  0.3745229E-005  0.2164184E+03  0.7546771E-02  0.1137973E+00
         -3   -1    0    0    0  501 -0.00000000000E+00  0.00000000000E+00  0.84528026347E+03  0.84528026347E+03  0.00000000000E+00 0.  1.
         21   -1    0    0  501  502  0.00000000000E+00 -0.00000000000E+00 -0.16942036435E+03  0.16942036435E+03  0.00000000000E+00 0.  1.
         24    2    1    2    0    0 -0.12878868858E+03  0.15754979900E+03  0.50417683961E+03  0.54958178438E+03  0.80233326338E+02 0.  0.
         23    2    1    2    0    0  0.77002962369E+02 -0.16424086718E+03  0.27842448003E+03  0.34629013190E+03  0.97427643423E+02 0.  0.
        -11    1    3    3    0    0 -0.13385356904E+03  0.13690676994E+03  0.48305031712E+03  0.51961317388E+03  0.00000000000E+00 0.  1.
         12    1    3    3    0    0  0.50648804595E+01  0.20643029061E+02  0.21126522484E+02  0.29968610497E+02  0.00000000000E+00 0. -1.
        -13    1    4    4    0    0 -0.74881321552E+01 -0.65183047230E+02  0.46837747600E+02  0.80614368258E+02  0.00000000000E+00 0.  1.
         13    1    4    4    0    0  0.84491094524E+02 -0.99057819952E+02  0.23158673243E+03  0.26567576364E+03  0.00000000000E+00 0. -1.
         -4    1    1    2    0  502  0.51785726214E+02  0.66910681845E+01 -0.10674142052E+03  0.11882871154E+03  0.00000000000E+00 0.  1.
<scales pt_clust_5="13000.00000" pt_clust_6="13000.00000" pt_clust_7="13000.00000" pt_clust_8="13000.00000" pt_clust_9="52.21620"></scales>
<clustering>
<clus scale="   52.216">  2  9  1 -1</clus>
<clus scale="   80.233">  5  6 -1 -1</clus>
<clus scale="   97.428">  7  8 -1 -1</clus>
<clus scale="  209.242">  1  5  2 -1</clus>
<clus scale="   52.216">  2  5  1 -1</clus>
</clustering>
</event>
<event>
 9    2  0.3745229E-005  0.1251923E+03  0.7546771E-02  0.1240562E+00
         -1   -1    0    0    0  501 -0.00000000000E+00  0.00000000000E+00  0.45127858178E+03  0.45127858178E+03  0.00000000000E+00 0.  1.
         21   -1    0    0  501  502  0.00000000000E+00 -0.00000000000E+00 -0.59419637451E+02  0.59419637451E+02  0.00000000000E+00 0. -1.
         23    2    1    2    0    0 -0.49306672331E+02  0.49928188166E+02  0.28787007343E+03  0.31240019390E+03  0.98998636680E+02 0.  0.
         24    2    1    2    0    0  0.69592991138E+02 -0.71074404752E+02  0.51179810573E+02  0.13790353833E+03  0.80642776789E+02 0.  0.
        -11    1    4    4    0    0  0.44280349248E+02 -0.52120033190E+02  0.72576177054E+02  0.99722357900E+02  0.00000000000E+00 0.  1.
         12    1    4    4    0    0  0.25312641890E+02 -0.18954371562E+02 -0.21396366481E+02  0.38181180434E+02  0.00000000000E+00 0. -1.
        -11    1    3    3    0    0 -0.73440697235E+02  0.58289645364E+02  0.19989185557E+03  0.22078943066E+03  0.00000000000E+00 0.  1.
         11    1    3    3    0    0  0.24134024905E+02 -0.83614571985E+01  0.87978217859E+02  0.91610763245E+02  0.00000000000E+00 0. -1.
         -2    1    1    2    0  502 -0.20286318808E+02  0.21146216587E+02  0.52809060326E+02  0.60394486993E+02  0.00000000000E+00 0.  1.
<scales pt_clust_5="13000.00000" pt_clust_6="13000.00000" pt_clust_7="13000.00000" pt_clust_8="13000.00000" pt_clust_9="29.30355"></scales>
<clustering>
<clus scale="   29.304">  2  9  1 -1</clus>
<clus scale="   80.643">  5  6 -1 -1</clus>
<clus scale="   98.999">  7  8 -1 -1</clus>
<clus scale="  111.246">  2  5  1 -1</clus>
<clus scale="   29.304">  2  5  1 -1</clus>
</clustering>
</event>
<event>
 9    2  0.3745229E-005  0.3652497E+03  0.7546771E-02  0.1104747E+00
         21   -1    0    0  501  502  0.00000000000E+00  0.00000000000E+00  0.40969306756E+03  0.40969306756E+03  0.00000000000E+00 0. -1.
          2   -1    0    0  502    0 -0.00000000000E+00 -0.00000000000E+00 -0.52188817184E+03  0.52188817184E+03  0.00000000000E+00 0. -1.
         23    2    1    2    0    0  0.37943069860E+02 -0.19520547509E+02 -0.12677761013E+03  0.16130422839E+03  0.90143016037E+02 0.  0.
         24    2    1    2    0    0  0.28860287026E+03 -0.15449075894E+03 -0.14546804913E+03  0.36712894153E+03  0.80397108620E+02 0.  0.
        -13    1    4    4    0    0  0.84021561503E+01 -0.26883120650E+02 -0.45804263450E+01  0.28535569196E+02  0.00000000000E+00 0.  1.
         14    1    4    4    0    0  0.28020071411E+03 -0.12760763829E+03 -0.14088762278E+03  0.33859337234E+03  0.00000000000E+00 0. -1.
        -11    1    3    3    0    0 -0.26913486139E+02 -0.18189519803E+02 -0.59853894555E+02  0.68100536416E+02  0.00000000000E+00 0. -1.
         11    1    3    3    0    0  0.64856555999E+02 -0.13310277053E+01 -0.66923715574E+02  0.93203691971E+02  0.00000000000E+00 0.  1.
          1    1    1    2  501    0 -0.32654594012E+03  0.17401130645E+03  0.16005055497E+03  0.40314806948E+03  0.00000000000E+00 0. -1.
<scales pt_clust_5="13000.00000" pt_clust_6="13000.00000" pt_clust_7="13000.00000" pt_clust_8="13000.00000" pt_clust_9="356.29155"></scales>
<clustering>
<clus scale="   80.397">  5  6 -1 -1</clus>
<clus scale="   90.143">  7  8 -1 -1</clus>
<clus scale="   99.732">  2  7  1 -1</clus>
<clus scale="  356.292">  1  9  2 -1</clus>
<clus scale="  356.292">  1  5  2 -1</clus>
</clustering>
</event>
<event>
 9    2  0.3745229E-005  0.2479781E+03  0.7546771E-02  0.1146865E+00
          2   -1    0    0  502    0 -0.00000000000E+00  0.00000000000E+00  0.16599879335E+04  0.16599879335E+04  0.00000000000E+00 0. -1.
         21   -1    0    0  501  502  0.00000000000E+00 -0.00000000000E+00 -0.74217047480E+02  0.74217047480E+02  0.00000000000E+00 0. -1.
         23    2    1    2    0    0 -0.67384164912E+02  0.74629105271E+01  0.65109140498E+02  0.12984701856E+03  0.89580842471E+02 0.  0.
         24    2    1    2    0    0  0.10836912694E+03  0.22143545987E+03  0.10202259618E+04  0.10525335295E+04  0.78665666864E+02 0.  0.
        -11    1    4    4    0    0  0.86317310665E+02  0.92510722973E+02  0.55744653373E+03  0.57162535804E+03  0.00000000000E+00 0.  1.
         12    1    4    4    0    0  0.22051816272E+02  0.12892473690E+03  0.46277942805E+03  0.48090817149E+03  0.00000000000E+00 0. -1.
        -13    1    3    3    0    0 -0.32269722961E+02  0.45147521067E+02  0.53420941225E+02  0.77028765016E+02  0.00000000000E+00 0.  1.
         13    1    3    3    0    0 -0.35114441951E+02 -0.37684610540E+02  0.11688199273E+02  0.52818253543E+02  0.00000000000E+00 0. -1.
          1    1    1    2  501    0 -0.40984962025E+02 -0.22889837040E+03  0.50043578374E+03  0.55182443288E+03  0.00000000000E+00 0. -1.
<scales pt_clust_5="13000.00000" pt_clust_6="13000.00000" pt_clust_7="13000.00000" pt_clust_8="13000.00000" pt_clust_9="235.16979"></scales>
<clustering>
<clus scale="   78.666">  5  6 -1 -1</clus>
<clus scale="   89.581">  7  8 -1 -1</clus>
<clus scale="  112.343">  1  7  2 -1</clus>
<clus scale="  235.170">  2  9  1 -1</clus>
<clus scale="  235.170">  2  5  1 -1</clus>
</clustering>
</event>
<event>
 9    2  0.3745229E-005  0.3057970E+03  0.7546771E-02  0.1082767E+00
         21   -1    0    0  501  502  0.00000000000E+00  0.00000000000E+00  0.57772496139E+03  0.57772496139E+03  0.00000000000E+00 0. -1.
         -1   -1    0    0    0  501 -0.00000000000E+00 -0.00000000000E+00 -0.23857179299E+03  0.23857179299E+03  0.00000000000E+00 0.  1.
         24    2    1    2    0    0  0.82884711561E+02 -0.28614969911E+03 -0.12546909760E+02  0.30874344962E+03  0.80084749039E+02 0.  0.
         23    2    1    2    0    0 -0.18550924956E+02  0.28051476065E+03  0.31993892676E+03  0.43558553858E+03  0.91330043303E+02 0.  0.
        -11    1    3    3    0    0  0.28375103404E+01 -0.95038396409E+02 -0.32749222530E+02  0.10056271592E+03  0.00000000000E+00 0.  1.
         12    1    3    3    0    0  0.80047201221E+02 -0.19111130270E+03  0.20202312770E+02  0.20818073370E+03  0.00000000000E+00 0. -1.
        -13    1    4    4    0    0  0.36562076624E+02  0.12908908118E+03  0.13594035859E+03  0.19099884141E+03  0.00000000000E+00 0. -1.
         13    1    4    4    0    0 -0.55113001580E+02  0.15142567947E+03  0.18399856817E+03  0.24458669717E+03  0.00000000000E+00 0.  1.
         -2    1    1    2    0  502 -0.64333786606E+02  0.56349384575E+01  0.31761151395E+02  0.71967766176E+02  0.00000000000E+00 0.  1.
<scales pt_clust_5="13000.00000" pt_clust_6="13000.00000" pt_clust_7="13000.00000" pt_clust_8="13000.00000" pt_clust_9="64.58009"></scales>
<clustering>
<clus scale="   64.580">  1  9  2 -1</clus>
<clus scale="   80.085">  5  6 -1 -1</clus>
<clus scale="   91.330">  7  8 -1 -1</clus>
<clus scale="  302.629">  2  5  1 -1</clus>
<clus scale="   64.580">  1  5  2 -1</clus>
</clustering>
</event>
<event>
 9    2  0.3745229E-005  0.1213854E+03  0.7546771E-02  0.1245621E+00
         21   -1    0    0  501  502  0.00000000000E+00  0.00000000000E+00  0.22184874552E+03  0.22184874552E+03  0.00000000000E+00 0. -1.
          4   -1    0    0  502    0 -0.00000000000E+00 -0.00000000000E+00 -0.11862716644E+03  0.11862716644E+03  0.00000000000E+00 0. -1.
         24    2    1    2    0    0 -0.72284147569E+02 -0.19974662250E+02 -0.26328380402E+02  0.11252369617E+03  0.79651826488E+02 0.  0.
         23    2    1    2    0    0  0.57828272092E+02  0.68371671470E+02  0.63707811827E+02  0.14496769166E+03  0.94541799359E+02 0.  0.
        -11    1    3    3    0    0 -0.25338684041E+02 -0.12003792157E+01  0.28356403615E+02  0.38047016245E+02  0.00000000000E+00 0.  1.
         12    1    3    3    0    0 -0.46945463528E+02 -0.18774283034E+02 -0.54684784017E+02  0.74476679923E+02  0.00000000000E+00 0. -1.
        -11    1    4    4    0    0  0.35987402911E+02  0.87048547395E+02  0.26302217495E+02  0.97797491874E+02  0.00000000000E+00 0. -1.
         11    1    4    4    0    0  0.21840869181E+02 -0.18676875925E+02  0.37405594332E+02  0.47170199790E+02  0.00000000000E+00 0.  1.
          3    1    1    2  501    0  0.14455875477E+02 -0.48397009220E+02  0.65842147654E+02  0.82984524129E+02  0.00000000000E+00 0. -1.
<scales pt_clust_5="13000.00000" pt_clust_6="13000.00000" pt_clust_7="13000.00000" pt_clust_8="13000.00000" pt_clust_9="50.50983"></scales>
<clustering>
<clus scale="   50.510">  1  9  2 -1</clus>
<clus scale="   79.652">  5  6 -1 -1</clus>
<clus scale="   94.542">  7  8 -1 -1</clus>
<clus scale="  110.185">  2  5  1 -1</clus>
<clus scale="   50.510">  1  5  2 -1</clus>
</clustering>
</event>
<event>
 9    2  0.3745229E-005  0.1242417E+03  0.7546771E-02  0.1239632E+00
          2   -1    0    0  502    0 -0.00000000000E+00  0.00000000000E+00  0.22817910803E+03  0.22817910803E+03  0.00000000000E+00 0. -1.
         21   -1    0    0  501  502  0.00000000000E+00 -0.00000000000E+00 -0.35814881584E+03  0.35814881584E+03  0.00000000000E+00 0. -1.
         23    2    1    2    0    0 -0.79740929910E+02  0.61024033941E+02  0.16233518434E+03  0.21137392197E+03  0.90794681521E+02 0.  0.
         24    2    1    2    0    0 -0.18159855003E+02 -0.65115712481E+02 -0.53909043873E+02  0.11720628415E+03  0.79128324186E+02 0.  0.
        -13    1    4    4    0    0  0.13452932700E+02 -0.64443776056E+02 -0.54675875650E+02  0.85577059126E+02  0.00000000000E+00 0.  1.
         14    1    4    4    0    0 -0.31612787703E+02 -0.67193642494E+00  0.76683177727E+00  0.31629225028E+02  0.00000000000E+00 0. -1.
        -11    1    3    3    0    0 -0.20637508829E+02 -0.21716080856E+02  0.18441423628E+02  0.35179270086E+02  0.00000000000E+00 0.  1.
         11    1    3    3    0    0 -0.59103421081E+02  0.82740114797E+02  0.14389376072E+03  0.17619465189E+03  0.00000000000E+00 0. -1.
          1    1    1    2  501    0  0.97900784913E+02  0.40916785398E+01 -0.23839584829E+03  0.25774771774E+03  0.00000000000E+00 0. -1.
<scales pt_clust_5="13000.00000" pt_clust_6="13000.00000" pt_clust_7="13000.00000" pt_clust_8="13000.00000" pt_clust_9="97.98625"></scales>
<clustering>
<clus scale="   79.128">  5  6 -1 -1</clus>
<clus scale="   90.795">  7  8 -1 -1</clus>
<clus scale="   97.986">  2  9  1 -1</clus>
<clus scale="  115.990">  2  5  1 -1</clus>
<clus scale="   97.986">  2  5  1 -1</clus>
</clustering>
</event>
<event>
 9    2  0.3745229E-005  0.9751933E+02  0.7546771E-02  0.1290123E+00
          2   -1    0    0  502    0 -0.00000000000E+00  0.00000000000E+00  0.10329364653E+03  0.10329364653E+03  0.00000000000E+00 0. -1.
         21   -1    0    0  501  502  0.00000000000E+00 -0.00000000000E+00 -0.16832937963E+03  0.16832937963E+03  0.00000000000E+00 0.  1.
         24    2    1    2    0    0  0.24941866465E+02  0.39246435233E+02 -0.95239741798E+01  0.94705952427E+02  0.81952010101E+02 0.  0.
         23    2    1    2    0    0  0.46063283034E+01 -0.19191773703E+02 -0.88604217553E+02  0.12823036013E+03  0.90569174964E+02 0.  0.
        -11    1    3    3    0    0  0.39042254698E+02 -0.91591239648E+01  0.88098604125E+01  0.41058505139E+02  0.00000000000E+00 0.  1.
         12    1    3    3    0    0 -0.14100388234E+02  0.48405559198E+02 -0.18333834592E+02  0.53647447288E+02  0.00000000000E+00 0. -1.
        -13    1    4    4    0    0  0.45555245102E+02 -0.11287994637E+02 -0.65422454836E+02  0.80515816930E+02  0.00000000000E+00 0.  1.
         13    1    4    4    0    0 -0.40948916798E+02 -0.79037790661E+01 -0.23181762718E+02  0.47714543204E+02  0.00000000000E+00 0. -1.
          1    1    1    2  501    0 -0.29548194768E+02 -0.20054661530E+02  0.33092458631E+02  0.48686713602E+02  0.00000000000E+00 0. -1.
<scales pt_clust_5="13000.00000" pt_clust_6="13000.00000" pt_clust_7="13000.00000" pt_clust_8="13000.00000" pt_clust_9="35.71115"></scales>
<clustering>
<clus scale="   35.711">  2  9  1 -1</clus>
<clus scale="   81.952">  5  6 -1 -1</clus>
<clus scale="   89.573">  1  5  2 -1</clus>
<clus scale="   90.569">  7  8 -1 -1</clus>
<clus scale="   35.711">  2  5  1 -1</clus>
</clustering>
</event>
<event>
 9    2  0.3745229E-005  0.1313133E+03  0.7546771E-02  0.1229081E+00
         21   -1    0    0  501  502  0.00000000000E+00  0.00000000000E+00  0.33276880061E+03  0.33276880061E+03  0.00000000000E+00 0. -1.
         -3   -1    0    0    0  501 -0.00000000000E+00 -0.00000000000E+00 -0.94783208961E+02  0.94783208961E+02  0.00000000000E+00 0.  1.
         24    2    1    2    0    0 -0.89429653704E+02  0.20970961062E+02  0.14741898105E+02  0.12374289065E+03  0.81593720702E+02 0.  0.
         23    2    1    2    0    0  0.79046651566E+02 -0.45246861066E+02  0.71484149673E+02  0.14976988622E+03  0.95002018944E+02 0.  0.
        -11    1    3    3    0    0 -0.67473696459E+02  0.37800035976E+02  0.39298685510E+02  0.86752113037E+02  0.00000000000E+00 0.  1.
         12    1    3    3    0    0 -0.21955957246E+02 -0.16829074914E+02 -0.24556787405E+02  0.36990777617E+02  0.00000000000E+00 0. -1.
        -13    1    4    4    0    0  0.30236824427E+02  0.24570309770E+02  0.47172038066E+02  0.61181425686E+02  0.00000000000E+00 0.  1.
         13    1    4    4    0    0  0.48809827139E+02 -0.69817170836E+02  0.24312111607E+02  0.88588460533E+02  0.00000000000E+00 0. -1.
         -4    1    1    2    0  502  0.10383002138E+02  0.24275900004E+02  0.15175954387E+03  0.15403923269E+03  0.00000000000E+00 0.  1.
<scales pt_clust_5="13000.00000" pt_clust_6="13000.00000" pt_clust_7="13000.00000" pt_clust_8="13000.00000" pt_clust_9="26.40314"></scales>
<clustering>
<clus scale="   26.403">  1  9  2 -1</clus>
<clus scale="   81.594">  5  6 -1 -1</clus>
<clus scale="   95.002">  7  8 -1 -1</clus>
<clus scale="  121.965">  2  5  1 -1</clus>
<clus scale="   26.403">  1  5  2 -1</clus>
</clustering>
</event>
<event>
 9    2  0.3745229E-005  0.9662924E+02  0.7546771E-02  0.1293922E+00
         21   -1    0    0  501  502  0.00000000000E+00  0.00000000000E+00  0.22356138383E+03  0.22356138383E+03  0.00000000000E+00 0. -1.
         -3   -1    0    0    0  501 -0.00000000000E+00 -0.00000000000E+00 -0.22812479662E+03  0.22812479662E+03  0.00000000000E+00 0.  1.
         23    2    1    2    0    0  0.23397819977E+02 -0.86487248377E+01 -0.17192068264E+03  0.19621826488E+03  0.91228438186E+02 0.  0.
         24    2    1    2    0    0 -0.69986069190E+02  0.37572985292E+02  0.44561197919E+02  0.12098389017E+03  0.79634303010E+02 0.  0.
        -11    1    4    4    0    0 -0.21031381998E+02  0.15999504831E+02 -0.22842868052E+02  0.34929927060E+02  0.00000000000E+00 0.  1.
         12    1    4    4    0    0 -0.48954687192E+02  0.21573480461E+02  0.67404065971E+02  0.86053963109E+02  0.00000000000E+00 0. -1.
        -13    1    3    3    0    0 -0.17214323629E+02 -0.39495953500E+02 -0.68824716805E+02  0.81197936699E+02  0.00000000000E+00 0. -1.
         13    1    3    3    0    0  0.40612143607E+02  0.30847228662E+02 -0.10309596583E+03  0.11502032818E+03  0.00000000000E+00 0.  1.
         -4    1    1    2    0  502  0.46588249213E+02 -0.28924260454E+02  0.12279607192E+03  0.13448402540E+03  0.00000000000E+00 0.  1.
<scales pt_clust_5="13000.00000" pt_clust_6="13000.00000" pt_clust_7="13000.00000" pt_clust_8="13000.00000" pt_clust_9="54.83683"></scales>
<clustering>
<clus scale="   54.837">  1  9  2 -1</clus>
<clus scale="   79.634">  5  6 -1 -1</clus>
<clus scale="   85.768">  1  5  2 -1</clus>
<clus scale="   91.228">  7  8 -1 -1</clus>
<clus scale="   54.837">  1  5  2 -1</clus>
</clustering>
</event>
<event>
 9    2  0.3745229E-005  0.1537031E+03  0.7546771E-02  0.1197296E+00
          2   -1    0    0  502    0 -0.00000000000E+00  0.00000000000E+00  0.88576578980E+03  0.88576578980E+03  0.00000000000E+00 0. -1.
         21   -1    0    0  501  502  0.00000000000E+00 -0.00000000000E+00 -0.16739511864E+03  0.16739511864E+03  0.00000000000E+00 0. -1.
         23    2    1    2    0    0  0.62668802644E+02 -0.10189947087E+03  0.21885375149E+03  0.26498333388E+03  0.89489226741E+02 0.  0.
         24    2    1    2    0    0 -0.12645737035E+03 -0.34686942091E+02 -0.90043062200E+02  0.17965000591E+03  0.83496832920E+02 0.  0.
        -11    1    4    4    0    0 -0.14927698508E+02  0.24319317364E+02 -0.23704908007E+02  0.37097008551E+02  0.00000000000E+00 0.  1.
         12    1    4    4    0    0 -0.11152967184E+03 -0.59006259455E+02 -0.66338154193E+02  0.14255299736E+03  0.00000000000E+00 0. -1.
        -13    1    3    3    0    0  0.12293432857E+02 -0.22239284244E+02 -0.13600074463E+01  0.25447276384E+02  0.00000000000E+00 0.  1.
         13    1    3    3    0    0  0.50375369787E+02 -0.79660186625E+02  0.22021375894E+03  0.23953605749E+03  0.00000000000E+00 0. -1.
          1    1    1    2  501    0  0.63788567704E+02  0.13658641296E+03  0.58955998187E+03  0.60852756864E+03  0.00000000000E+00 0. -1.
<scales pt_clust_5="13000.00000" pt_clust_6="13000.00000" pt_clust_7="13000.00000" pt_clust_8="13000.00000" pt_clust_9="129.04628"></scales>
<clustering>
<clus scale="   83.497">  5  6 -1 -1</clus>
<clus scale="   89.489">  7  8 -1 -1</clus>
<clus scale="  149.396">  1  7  2 -1</clus>
<clus scale="  129.046">  2  9  1 -1</clus>
<clus scale="  129.046">  2  5  1 -1</clus>
</clustering>
</event>
<event>
 9    2  0.3745229E-005  0.9809582E+02  0.7546771E-02  0.1291076E+00
         21   -1    0    0  501  502  0.00000000000E+00  0.00000000000E+00  0.25020395101E+03  0.25020395101E+03  0.00000000000E+00 0.  1.
          2   -1    0    0  502    0 -0.00000000000E+00 -0.00000000000E+00 -0.10469907426E+03  0.10469907426E+03  0.00000000000E+00 0. -1.
         23    2    1    2    0    0  0.32096222812E+02 -0.11880478109E+02 -0.54074371420E+02  0.11058041069E+03  0.90181352314E+02 0.  0.
         24    2    1    2    0    0 -0.66427457425E+02  0.13998033175E+02  0.17109702496E+03  0.19966441546E+03  0.77350726035E+02 0.  0.
        -13    1    4    4    0    0 -0.81766831179E+02  0.11291208561E+02  0.16149335917E+03  0.18136540775E+03  0.00000000000E+00 0.  1.
         14    1    4    4    0    0  0.15339373754E+02  0.27068246143E+01  0.96036657921E+01  0.18299007714E+02  0.00000000000E+00 0. -1.
        -13    1    3    3    0    0  0.34438502587E+02  0.16364132050E+02 -0.68786976627E+02  0.78647590120E+02  0.00000000000E+00 0. -1.
         13    1    3    3    0    0 -0.23422797753E+01 -0.28244610160E+02  0.14712605207E+02  0.31932820571E+02  0.00000000000E+00 0.  1.
          1    1    1    2  501    0  0.34331234614E+02 -0.21175550657E+01  0.28482223212E+02  0.44658199120E+02  0.00000000000E+00 0. -1.
<scales pt_clust_5="13000.00000" pt_clust_6="13000.00000" pt_clust_7="13000.00000" pt_clust_8="13000.00000" pt_clust_9="34.39648"></scales>
<clustering>
<clus scale="   34.396">  1  9  2 -1</clus>
<clus scale="   77.351">  5  6 -1 -1</clus>
<clus scale="   86.448">  1  5  2 -1</clus>
<clus scale="   90.181">  7  8 -1 -1</clus>
<clus scale="   34.396">  1  5  2 -1</clus>
</clustering>
</event>
<event>
 9    2  0.3745229E-005  0.1785754E+03  0.7546771E-02  0.1188860E+00
         21   -1    0    0  501  502  0.00000000000E+00  0.00000000000E+00  0.20545778853E+03  0.20545778853E+03  0.00000000000E+00 0.  1.
          2   -1    0    0  502    0 -0.00000000000E+00 -0.00000000000E+00 -0.82730904834E+03  0.82730904834E+03  0.00000000000E+00 0. -1.
         24    2    1    2    0    0 -0.79979833549E+02  0.93922383563E+01  0.15013638128E+03  0.18891782246E+03  0.81633465832E+02 0.  0.
         23    2    1    2    0    0 -0.82814570600E+02  0.82050665675E+02 -0.41510461311E+03  0.44107200616E+03  0.92962949352E+02 0.  0.
        -11    1    3    3    0    0 -0.56190290685E+02 -0.19441134323E+02  0.37633785097E+02  0.70367664816E+02  0.00000000000E+00 0.  1.
         12    1    3    3    0    0 -0.23789542865E+02  0.28833372679E+02  0.11250259618E+03  0.11855015764E+03  0.00000000000E+00 0. -1.
        -11    1    4    4    0    0 -0.14169625397E+02  0.78505468613E+02 -0.20321283906E+03  0.21831020325E+03  0.00000000000E+00 0.  1.
         11    1    4    4    0    0 -0.68644945203E+02  0.35451970619E+01 -0.21189177405E+03  0.22276180290E+03  0.00000000000E+00 0. -1.
          1    1    1    2  501    0  0.16279440415E+03 -0.91442904031E+02 -0.35688302798E+03  0.40277700826E+03  0.00000000000E+00 0. -1.
<scales pt_clust_5="13000.00000" pt_clust_6="13000.00000" pt_clust_7="13000.00000" pt_clust_8="13000.00000" pt_clust_9="152.46999"></scales>
<clustering>
<clus scale="   81.633">  5  6 -1 -1</clus>
<clus scale="   92.963">  7  8 -1 -1</clus>
<clus scale="  114.669">  2  5  1 -1</clus>
<clus scale="  152.470">  1  9  2 -1</clus>
<clus scale="  152.470">  1  5  2 -1</clus>
</clustering>
</event>
<event>
 9    2  0.3745229E-005  0.1749410E+03  0.7546771E-02  0.1193695E+00
         -3   -1    0    0    0  501 -0.00000000000E+00  0.00000000000E+00  0.51539167654E+03  0.51539167654E+03  0.00000000000E+00 0.  1.
         21   -1    0    0  501  502  0.00000000000E+00 -0.00000000000E+00 -0.25328403202E+03  0.25328403202E+03  0.00000000000E+00 0.  1.
         24    2    1    2    0    0 -0.25397437462E+02  0.70809183976E+02  0.38344253492E+03  0.39880769694E+03  0.79752311531E+02 0.  0.
         23    2    1    2    0    0  0.15829129814E+03 -0.51419212853E+02 -0.13891234186E+03  0.23442165328E+03  0.89200909684E+02 0.  0.
        -13    1    3    3    0    0 -0.51009678087E+02  0.64509150977E+02  0.31182717569E+03  0.32248969800E+03  0.00000000000E+00 0.  1.
         14    1    3    3    0    0  0.25612240625E+02  0.63000329985E+01  0.71615359230E+02  0.76317998947E+02  0.00000000000E+00 0. -1.
        -13    1    4    4    0    0  0.52865045146E+01 -0.34474383041E+02 -0.26719559237E+02  0.43935919950E+02  0.00000000000E+00 0.  1.
         13    1    4    4    0    0  0.15300479362E+03 -0.16944829811E+02 -0.11219278262E+03  0.19048573333E+03  0.00000000000E+00 0. -1.
         -4    1    1    2    0  502 -0.13289386068E+03 -0.19389971123E+02  0.17577451468E+02  0.13544635833E+03  0.00000000000E+00 0.  1.
<scales pt_clust_5="13000.00000" pt_clust_6="13000.00000" pt_clust_7="13000.00000" pt_clust_8="13000.00000" pt_clust_9="150.49112"></scales>
<clustering>
<clus scale="   79.752">  5  6 -1 -1</clus>
<clus scale="   89.201">  7  8 -1 -1</clus>
<clus scale="  109.633">  1  5  2 -1</clus>
<clus scale="  150.491">  2  9  1 -1</clus>
<clus scale="  150.491">  2  5  1 -1</clus>
</clustering>
</event>
<event>
 9    2  0.3745229E-005  0.1156153E+03  0.7546771E-02  0.1254905E+00
         -1   -1    0    0    0  501 -0.00000000000E+00  0.00000000000E+00  0.51677417157E+03  0.51677417157E+03  0.00000000000E+00 0.  1.
         21   -1    0    0  501  502  0.00000000000E+00 -0.00000000000E+00 -0.10436467705E+03  0.10436467705E+03  0.00000000000E+00 0.  1.
         23    2    1    2    0    0  0.85604133518E+02  0.11958787780E+02  0.38072251883E+03  0.40127307060E+03  0.92732737288E+02 0.  0.
         24    2    1    2    0    0 -0.32138774584E+02 -0.31154752815E+02  0.96751180098E+02  0.13349228455E+03  0.80348489272E+02 0.  0.
        -11    1    4    4    0    0  0.22307058630E+02 -0.19597891729E+02  0.11843883278E+02  0.31968105919E+02  0.00000000000E+00 0.  1.
         12    1    4    4    0    0 -0.54445833214E+02 -0.11556861085E+02  0.84907296821E+02  0.10152417863E+03  0.00000000000E+00 0. -1.
        -11    1    3    3    0    0  0.11377478602E+02 -0.34411684258E+02  0.75472051385E+02  0.83723602246E+02  0.00000000000E+00 0. -1.
         11    1    3    3    0    0  0.74226654916E+02  0.46370472038E+02  0.30525046744E+03  0.31754946835E+03  0.00000000000E+00 0.  1.
         -2    1    1    2    0  502 -0.53465358934E+02  0.19195965035E+02 -0.65064204407E+02  0.86373493473E+02  0.00000000000E+00 0.  1.
<scales pt_clust_5="13000.00000" pt_clust_6="13000.00000" pt_clust_7="13000.00000" pt_clust_8="13000.00000" pt_clust_9="56.80695"></scales>
<clustering>
<clus scale="   56.807">  2  9  1 -1</clus>
<clus scale="   80.348">  5  6 -1 -1</clus>
<clus scale="   92.733">  7  8 -1 -1</clus>
<clus scale="  105.941">  2  5  1 -1</clus>
<clus scale="   56.807">  2  5  1 -1</clus>
</clustering>
</event>
<event>
 9    2  0.3745229E-005  0.9324284E+02  0.7546771E-02  0.1305377E+00
          2   -1    0    0  502    0 -0.00000000000E+00  0.00000000000E+00  0.11677717817E+03  0.11677717817E+03  0.00000000000E+00 0. -1.
         21   -1    0    0  501  502  0.00000000000E+00 -0.00000000000E+00 -0.28482302987E+03  0.28482302987E+03  0.00000000000E+00 0.  1.
         23    2    1    2    0    0  0.31661219249E+02  0.17970788226E+02  0.65221091179E+02  0.11591878215E+03  0.88645311701E+02 0.  0.
         24    2    1    2    0    0  0.38711833178E+02 -0.11520961052E+02 -0.17758860572E+03  0.19571452083E+03  0.71659767025E+02 0.  0.
        -13    1    4    4    0    0  0.52034058716E+02  0.10080791709E+02 -0.14517180001E+03  0.15454454745E+03  0.00000000000E+00 0.  1.
         14    1    4    4    0    0 -0.13322225538E+02 -0.21601752760E+02 -0.32416805704E+02  0.41169973374E+02  0.00000000000E+00 0. -1.
        -13    1    3    3    0    0 -0.19670855696E+02  0.28221349305E+02  0.28874397588E+01  0.34521361919E+02  0.00000000000E+00 0.  1.
         13    1    3    3    0    0  0.51332074946E+02 -0.10250561079E+02  0.62333651420E+02  0.81397420230E+02  0.00000000000E+00 0. -1.
          1    1    1    2  501    0 -0.70373052428E+02 -0.64498271740E+01 -0.55678337155E+02  0.89966905065E+02  0.00000000000E+00 0. -1.
<scales pt_clust_5="13000.00000" pt_clust_6="13000.00000" pt_clust_7="13000.00000" pt_clust_8="13000.00000" pt_clust_9="70.66800"></scales>
<clustering>
<clus scale="   70.668">  2  9  1 -1</clus>
<clus scale="   71.660">  5  6 -1 -1</clus>
<clus scale="   77.275">  2  5  1 -1</clus>
<clus scale="   88.645">  7  8 -1 -1</clus>
<clus scale="   70.668">  2  5  1 -1</clus>
</clustering>
</event>
<event>
 9    2  0.3745229E-005  0.1017647E+03  0.7546771E-02  0.1281465E+00
          2   -1    0    0  502    0 -0.00000000000E+00  0.00000000000E+00  0.33650109112E+03  0.33650109112E+03  0.00000000000E+00 0. -1.
         21   -1    0    0  501  502  0.00000000000E+00 -0.00000000000E+00 -0.88935095069E+02  0.88935095069E+02  0.00000000000E+00 0. -1.
         23    2    1    2    0    0  0.28047026713E+02 -0.27150967129E+02  0.16924677494E+03  0.19605008383E+03  0.90924990065E+02 0.  0.
         24    2    1    2    0    0 -0.49853811052E+02  0.23049833382E+02  0.13608282134E+03  0.16750728004E+03  0.80767922511E+02 0.  0.
        -13    1    4    4    0    0 -0.34372031792E+02  0.34978111649E+02  0.25620166586E+02  0.55328996014E+02  0.00000000000E+00 0.  1.
         14    1    4    4    0    0 -0.15481779260E+02 -0.11928278267E+02  0.11046265475E+03  0.11217828402E+03  0.00000000000E+00 0. -1.
        -11    1    3    3    0    0  0.32758415143E+02  0.17437461285E+02  0.24377189910E+02  0.44400745564E+02  0.00000000000E+00 0.  1.
         11    1    3    3    0    0 -0.47113884304E+01 -0.44588428414E+02  0.14486958503E+03  0.15164933827E+03  0.00000000000E+00 0. -1.
          1    1    1    2  501    0  0.21806784339E+02  0.41011337468E+01 -0.57763600225E+02  0.61878822324E+02  0.00000000000E+00 0. -1.
<scales pt_clust_5="13000.00000" pt_clust_6="13000.00000" pt_clust_7="13000.00000" pt_clust_8="13000.00000" pt_clust_9="22.18908"></scales>
<clustering>
<clus scale="   22.189">  2  9  1 -1</clus>
<clus scale="   80.768">  5  6 -1 -1</clus>
<clus scale="   90.925">  7  8 -1 -1</clus>
<clus scale="   92.802">  2  5  1 -1</clus>
<clus scale="   22.189">  2  5  1 -1</clus>
</clustering>
</event>
<event>
 9    2  0.3745229E-005  0.1340488E+03  0.7546771E-02  0.1225425E+00
         21   -1    0    0  501  502  0.00000000000E+00  0.00000000000E+00  0.20632672742E+03  0.20632672742E+03  0.00000000000E+00 0.  1.
         -3   -1    0    0    0  501 -0.00000000000E+00 -0.00000000000E+00 -0.12197987238E+03  0.12197987238E+03  0.00000000000E+00 0.  1.
         24    2    1    2    0    0  0.74609025361E+02  0.47097081269E+02 -0.18991308676E+02  0.12033092905E+03  0.79587819107E+02 0.  0.
         23    2    1    2    0    0 -0.95194093758E+02 -0.50825805282E+02  0.52489636786E+02  0.15299184481E+03  0.94900814753E+02 0.  0.
        -13    1    3    3    0    0  0.91595529618E+02  0.36722791374E+02 -0.18616227953E+02  0.10042344545E+03  0.00000000000E+00 0.  1.
         14    1    3    3    0    0 -0.16986504256E+02  0.10374289895E+02 -0.37508072307E+00  0.19907483598E+02  0.00000000000E+00 0. -1.
        -11    1    4    4    0    0 -0.62492315255E+02  0.11589761914E+02 -0.25056801301E+01  0.63607314674E+02  0.00000000000E+00 0. -1.
         11    1    4    4    0    0 -0.32701778503E+02 -0.62415567196E+02  0.54995316916E+02  0.89384530140E+02  0.00000000000E+00 0.  1.
         -4    1    1    2    0  502  0.20585068397E+02  0.37287240128E+01  0.50848526933E+02  0.54983825939E+02  0.00000000000E+00 0.  1.
<scales pt_clust_5="13000.00000" pt_clust_6="13000.00000" pt_clust_7="13000.00000" pt_clust_8="13000.00000" pt_clust_9="20.92005"></scales>
<clustering>
<clus scale="   20.920">  1  9  2 -1</clus>
<clus scale="   79.588">  5  6 -1 -1</clus>
<clus scale="   94.901">  7  8 -1 -1</clus>
<clus scale="  123.682">  2  5  1 -1</clus>
<clus scale="   20.920">  1  5  2 -1</clus>
</clustering>
</event>
<event>
 9    2  0.3745229E-005  0.1193987E+03  0.7546771E-02  0.1248604E+00
         21   -1    0    0  501  502  0.00000000000E+00  0.00000000000E+00  0.24693929448E+03  0.24693929448E+03  0.00000000000E+00 0. -1.
          4   -1    0    0  502    0 -0.00000000000E+00 -0.00000000000E+00 -0.11702083759E+03  0.11702083759E+03  0.00000000000E+00 0. -1.
         24    2    1    2    0    0 -0.55718940756E+02 -0.83031948124E+02 -0.29354638957E+01  0.12518881242E+03  0.75264314503E+02 0.  0.
         23    2    1    2    0    0  0.53504877944E+02 -0.48478206460E+00  0.11111635999E+03  0.15244364249E+03  0.89605868672E+02 0.  0.
        -11    1    3    3    0    0 -0.52674469207E+02 -0.12503078651E+02  0.38147817533E+01  0.54272269547E+02  0.00000000000E+00 0.  1.
         12    1    3    3    0    0 -0.30444715492E+01 -0.70528869473E+02 -0.67502456490E+01  0.70916542869E+02  0.00000000000E+00 0. -1.
        -11    1    4    4    0    0 -0.21509721797E+02  0.19010427893E+01  0.53913467292E+02  0.58077052705E+02  0.00000000000E+00 0. -1.
         11    1    4    4    0    0  0.75014599740E+02 -0.23858248539E+01  0.57202892696E+02  0.94366589783E+02  0.00000000000E+00 0.  1.
          3    1    1    2  501    0  0.22140628121E+01  0.83516730189E+02  0.21737560799E+02  0.86327677167E+02  0.00000000000E+00 0. -1.
<scales pt_clust_5="13000.00000" pt_clust_6="13000.00000" pt_clust_7="13000.00000" pt_clust_8="13000.00000" pt_clust_9="83.54611"></scales>
<clustering>
<clus scale="   75.264">  5  6 -1 -1</clus>
<clus scale="   83.546">  1  9  2 -1</clus>
<clus scale="   89.606">  7  8 -1 -1</clus>
<clus scale="  109.048">  2  5  1 -1</clus>
<clus scale="   83.546">  1  5  2 -1</clus>
</clustering>
</event>
<event>
 9    2  0.3745229E-005  0.1040628E+03  0.7546771E-02  0.1276468E+00
          2   -1    0    0  502    0 -0.00000000000E+00  0.00000000000E+00  0.48778225501E+03  0.48778225501E+03  0.00000000000E+00 0. -1.
         21   -1    0    0  501  502  0.00000000000E+00 -0.00000000000E+00 -0.26579368896E+03  0.26579368896E+03  0.00000000000E+00 0. -1.
         23    2    1    2    0    0  0.41634498349E+02 -0.22255558186E+02  0.43717949044E+03  0.44968930187E+03  0.94158483589E+02 0.  0.
         24    2    1    2    0    0  0.52443947983E+02  0.60630724219E+01 -0.17605985871E+03  0.20071595363E+03  0.80639268770E+02 0.  0.
        -13    1    4    4    0    0  0.40385278998E+02  0.33669343431E+02 -0.15574572564E+03  0.16438164892E+03  0.00000000000E+00 0.  1.
         14    1    4    4    0    0  0.12058668986E+02 -0.27606271009E+02 -0.20314133069E+02  0.36334304714E+02  0.00000000000E+00 0. -1.
        -11    1    3    3    0    0  0.69161301115E+02 -0.14090422314E+02  0.36934250574E+03  0.37602621201E+03  0.00000000000E+00 0. -1.
         11    1    3    3    0    0 -0.27526802766E+02 -0.81651358717E+01  0.67836984693E+02  0.73663089852E+02  0.00000000000E+00 0.  1.
          1    1    1    2  501    0 -0.94078446333E+02  0.16192485764E+02 -0.39131065679E+02  0.10317068848E+03  0.00000000000E+00 0. -1.
<scales pt_clust_5="13000.00000" pt_clust_6="13000.00000" pt_clust_7="13000.00000" pt_clust_8="13000.00000" pt_clust_9="95.46178"></scales>
<clustering>
<clus scale="   80.639">  5  6 -1 -1</clus>
<clus scale="   94.158">  7  8 -1 -1</clus>
<clus scale="   95.462">  2  9  1 -1</clus>
<clus scale="   95.462">  2  5  1 -1</clus>
<clus scale="   95.462">  2  5  1 -1</clus>
</clustering>
</event>
<event>
 9    2  0.3745229E-005  0.1241509E+03  0.7546771E-02  0.1239786E+00
         -1   -1    0    0    0  501 -0.00000000000E+00  0.00000000000E+00  0.41266585922E+03  0.41266585922E+03  0.00000000000E+00 0.  1.
         21   -1    0    0  501  502  0.00000000000E+00 -0.00000000000E+00 -0.47709782867E+02  0.47709782867E+02  0.00000000000E+00 0. -1.
         23    2    1    2    0    0 -0.63611281754E+02 -0.60877008941E+02  0.24707239568E+03  0.27804716477E+03  0.92266200436E+02 0.  0.
         24    2    1    2    0    0  0.65923122870E+02  0.36714776372E+02  0.76800849233E+02  0.13461100535E+03  0.80795540632E+02 0.  0.
        -13    1    4    4    0    0  0.54186343356E+02 -0.56539694216E+01  0.72139266523E+02  0.90400226499E+02  0.00000000000E+00 0.  1.
         14    1    4    4    0    0  0.11736779514E+02  0.42368745793E+02  0.46615827100E+01  0.44210778853E+02  0.00000000000E+00 0. -1.
        -13    1    3    3    0    0  0.21994822354E+02 -0.27399459878E+02  0.79546022379E+02  0.86960176451E+02  0.00000000000E+00 0. -1.
         13    1    3    3    0    0 -0.85606104108E+02 -0.33477549064E+02  0.16752637330E+03  0.19108698831E+03  0.00000000000E+00 0.  1.
         -2    1    1    2    0  502 -0.23118411160E+01  0.24162232570E+02  0.41082831443E+02  0.47717471973E+02  0.00000000000E+00 0.  1.
<scales pt_clust_5="13000.00000" pt_clust_6="13000.00000" pt_clust_7="13000.00000" pt_clust_8="13000.00000" pt_clust_9="24.27259"></scales>
<clustering>
<clus scale="   24.273">  2  9  1 -1</clus>
<clus scale="   80.796">  5  6 -1 -1</clus>
<clus scale="   92.266">  7  8 -1 -1</clus>
<clus scale="  115.881">  2  5  1 -1</clus>
<clus scale="   24.273">  2  5  1 -1</clus>
</clustering>
</event>
<event>
 9    2  0.3745229E-005  0.1138902E+03  0.7546771E-02  0.1257986E+00
         21   -1    0    0  501  502  0.00000000000E+00  0.00000000000E+00  0.23069374891E+02  0.23069374891E+02  0.00000000000E+00 0.  1.
         -1   -1    0    0    0  501 -0.00000000000E+00 -0.00000000000E+00 -0.85096830813E+03  0.85096830813E+03  0.00000000000E+00 0.  1.
         24    2    1    2    0    0 -0.55645604180E+02  0.30474232634E+02 -0.33552808056E+03  0.35060359797E+03  0.79490112221E+02 0.  0.
         23    2    1    2    0    0  0.32707269589E+02 -0.77225312731E+02 -0.31707212406E+03  0.34056398105E+03  0.91736464526E+02 0.  0.
        -11    1    3    3    0    0 -0.67464728466E+02 -0.14068018351E+01 -0.23383781576E+03  0.24337952411E+03  0.00000000000E+00 0.  1.
         12    1    3    3    0    0  0.11819124286E+02  0.31881034469E+02 -0.10169026480E+03  0.10722407385E+03  0.00000000000E+00 0. -1.
        -13    1    4    4    0    0  0.18760508954E+02  0.18091191103E+02 -0.45810565723E+02  0.52705368072E+02  0.00000000000E+00 0. -1.
         13    1    4    4    0    0  0.13946760635E+02 -0.95316503834E+02 -0.27126155834E+03  0.28785861298E+03  0.00000000000E+00 0.  1.
         -2    1    1    2    0  502  0.22938334591E+02  0.46751080097E+02 -0.17529872861E+03  0.18287010400E+03  0.00000000000E+00 0.  1.
<scales pt_clust_5="13000.00000" pt_clust_6="13000.00000" pt_clust_7="13000.00000" pt_clust_8="13000.00000" pt_clust_9="52.07527"></scales>
<clustering>
<clus scale="   52.075">  1  9  2 -1</clus>
<clus scale="   79.490">  5  6 -1 -1</clus>
<clus scale="   91.736">  7  8 -1 -1</clus>
<clus scale="  104.279">  2  5  1 -1</clus>
<clus scale="   52.075">  1  5  2 -1</clus>
</clustering>
</event>
<event>
 9    2  0.3745229E-005  0.9710994E+02  0.7546771E-02  0.1293877E+00
          2   -1    0    0  502    0 -0.00000000000E+00  0.00000000000E+00  0.37197076003E+03  0.37197076003E+03  0.00000000000E+00 0. -1.
         21   -1    0    0  501  502  0.00000000000E+00 -0.00000000000E+00 -0.20696268670E+03  0.20696268670E+03  0.00000000000E+00 0.  1.
         23    2    1    2    0    0 -0.10378069983E+02  0.33231783019E+02  0.34970247412E+03  0.36295701126E+03  0.90740927227E+02 0.  0.
         24    2    1    2    0    0 -0.13075555052E+02 -0.33850888289E+02 -0.16328894005E+03  0.18421719166E+03  0.77174108237E+02 0.  0.
        -13    1    4    4    0    0  0.43533060118E+01 -0.56093475812E+02 -0.11980705047E+03  0.13235995861E+03  0.00000000000E+00 0.  1.
         14    1    4    4    0    0 -0.17428861064E+02  0.22242587522E+02 -0.43481889582E+02  0.51857233047E+02  0.00000000000E+00 0. -1.
        -11    1    3    3    0    0 -0.19689455431E+02 -0.26611842843E+02  0.17368494155E+03  0.17681154871E+03  0.00000000000E+00 0.  1.
         11    1    3    3    0    0  0.93113854474E+01  0.59843625862E+02  0.17601753257E+03  0.18614546255E+03  0.00000000000E+00 0. -1.
          1    1    1    2  501    0  0.23453625035E+02  0.61910527011E+00 -0.21405460734E+02  0.31759243818E+02  0.00000000000E+00 0. -1.
<scales pt_clust_5="13000.00000" pt_clust_6="13000.00000" pt_clust_7="13000.00000" pt_clust_8="13000.00000" pt_clust_9="23.46179"></scales>
<clustering>
<clus scale="   23.462">  2  9  1 -1</clus>
<clus scale="   77.174">  5  6 -1 -1</clus>
<clus scale="   84.571">  2  5  1 -1</clus>
<clus scale="   90.741">  7  8 -1 -1</clus>
<clus scale="   23.462">  2  5  1 -1</clus>
</clustering>
</event>
<event>
 9    2  0.3745229E-005  0.1497239E+03  0.7546771E-02  0.1221713E+00
          2   -1    0    0  502    0 -0.00000000000E+00  0.00000000000E+00  0.10273097017E+04  0.10273097017E+04  0.00000000000E+00 0. -1.
         21   -1    0    0  501  502  0.00000000000E+00 -0.00000000000E+00 -0.35995331724E+02  0.35995331724E+02  0.00000000000E+00 0. -1.
         23    2    1    2    0    0 -0.20037759910E+01 -0.20611158111E+02  0.38299356651E+03  0.39482021144E+03  0.93648771578E+02 0.  0.
         24    2    1    2    0    0  0.12014815530E+03 -0.32060256018E+02  0.32469698774E+03  0.35675602788E+03  0.79895496362E+02 0.  0.
        -11    1    4    4    0    0  0.48388501380E+02  0.20112051468E+02  0.72851972888E+02  0.89740468206E+02  0.00000000000E+00 0.  1.
         12    1    4    4    0    0  0.71759653919E+02 -0.52172307486E+02  0.25184501486E+03  0.26701555967E+03  0.00000000000E+00 0. -1.
        -13    1    3    3    0    0 -0.44361460457E+02  0.39368021304E+01  0.22689635706E+03  0.23122585157E+03  0.00000000000E+00 0.  1.
         13    1    3    3    0    0  0.42357684466E+02 -0.24547960242E+02  0.15609720945E+03  0.16359435988E+03  0.00000000000E+00 0. -1.
          1    1    1    2  501    0 -0.11814437931E+03  0.52671414130E+02  0.28362381572E+03  0.31172879410E+03  0.00000000000E+00 0. -1.
<scales pt_clust_5="13000.00000" pt_clust_6="13000.00000" pt_clust_7="13000.00000" pt_clust_8="13000.00000" pt_clust_9="126.62537"></scales>
<clustering>
<clus scale="   79.895">  5  6 -1 -1</clus>
<clus scale="   93.649">  7  8 -1 -1</clus>
<clus scale="   95.911">  1  7  2 -1</clus>
<clus scale="  126.625">  2  9  1 -1</clus>
<clus scale="  126.625">  2  5  1 -1</clus>
</clustering>
</event>
<event>
 9    2  0.3745229E-005  0.1119517E+03  0.7546771E-02  0.1260470E+00
          2   -1    0    0  502    0 -0.00000000000E+00  0.00000000000E+00  0.73287948493E+03  0.73287948493E+03  0.00000000000E+00 0. -1.
         21   -1    0    0  501  502  0.00000000000E+00 -0.00000000000E+00 -0.30880197871E+02  0.30880197871E+02  0.00000000000E+00 0. -1.
         23    2    1    2    0    0  0.78176773268E+02 -0.48493441753E+02  0.37038901109E+03  0.39237759831E+03  0.91153378139E+02 0.  0.
         24    2    1    2    0    0 -0.42060973328E+02 -0.12878288168E+02  0.15203426032E+03  0.17820241260E+03  0.81894491631E+02 0.  0.
        -11    1    4    4    0    0  0.11716789894E+02  0.23994892765E+02  0.32717264303E+02  0.42231000790E+02  0.00000000000E+00 0.  1.
         12    1    4    4    0    0 -0.53777763223E+02 -0.36873180933E+02  0.11931699602E+03  0.13597141181E+03  0.00000000000E+00 0. -1.
        -13    1    3    3    0    0 -0.10059347429E+02 -0.39471561630E+02  0.11032483208E+03  0.11760426532E+03  0.00000000000E+00 0.  1.
         13    1    3    3    0    0  0.88236120698E+02 -0.90218801228E+01  0.26006417901E+03  0.27477333299E+03  0.00000000000E+00 0. -1.
          1    1    1    2  501    0 -0.36115799940E+02  0.61371729921E+02  0.17957601564E+03  0.19317967189E+03  0.00000000000E+00 0. -1.
<scales pt_clust_5="13000.00000" pt_clust_6="13000.00000" pt_clust_7="13000.00000" pt_clust_8="13000.00000" pt_clust_9="71.20987"></scales>
<clustering>
<clus scale="   71.210">  2  9  1 -1</clus>
<clus scale="   81.894">  5  6 -1 -1</clus>
<clus scale="   91.153">  7  8 -1 -1</clus>
<clus scale="  104.551">  2  5  1 -1</clus>
<clus scale="   71.210">  2  5  1 -1</clus>
</clustering>
</event>
<event>
 9    2  0.3745229E-005  0.1145612E+03  0.7546771E-02  0.1253277E+00
         -1   -1    0    0    0  501 -0.00000000000E+00  0.00000000000E+00  0.53038297652E+03  0.53038297652E+03  0.00000000000E+00 0.  1.
         21   -1    0    0  501  502  0.00000000000E+00 -0.00000000000E+00 -0.36295646032E+02  0.36295646032E+02  0.00000000000E+00 0. -1.
         23    2    1    2    0    0  0.21597537364E+02 -0.50778000062E+02  0.17043641824E+03  0.20088694542E+03  0.90896277516E+02 0.  0.
         24    2    1    2    0    0 -0.28029650804E+01  0.88706165355E+02  0.20938582227E+03  0.24393810740E+03  0.88242491397E+02 0.  0.
        -13    1    4    4    0    0 -0.16533805238E+02 -0.12472216470E+02  0.55697363605E+02  0.59423221151E+02  0.00000000000E+00 0.  1.
         14    1    4    4    0    0  0.13730840157E+02  0.10117838183E+03  0.15368845867E+03  0.18451488625E+03  0.00000000000E+00 0. -1.
        -11    1    3    3    0    0  0.43018004527E+02  0.33498236173E+01  0.10376483452E+03  0.11237842726E+03  0.00000000000E+00 0.  1.
         11    1    3    3    0    0 -0.21420467163E+02 -0.54127823679E+02  0.66671583720E+02  0.88508518152E+02  0.00000000000E+00 0. -1.
         -2    1    1    2    0  502 -0.18794572284E+02 -0.37928165293E+02  0.11426508998E+03  0.12185356974E+03  0.00000000000E+00 0.  1.
<scales pt_clust_5="13000.00000" pt_clust_6="13000.00000" pt_clust_7="13000.00000" pt_clust_8="13000.00000" pt_clust_9="42.32946"></scales>
<clustering>
<clus scale="   42.329">  2  9  1 -1</clus>
<clus scale="   88.242">  5  6 -1 -1</clus>
<clus scale="   90.896">  7  8 -1 -1</clus>
<clus scale="  112.467">  2  5  1 -1</clus>
<clus scale="   42.329">  2  5  1 -1</clus>
</clustering>
</event>
<event>
 9    2  0.3745229E-005  0.1057878E+03  0.7546771E-02  0.1273775E+00
          2   -1    0    0  502    0 -0.00000000000E+00  0.00000000000E+00  0.57449353179E+03  0.57449353179E+03  0.00000000000E+00 0. -1.
         21   -1    0    0  501  502  0.00000000000E+00 -0.00000000000E+00 -0.33215794039E+02  0.33215794039E+02  0.00000000000E+00 0.  1.
         23    2    1    2    0    0  0.36043160504E+02  0.22358558551E+01  0.20736674074E+03  0.22981341432E+03  0.92244955242E+02 0.  0.
         24    2    1    2    0    0 -0.79206603136E+02  0.14582245953E+01  0.14338740427E+03  0.18250919650E+03  0.80460218144E+02 0.  0.
        -11    1    4    4    0    0 -0.69185855412E+02  0.30324714559E+02  0.69886062631E+02  0.10290934191E+03  0.00000000000E+00 0.  1.
         12    1    4    4    0    0 -0.10020747724E+02 -0.28866489964E+02  0.73501341639E+02  0.79599854589E+02  0.00000000000E+00 0. -1.
        -13    1    3    3    0    0  0.59360907315E+02  0.18067901174E+02  0.18052953626E+03  0.19089546834E+03  0.00000000000E+00 0.  1.
         13    1    3    3    0    0 -0.23317746812E+02 -0.15832045319E+02  0.26837204477E+02  0.38917945982E+02  0.00000000000E+00 0. -1.
          1    1    1    2  501    0  0.43163442632E+02 -0.36940804504E+01  0.19052359275E+03  0.19538671501E+03  0.00000000000E+00 0. -1.
<scales pt_clust_5="13000.00000" pt_clust_6="13000.00000" pt_clust_7="13000.00000" pt_clust_8="13000.00000" pt_clust_9="43.32125"></scales>
<clustering>
<clus scale="   43.321">  2  9  1 -1</clus>
<clus scale="   80.460">  5  6 -1 -1</clus>
<clus scale="   92.245">  7  8 -1 -1</clus>
<clus scale="   95.686">  2  5  1 -1</clus>
<clus scale="   43.321">  2  5  1 -1</clus>
</clustering>
</event>
<event>
 9    2  0.3745229E-005  0.9622260E+02  0.7546771E-02  0.1293359E+00
         21   -1    0    0  501  502  0.00000000000E+00  0.00000000000E+00  0.12647232018E+03  0.12647232018E+03  0.00000000000E+00 0.  1.
         -1   -1    0    0    0  501 -0.00000000000E+00 -0.00000000000E+00 -0.40083516769E+03  0.40083516769E+03  0.00000000000E+00 0.  1.
         23    2    1    2    0    0  0.24950117902E+02  0.18123172112E+02 -0.21565206168E+03  0.23552676113E+03  0.89532596032E+02 0.  0.
         24    2    1    2    0    0 -0.99884118510E+02  0.67354803999E+01  0.65861520341E+02  0.14429745135E+03  0.80385389081E+02 0.  0.
        -13    1    4    4    0    0 -0.20312875272E+02 -0.32656141429E+02  0.28977520812E+02  0.48153226136E+02  0.00000000000E+00 0.  1.
         14    1    4    4    0    0 -0.79571243238E+02  0.39391621829E+02  0.36883999528E+02  0.96144225214E+02  0.00000000000E+00 0. -1.
        -13    1    3    3    0    0  0.23293344798E+02  0.51691433666E+02 -0.16726136895E+03  0.17660959705E+03  0.00000000000E+00 0.  1.
         13    1    3    3    0    0  0.16567731036E+01 -0.33568261554E+02 -0.48390692725E+02  0.58917164081E+02  0.00000000000E+00 0. -1.
         -2    1    1    2    0  502  0.74934000608E+02 -0.24858652512E+02 -0.12457230618E+03  0.14748327539E+03  0.00000000000E+00 0.  1.
<scales pt_clust_5="13000.00000" pt_clust_6="13000.00000" pt_clust_7="13000.00000" pt_clust_8="13000.00000" pt_clust_9="78.94975"></scales>
<clustering>
<clus scale="   78.950">  1  9  2 -1</clus>
<clus scale="   80.385">  5  6 -1 -1</clus>
<clus scale="   87.775">  1  5  2 -1</clus>
<clus scale="   89.533">  7  8 -1 -1</clus>
<clus scale="   78.950">  1  5  2 -1</clus>
</clustering>
</event>
<event>
 9    2  0.3745229E-005  0.9244561E+02  0.7546771E-02  0.1303666E+00
          2   -1    0    0  502    0 -0.00000000000E+00  0.00000000000E+00  0.17719404138E+03  0.17719404138E+03  0.00000000000E+00 0. -1.
         21   -1    0    0  501  502  0.00000000000E+00 -0.00000000000E+00 -0.73024750756E+02  0.73024750756E+02  0.00000000000E+00 0.  1.
         24    2    1    2    0    0 -0.35982409840E+01 -0.28426832767E+01  0.67664276583E+02  0.10543947364E+03  0.80734132125E+02 0.  0.
         23    2    1    2    0    0  0.33721500623E+02  0.11879352751E+02  0.22187500358E+01  0.98253840896E+02  0.91491178662E+02 0.  0.
        -11    1    3    3    0    0 -0.40579437722E+02  0.55665557542E+01  0.23485059611E+02  0.47214672864E+02  0.00000000000E+00 0.  1.
         12    1    3    3    0    0  0.36981196738E+02 -0.84092390309E+01  0.44179216972E+02  0.58224800777E+02  0.00000000000E+00 0. -1.
        -11    1    4    4    0    0 -0.44278691237E+01  0.21158963987E+02 -0.36941117616E+02  0.42801331203E+02  0.00000000000E+00 0.  1.
         11    1    4    4    0    0  0.38149369747E+02 -0.92796112358E+01  0.39159867652E+02  0.55452509693E+02  0.00000000000E+00 0. -1.
          1    1    1    2  501    0 -0.30123259639E+02 -0.90366694742E+01  0.34286264009E+02  0.46525477602E+02  0.00000000000E+00 0. -1.
<scales pt_clust_5="13000.00000" pt_clust_6="13000.00000" pt_clust_7="13000.00000" pt_clust_8="13000.00000" pt_clust_9="31.44953"></scales>
<clustering>
<clus scale="   31.450">  2  9  1 -1</clus>
<clus scale="   80.734">  5  6 -1 -1</clus>
<clus scale="   81.814">  1  5  2 -1</clus>
<clus scale="   91.491">  7  8 -1 -1</clus>
<clus scale="   31.450">  2  5  1 -1</clus>
</clustering>
</event>
<event>
 9    2  0.3762708E-005  0.1828213E+03  0.7546771E-02  0.1166450E+00
          2   -1    0    0  502    0 -0.00000000000E+00  0.00000000000E+00  0.10132704914E+04  0.10132704914E+04  0.00000000000E+00 0. -1.
         21   -1    0    0  501  502  0.00000000000E+00 -0.00000000000E+00 -0.55448290082E+03  0.55448290082E+03  0.00000000000E+00 0.  1.
         24    2    1    2    0    0  0.15762336504E+03 -0.50850417499E+01  0.96942612126E+03  0.98535836006E+03  0.79202968964E+02 0.  0.
         23    2    1    2    0    0 -0.19347799261E+03 -0.98914699855E+00 -0.29864352498E+03  0.36730358063E+03  0.91045336473E+02 0.  0.
        -11    1    3    3    0    0  0.40028257204E+02 -0.35692532843E+02  0.24387534295E+03  0.24970262549E+03  0.00000000000E+00 0.  1.
         12    1    3    3    0    0  0.11759510784E+03  0.30607491094E+02  0.72555077831E+03  0.73565573457E+03  0.00000000000E+00 0. -1.
        -11    1    4    4    0    0 -0.10125481407E+03  0.42817168277E+02 -0.17849489868E+03  0.20963367126E+03  0.00000000000E+00 0.  1.
         11    1    4    4    0    0 -0.92223178544E+02 -0.43806315275E+02 -0.12014862630E+03  0.15766990937E+03  0.00000000000E+00 0. -1.
          1    1    1    2  501    0  0.35854627569E+02  0.60741887484E+01 -0.21199500570E+03  0.21509145154E+03  0.00000000000E+00 0. -1.
<scales pt_clust_5="13000.00000" pt_clust_6="13000.00000" pt_clust_7="13000.00000" pt_clust_8="13000.00000" pt_clust_9="36.36551"></scales>
<clustering>
<clus scale="   36.366">  2  9  1 -1</clus>
<clus scale="   79.203">  5  6 -1 -1</clus>
<clus scale="   91.045">  7  8 -1 -1</clus>
<clus scale="  177.222">  1  5  2 -1</clus>
<clus scale="   36.366">  2  5  1 -1</clus>
</clustering>
</event>
<event>
 9    2  0.3745229E-005  0.1264176E+03  0.7546771E-02  0.1247678E+00
          2   -1    0    0  502    0 -0.00000000000E+00  0.00000000000E+00  0.61177628094E+03  0.61177628094E+03  0.00000000000E+00 0. -1.
         21   -1    0    0  501  502  0.00000000000E+00 -0.00000000000E+00 -0.17569049317E+03  0.17569049317E+03  0.00000000000E+00 0. -1.
         23    2    1    2    0    0 -0.71158613386E+01 -0.15296500569E+02  0.45992064465E+03  0.46934765036E+03  0.92063017043E+02 0.  0.
         24    2    1    2    0    0 -0.77853362479E+02 -0.30393810753E+02  0.10442575805E+03  0.15762563825E+03  0.83403675620E+02 0.  0.
        -13    1    4    4    0    0 -0.22073591294E+02  0.21100146999E+02  0.26431169741E+01  0.30650378519E+02  0.00000000000E+00 0.  1.
         14    1    4    4    0    0 -0.55779771186E+02 -0.51493957752E+02  0.10178264108E+03  0.12697525973E+03  0.00000000000E+00 0. -1.
        -11    1    3    3    0    0  0.31129058536E+02 -0.37754534339E+02  0.26029881250E+03  0.26485825442E+03  0.00000000000E+00 0.  1.
         11    1    3    3    0    0 -0.38244919875E+02  0.22458033770E+02  0.19962183216E+03  0.20448939594E+03  0.00000000000E+00 0. -1.
          1    1    1    2  501    0  0.84969223818E+02  0.45690311322E+02 -0.12826061494E+03  0.16049348550E+03  0.00000000000E+00 0. -1.
<scales pt_clust_5="13000.00000" pt_clust_6="13000.00000" pt_clust_7="13000.00000" pt_clust_8="13000.00000" pt_clust_9="95.00125"></scales>
<clustering>
<clus scale="   83.404">  5  6 -1 -1</clus>
<clus scale="   92.063">  7  8 -1 -1</clus>
<clus scale="   93.596">  1  7  2 -1</clus>
<clus scale="   95.001">  2  9  1 -1</clus>
<clus scale="   95.001">  2  5  1 -1</clus>
</clustering>
</event>
<event>
 9    2  0.3745229E-005  0.9187798E+02  0.7546771E-02  0.1304955E+00
          4   -1    0    0  502    0 -0.00000000000E+00  0.00000000000E+00  0.17220432830E+03  0.17220432830E+03  0.00000000000E+00 0. -1.
         21   -1    0    0  501  502  0.00000000000E+00 -0.00000000000E+00 -0.32802414475E+03  0.32802414475E+03  0.00000000000E+00 0. -1.
         23    2    1    2    0    0 -0.17764593248E+01  0.18627401535E+02  0.14669900190E+03  0.17328489245E+03  0.90315673589E+02 0.  0.
         24    2    1    2    0    0 -0.25305060712E+02  0.10277282913E+02 -0.19682026962E+03  0.21406722029E+03  0.79627806888E+02 0.  0.
        -11    1    4    4    0    0  0.96201507788E+01 -0.28083928541E+02 -0.47727305453E+02  0.56206316630E+02  0.00000000000E+00 0.  1.
         12    1    4    4    0    0 -0.34925211491E+02  0.38361211454E+02 -0.14909296416E+03  0.15786090366E+03  0.00000000000E+00 0. -1.
        -11    1    3    3    0    0  0.43752593591E+02  0.12529007272E+02  0.61721400801E+02  0.76686353324E+02  0.00000000000E+00 0.  1.
         11    1    3    3    0    0 -0.45529052916E+02  0.60983942623E+01  0.84977601103E+02  0.96598539126E+02  0.00000000000E+00 0. -1.
          3    1    1    2  501    0  0.27081520037E+02 -0.28904684448E+02 -0.10569854874E+03  0.11287636031E+03  0.00000000000E+00 0. -1.
<scales pt_clust_5="13000.00000" pt_clust_6="13000.00000" pt_clust_7="13000.00000" pt_clust_8="13000.00000" pt_clust_9="39.60921"></scales>
<clustering>
<clus scale="   39.609">  2  9  1 -1</clus>
<clus scale="   79.628">  5  6 -1 -1</clus>
<clus scale="   81.396">  2  5  1 -1</clus>
<clus scale="   90.316">  7  8 -1 -1</clus>
<clus scale="   39.609">  2  5  1 -1</clus>
</clustering>
</event>
<event>
 9    2  0.3745229E-005  0.9063564E+02  0.7546771E-02  0.1306323E+00
         -1   -1    0    0    0  501 -0.00000000000E+00  0.00000000000E+00  0.80549617900E+02  0.80549617900E+02  0.00000000000E+00 0.  1.
         21   -1    0    0  501  502  0.00000000000E+00 -0.00000000000E+00 -0.18604897442E+03  0.18604897442E+03  0.00000000000E+00 0. -1.
         23    2    1    2    0    0 -0.19941324057E+02 -0.25898114095E+02  0.12628120293E+02  0.93511385699E+02  0.86697987949E+02 0.  0.
         24    2    1    2    0    0  0.10046426198E+02 -0.72406813552E+00 -0.12103412337E+03  0.14453728220E+03  0.78360142748E+02 0.  0.
        -13    1    4    4    0    0  0.33838020876E+02 -0.23051139041E+02 -0.40256092705E+02  0.57418809355E+02  0.00000000000E+00 0.  1.
         14    1    4    4    0    0 -0.23791594678E+02  0.22327070905E+02 -0.80778030663E+02  0.87118472842E+02  0.00000000000E+00 0. -1.
        -13    1    3    3    0    0 -0.44000815478E+02 -0.27698041660E+02  0.33297791758E+02  0.61741365473E+02  0.00000000000E+00 0.  1.
         13    1    3    3    0    0  0.24059491421E+02  0.17999275649E+01 -0.20669671465E+02  0.31770020226E+02  0.00000000000E+00 0. -1.
         -2    1    1    2    0  502  0.98948978587E+01  0.26622182231E+02  0.29066465555E+01  0.28549924423E+02  0.00000000000E+00 0.  1.
<scales pt_clust_5="13000.00000" pt_clust_6="13000.00000" pt_clust_7="13000.00000" pt_clust_8="13000.00000" pt_clust_9="28.40159"></scales>
<clustering>
<clus scale="   28.402">  2  9  1 -1</clus>
<clus scale="   78.360">  5  6 -1 -1</clus>
<clus scale="   82.696">  2  5  1 -1</clus>
<clus scale="   86.698">  7  8 -1 -1</clus>
<clus scale="   28.402">  2  5  1 -1</clus>
</clustering>
</event>
<event>
 9    2  0.3745229E-005  0.9924668E+02  0.7546771E-02  0.1286903E+00
         21   -1    0    0  501  502  0.00000000000E+00  0.00000000000E+00  0.26879448147E+03  0.26879448147E+03  0.00000000000E+00 0.  1.
         -1   -1    0    0    0  501 -0.00000000000E+00 -0.00000000000E+00 -0.10984626432E+03  0.10984626432E+03  0.00000000000E+00 0.  1.
         23    2    1    2    0    0 -0.21639197318E+01  0.40455890372E+02 -0.53237389796E+02  0.11220184851E+03  0.90075931977E+02 0.  0.
         24    2    1    2    0    0  0.52247290641E+02 -0.42336722530E+02  0.17563229599E+03  0.20440643713E+03  0.80081899899E+02 0.  0.
        -11    1    4    4    0    0  0.30807386385E+02  0.44276369499E+01  0.12821820061E+02  0.33661522463E+02  0.00000000000E+00 0.  1.
         12    1    4    4    0    0  0.21439904255E+02 -0.46764359480E+02  0.16281047593E+03  0.17074491467E+03  0.00000000000E+00 0. -1.
        -11    1    3    3    0    0  0.39207479130E+02  0.25446799596E+02 -0.49426182227E+02  0.68027299806E+02  0.00000000000E+00 0. -1.
         11    1    3    3    0    0 -0.41371398862E+02  0.15009090777E+02 -0.38112075688E+01  0.44174548700E+02  0.00000000000E+00 0.  1.
         -2    1    1    2    0  502 -0.50083370909E+02  0.18808321574E+01  0.36553310943E+02  0.62032460149E+02  0.00000000000E+00 0.  1.
<scales pt_clust_5="13000.00000" pt_clust_6="13000.00000" pt_clust_7="13000.00000" pt_clust_8="13000.00000" pt_clust_9="50.11867"></scales>
<clustering>
<clus scale="   50.119">  1  9  2 -1</clus>
<clus scale="   80.082">  5  6 -1 -1</clus>
<clus scale="   90.076">  7  8 -1 -1</clus>
<clus scale="   90.274">  1  5  2 -1</clus>
<clus scale="   50.119">  1  5  2 -1</clus>
</clustering>
</event>
<event>
 9    2  0.3745229E-005  0.1256967E+03  0.7546771E-02  0.1236412E+00
         21   -1    0    0  501  502  0.00000000000E+00  0.00000000000E+00  0.26403769016E+02  0.26403769016E+02  0.00000000000E+00 0. -1.
          2   -1    0    0  502    0 -0.00000000000E+00 -0.00000000000E+00 -0.12270816798E+04  0.12270816798E+04  0.00000000000E+00 0. -1.
         24    2    1    2    0    0  0.38834621167E+02  0.94080798009E+02 -0.84439479943E+03  0.85427644823E+03  0.80164507961E+02 0.  0.
         23    2    1    2    0    0  0.20938250567E+02 -0.60149049070E+02 -0.18973224000E+03  0.21903310728E+03  0.88999217690E+02 0.  0.
        -11    1    3    3    0    0 -0.42352137119E+01  0.74222198277E+02 -0.36194728806E+03  0.36950333028E+03  0.00000000000E+00 0.  1.
         12    1    3    3    0    0  0.43069834879E+02  0.19858599732E+02 -0.48244751137E+03  0.48477311795E+03  0.00000000000E+00 0. -1.
        -11    1    4    4    0    0 -0.21180801722E+02 -0.65892748235E+01 -0.58613539731E+01  0.22943416805E+02  0.00000000000E+00 0.  1.
         11    1    4    4    0    0  0.42119052289E+02 -0.53559774246E+02 -0.18387088603E+03  0.19608969048E+03  0.00000000000E+00 0. -1.
          1    1    1    2  501    0 -0.59772871734E+02 -0.33931748939E+02 -0.16655087140E+03  0.18017589335E+03  0.00000000000E+00 0. -1.
<scales pt_clust_5="13000.00000" pt_clust_6="13000.00000" pt_clust_7="13000.00000" pt_clust_8="13000.00000" pt_clust_9="68.73252"></scales>
<clustering>
<clus scale="   68.733">  1  9  2 -1</clus>
<clus scale="   80.165">  5  6 -1 -1</clus>
<clus scale="   88.999">  7  8 -1 -1</clus>
<clus scale="  119.604">  2  5  1 -1</clus>
<clus scale="   68.733">  1  5  2 -1</clus>
</clustering>
</event>
<event>
 9    2  0.3745229E-005  0.1003069E+03  0.7546771E-02  0.1287198E+00
         -3   -1    0    0    0  501 -0.00000000000E+00  0.00000000000E+00  0.35465992559E+02  0.35465992559E+02  0.00000000000E+00 0.  1.
         21   -1    0    0  501  502  0.00000000000E+00 -0.00000000000E+00 -0.56482459951E+03  0.56482459951E+03  0.00000000000E+00 0. -1.
         24    2    1    2    0    0 -0.14963706369E+02 -0.14836457347E+02 -0.18709308872E+03  0.20448979167E+03  0.79801115744E+02 0.  0.
         23    2    1    2    0    0 -0.31798248129E+00  0.64296624778E+02 -0.31951949445E+03  0.33925683720E+03  0.94171849216E+02 0.  0.
        -13    1    3    3    0    0  0.25666737229E+02  0.16129010624E+02 -0.53957467220E+02  0.61889697466E+02  0.00000000000E+00 0.  1.
         14    1    3    3    0    0 -0.40630443598E+02 -0.30965467971E+02 -0.13313562150E+03  0.14260009420E+03  0.00000000000E+00 0. -1.
        -13    1    4    4    0    0  0.42189267320E+02  0.14839036718E+02 -0.17637717386E+03  0.18195889302E+03  0.00000000000E+00 0.  1.
         13    1    4    4    0    0 -0.42507249802E+02  0.49457588060E+02 -0.14314232058E+03  0.15729794419E+03  0.00000000000E+00 0. -1.
         -4    1    1    2    0  502  0.15281688850E+02 -0.49460167431E+02 -0.22746023781E+02  0.56543963199E+02  0.00000000000E+00 0.  1.
<scales pt_clust_5="13000.00000" pt_clust_6="13000.00000" pt_clust_7="13000.00000" pt_clust_8="13000.00000" pt_clust_9="51.76718"></scales>
<clustering>
<clus scale="   51.767">  2  9  1 -1</clus>
<clus scale="   79.801">  5  6 -1 -1</clus>
<clus scale="   86.956">  1  5  2 -1</clus>
<clus scale="   94.172">  7  8 -1 -1</clus>
<clus scale="   51.767">  2  5  1 -1</clus>
</clustering>
</event>
<event>
 9    2  0.3745229E-005  0.9378134E+02  0.7546771E-02  0.1301331E+00
         21   -1    0    0  501  502  0.00000000000E+00  0.00000000000E+00  0.10815369479E+03  0.10815369479E+03  0.00000000000E+00 0.  1.
          2   -1    0    0  502    0 -0.00000000000E+00 -0.00000000000E+00 -0.17065552820E+03  0.17065552820E+03  0.00000000000E+00 0. -1.
         23    2    1    2    0    0 -0.13574027185E+02 -0.11485910226E+02 -0.88023723661E+02  0.12840649962E+03  0.91781658675E+02 0.  0.
         24    2    1    2    0    0  0.27559933096E+02 -0.11984055885E+02 -0.28684054987E+02  0.89700751638E+02  0.79500203310E+02 0.  0.
        -13    1    4    4    0    0 -0.99243256459E+01 -0.37468542412E+02 -0.67433849853E+01  0.39342815749E+02  0.00000000000E+00 0.  1.
         14    1    4    4    0    0  0.37484258742E+02  0.25484486526E+02 -0.21940670001E+02  0.50357935890E+02  0.00000000000E+00 0. -1.
        -11    1    3    3    0    0 -0.38257369677E+00 -0.48822729320E+02 -0.27374839798E+02  0.55974879320E+02  0.00000000000E+00 0.  1.
         11    1    3    3    0    0 -0.13191453489E+02  0.37336819094E+02 -0.60648883863E+02  0.72431620298E+02  0.00000000000E+00 0. -1.
          1    1    1    2  501    0 -0.13985905911E+02  0.23469966112E+02  0.54205945242E+02  0.60701971739E+02  0.00000000000E+00 0. -1.
<scales pt_clust_5="13000.00000" pt_clust_6="13000.00000" pt_clust_7="13000.00000" pt_clust_8="13000.00000" pt_clust_9="27.32114"></scales>
<clustering>
<clus scale="   27.321">  1  9  2 -1</clus>
<clus scale="   79.500">  5  6 -1 -1</clus>
<clus scale="   81.801">  1  5  2 -1</clus>
<clus scale="   91.782">  7  8 -1 -1</clus>
<clus scale="   27.321">  1  5  2 -1</clus>
</clustering>
</event>
<event>
 9    2  0.3745229E-005  0.1301223E+03  0.7546771E-02  0.1230561E+00
         21   -1    0    0  501  502  0.00000000000E+00  0.00000000000E+00  0.20759500290E+03  0.20759500290E+03  0.00000000000E+00 0. -1.
         -1   -1    0    0    0  501 -0.00000000000E+00 -0.00000000000E+00 -0.19186331318E+03  0.19186331318E+03  0.00000000000E+00 0.  1.
         23    2    1    2    0    0 -0.10571674088E+03 -0.39905997565E+00 -0.85732711903E+02  0.16466904079E+03  0.92680130301E+02 0.  0.
         24    2    1    2    0    0  0.39150821510E+02 -0.36546687632E+02  0.12238827456E+03  0.15583474188E+03  0.80231725806E+02 0.  0.
        -13    1    4    4    0    0 -0.26796300635E+01 -0.21721872849E+02 -0.36703600391E+01  0.22192154474E+02  0.00000000000E+00 0.  1.
         14    1    4    4    0    0  0.41830451574E+02 -0.14824814782E+02  0.12605863460E+03  0.13364258741E+03  0.00000000000E+00 0. -1.
        -11    1    3    3    0    0 -0.67603095046E+02  0.67362319489E+01 -0.10205323176E+03  0.12259860274E+03  0.00000000000E+00 0.  1.
         11    1    3    3    0    0 -0.38113645831E+02 -0.71352919246E+01  0.16320519855E+02  0.42070438050E+02  0.00000000000E+00 0. -1.
         -2    1    1    2    0  502  0.66565919367E+02  0.36945747607E+02 -0.20923872945E+02  0.78954533413E+02  0.00000000000E+00 0.  1.
<scales pt_clust_5="13000.00000" pt_clust_6="13000.00000" pt_clust_7="13000.00000" pt_clust_8="13000.00000" pt_clust_9="76.13157"></scales>
<clustering>
<clus scale="   76.132">  1  9  2 -1</clus>
<clus scale="   80.232">  5  6 -1 -1</clus>
<clus scale="   92.680">  7  8 -1 -1</clus>
<clus scale="  121.570">  1  5  2 -1</clus>
<clus scale="   76.132">  1  5  2 -1</clus>
</clustering>
</event>
<event>
 9    2  0.3745229E-005  0.1151005E+03  0.7546771E-02  0.1254646E+00
         21   -1    0    0  501  502  0.00000000000E+00  0.00000000000E+00  0.76190664100E+03  0.76190664100E+03  0.00000000000E+00 0.  1.
         -1   -1    0    0    0  501 -0.00000000000E+00 -0.00000000000E+00 -0.19271074048E+03  0.19271074048E+03  0.00000000000E+00 0.  1.
         23    2    1    2    0    0  0.52720796843E+02  0.51382391052E+02 -0.15850244376E+03  0.19709069872E+03  0.91115785218E+02 0.  0.
         24    2    1    2    0    0  0.12280351994E+02 -0.60961107700E+02  0.19176944453E+03  0.21758530933E+03  0.81858312240E+02 0.  0.
        -11    1    4    4    0    0 -0.23619924494E+01 -0.27616189626E+02  0.61031000384E+01  0.28380993074E+02  0.00000000000E+00 0.  1.
         12    1    4    4    0    0  0.14642344444E+02 -0.33344918074E+02  0.18566634449E+03  0.18920431626E+03  0.00000000000E+00 0. -1.
        -11    1    3    3    0    0 -0.27868715993E+01 -0.21424782280E+02 -0.13102790274E+02  0.25267984923E+02  0.00000000000E+00 0. -1.
         11    1    3    3    0    0  0.55507668442E+02  0.72807173333E+02 -0.14539965348E+03  0.17182271380E+03  0.00000000000E+00 0.  1.
         -2    1    1    2    0  502 -0.65001148837E+02  0.95787166472E+01  0.53592889974E+03  0.53994137343E+03  0.00000000000E+00 0.  1.
<scales pt_clust_5="13000.00000" pt_clust_6="13000.00000" pt_clust_7="13000.00000" pt_clust_8="13000.00000" pt_clust_9="65.70313"></scales>
<clustering>
<clus scale="   65.703">  1  9  2 -1</clus>
<clus scale="   81.858">  5  6 -1 -1</clus>
<clus scale="   91.116">  7  8 -1 -1</clus>
<clus scale="  107.920">  1  5  2 -1</clus>
<clus scale="   65.703">  1  5  2 -1</clus>
</clustering>
</event>
<event>
 9    2  0.3745229E-005  0.1025746E+03  0.7546771E-02  0.1282661E+00
         21   -1    0    0  501  502  0.00000000000E+00  0.00000000000E+00  0.23068410959E+03  0.23068410959E+03  0.00000000000E+00 0. -1.
         -3   -1    0    0    0  501 -0.00000000000E+00 -0.00000000000E+00 -0.19683187785E+03  0.19683187785E+03  0.00000000000E+00 0.  1.
         23    2    1    2    0    0 -0.17512641242E+02 -0.28764033935E+02 -0.16484653433E+03  0.19383165180E+03  0.96240672839E+02 0.  0.
         24    2    1    2    0    0  0.31706505415E+02  0.47684517544E+02  0.15983196106E+03  0.18818621467E+03  0.81170683846E+02 0.  0.
        -13    1    4    4    0    0  0.18155088698E+02 -0.10743617623E+02  0.43542661046E+01  0.21540478141E+02  0.00000000000E+00 0.  1.
         14    1    4    4    0    0  0.13551416717E+02  0.58428135167E+02  0.15547769496E+03  0.16664573653E+03  0.00000000000E+00 0. -1.
        -13    1    3    3    0    0  0.25435343302E+02  0.23050198776E+02 -0.48408312681E+02  0.59343349156E+02  0.00000000000E+00 0. -1.
         13    1    3    3    0    0 -0.42947984544E+02 -0.51814232711E+02 -0.11643822165E+03  0.13448830265E+03  0.00000000000E+00 0.  1.
         -4    1    1    2    0  502 -0.14193864173E+02 -0.18920483609E+02  0.38866805010E+02  0.45498120971E+02  0.00000000000E+00 0.  1.
<scales pt_clust_5="13000.00000" pt_clust_6="13000.00000" pt_clust_7="13000.00000" pt_clust_8="13000.00000" pt_clust_9="23.65271"></scales>
<clustering>
<clus scale="   23.653">  1  9  2 -1</clus>
<clus scale="   81.171">  5  6 -1 -1</clus>
<clus scale="   88.589">  1  5  2 -1</clus>
<clus scale="   96.241">  7  8 -1 -1</clus>
<clus scale="   23.653">  1  5  2 -1</clus>
</clustering>
</event>
<event>
 9    2  0.3745229E-005  0.9509690E+02  0.7546771E-02  0.1301681E+00
         21   -1    0    0  501  502  0.00000000000E+00  0.00000000000E+00  0.26035409034E+02  0.26035409034E+02  0.00000000000E+00 0.  1.
          2   -1    0    0  502    0 -0.00000000000E+00 -0.00000000000E+00 -0.64019834519E+03  0.64019834519E+03  0.00000000000E+00 0. -1.
         24    2    1    2    0    0  0.62781043506E+01  0.33227973697E+02 -0.47770672522E+03  0.48423166881E+03  0.71645522673E+02 0.  0.
         23    2    1    2    0    0  0.14037806796E+02 -0.15126890896E+02 -0.95584999102E+02  0.13290176566E+03  0.90002802253E+02 0.  0.
        -13    1    3    3    0    0 -0.21036852325E+02 -0.22280087273E+00 -0.48611090161E+02  0.52968262975E+02  0.00000000000E+00 0.  1.
         14    1    3    3    0    0  0.27314956676E+02  0.33450774570E+02 -0.42909563506E+03  0.43126340583E+03  0.00000000000E+00 0. -1.
        -13    1    4    4    0    0  0.22524515926E+02  0.34724656086E+02 -0.49049108081E+02  0.64179206613E+02  0.00000000000E+00 0. -1.
         13    1    4    4    0    0 -0.84867091294E+01 -0.49851546982E+02 -0.46535891021E+02  0.68722559043E+02  0.00000000000E+00 0.  1.
          1    1    1    2  501    0 -0.20315911147E+02 -0.18101082801E+02 -0.40871211831E+02  0.49100319763E+02  0.00000000000E+00 0. -1.
<scales pt_clust_5="13000.00000" pt_clust_6="13000.00000" pt_clust_7="13000.00000" pt_clust_8="13000.00000" pt_clust_9="27.21002"></scales>
<clustering>
<clus scale="   27.210">  1  9  2 -1</clus>
<clus scale="   71.646">  5  6 -1 -1</clus>
<clus scale="   77.949">  2  5  1 -1</clus>
<clus scale="   90.003">  7  8 -1 -1</clus>
<clus scale="   27.210">  1  5  2 -1</clus>
</clustering>
</event>
<event>
 9    2  0.3745229E-005  0.2331810E+03  0.7546771E-02  0.1157691E+00
          2   -1    0    0  502    0 -0.00000000000E+00  0.00000000000E+00  0.24983270746E+03  0.24983270746E+03  0.00000000000E+00 0. -1.
         21   -1    0    0  501  502  0.00000000000E+00 -0.00000000000E+00 -0.61348373612E+03  0.61348373612E+03  0.00000000000E+00 0. -1.
         23    2    1    2    0    0  0.56832102706E+02 -0.25265244845E+01  0.89155736918E+02  0.13748088288E+03  0.87840631306E+02 0.  0.
         24    2    1    2    0    0 -0.20011008058E+02  0.21849382671E+03 -0.13436091974E+02  0.23487297814E+03  0.82733273470E+02 0.  0.
        -13    1    4    4    0    0  0.28164324492E+01  0.11684985192E+03 -0.46174959430E+02  0.12567397131E+03  0.00000000000E+00 0.  1.
         14    1    4    4    0    0 -0.22827440507E+02  0.10164397479E+03  0.32738867456E+02  0.10919900683E+03  0.00000000000E+00 0. -1.
        -11    1    3    3    0    0  0.50735519392E+02  0.37259311943E+02  0.42958426801E+02  0.76208763851E+02  0.00000000000E+00 0. -1.
         11    1    3    3    0    0  0.60965833132E+01 -0.39785836427E+02  0.46197310116E+02  0.61272119029E+02  0.00000000000E+00 0.  1.
          1    1    1    2  501    0 -0.36821094648E+02 -0.21596730223E+03 -0.43937067361E+03  0.49096258256E+03  0.00000000000E+00 0. -1.
<scales pt_clust_5="13000.00000" pt_clust_6="13000.00000" pt_clust_7="13000.00000" pt_clust_8="13000.00000" pt_clust_9="218.01052"></scales>
<clustering>
<clus scale="   82.733">  5  6 -1 -1</clus>
<clus scale="   87.841">  7  8 -1 -1</clus>
<clus scale="  104.653">  1  7  2 -1</clus>
<clus scale="  218.011">  2  9  1 -1</clus>
<clus scale="  218.011">  2  5  1 -1</clus>
</clustering>
</event>
<event>
 9    2  0.3745229E-005  0.1040752E+03  0.7546771E-02  0.1274448E+00
          2   -1    0    0  502    0 -0.00000000000E+00  0.00000000000E+00  0.11341114042E+03  0.11341114042E+03  0.00000000000E+00 0. -1.
         21   -1    0    0  501  502  0.00000000000E+00 -0.00000000000E+00 -0.15240854346E+03  0.15240854346E+03  0.00000000000E+00 0. -1.
         24    2    1    2    0    0 -0.58080635249E+02 -0.53521920681E+02 -0.48603630060E+01  0.11385910063E+03  0.81867670563E+02 0.  0.
         23    2    1    2    0    0  0.26463997885E+02  0.13524828636E+02 -0.39518175152E+02  0.10069328621E+03  0.87716518099E+02 0.  0.
        -11    1    3    3    0    0 -0.60866471574E+01  0.21484295935E+02 -0.33637906880E+01  0.22581792073E+02  0.00000000000E+00 0.  1.
         12    1    3    3    0    0 -0.51993988092E+02 -0.75006216616E+02 -0.14965723179E+01  0.91277308557E+02  0.00000000000E+00 0. -1.
        -13    1    4    4    0    0  0.34428095904E+02  0.32428321763E+02 -0.56770332631E+02  0.73890192225E+02  0.00000000000E+00 0. -1.
         13    1    4    4    0    0 -0.79640980191E+01 -0.18903493127E+02  0.17252157480E+02  0.26803093988E+02  0.00000000000E+00 0.  1.
          1    1    1    2  501    0  0.31616637364E+02  0.39997092045E+02  0.53811351095E+01  0.51267297036E+02  0.00000000000E+00 0. -1.
<scales pt_clust_5="13000.00000" pt_clust_6="13000.00000" pt_clust_7="13000.00000" pt_clust_8="13000.00000" pt_clust_9="50.98413"></scales>
<clustering>
<clus scale="   50.984">  2  9  1 -1</clus>
<clus scale="   81.868">  5  6 -1 -1</clus>
<clus scale="   87.717">  7  8 -1 -1</clus>
<clus scale="   99.196">  1  5  2 -1</clus>
<clus scale="   50.984">  2  5  1 -1</clus>
</clustering>
</event>
<event>
 9    2  0.3745229E-005  0.1407660E+03  0.7546771E-02  0.1231520E+00
         21   -1    0    0  501  502  0.00000000000E+00  0.00000000000E+00  0.14781336589E+03  0.14781336589E+03  0.00000000000E+00 0.  1.
         -1   -1    0    0    0  501 -0.00000000000E+00 -0.00000000000E+00 -0.29408674493E+03  0.29408674493E+03  0.00000000000E+00 0.  1.
         23    2    1    2    0    0  0.35463472759E+01 -0.16808825988E+02 -0.15847505748E+03  0.18433059224E+03  0.92565167221E+02 0.  0.
         24    2    1    2    0    0  0.97878009348E+01  0.11481210596E+03 -0.25323061095E+02  0.15178412984E+03  0.95496303211E+02 0.  0.
        -11    1    4    4    0    0  0.21524909839E+02  0.12885032867E+03 -0.27041248618E+02  0.13340524003E+03  0.00000000000E+00 0.  1.
         12    1    4    4    0    0 -0.11737108904E+02 -0.14038222710E+02  0.17181875222E+01  0.18378889810E+02  0.00000000000E+00 0. -1.
        -13    1    3    3    0    0 -0.34898888414E+01  0.38208139010E+02 -0.72285100467E+02  0.81836281442E+02  0.00000000000E+00 0. -1.
         13    1    3    3    0    0  0.70362361174E+01 -0.55016964998E+02 -0.86189957014E+02  0.10249431080E+03  0.00000000000E+00 0.  1.
         -2    1    1    2    0  502 -0.13334148211E+02 -0.98003279968E+02  0.37524739531E+02  0.10578538874E+03  0.00000000000E+00 0.  1.
<scales pt_clust_5="13000.00000" pt_clust_6="13000.00000" pt_clust_7="13000.00000" pt_clust_8="13000.00000" pt_clust_9="103.41920"></scales>
<clustering>
<clus scale="   92.565">  7  8 -1 -1</clus>
<clus scale="   94.146">  2  7  1 -1</clus>
<clus scale="   95.496">  5  6 -1 -1</clus>
<clus scale="  103.419">  1  9  2 -1</clus>
<clus scale="  103.419">  1  5  2 -1</clus>
</clustering>
</event>
<event>
 9    2  0.3745229E-005  0.1017504E+03  0.7546771E-02  0.1282426E+00
         21   -1    0    0  501  502  0.00000000000E+00  0.00000000000E+00  0.79747790880E+02  0.79747790880E+02  0.00000000000E+00 0. -1.
          2   -1    0    0  502    0 -0.00000000000E+00 -0.00000000000E+00 -0.55723123387E+03  0.55723123387E+03  0.00000000000E+00 0. -1.
         24    2    1    2    0    0  0.36853077588E+02  0.22742316138E+02 -0.40197488044E+03  0.41231403646E+03  0.80893126312E+02 0.  0.
         23    2    1    2    0    0 -0.42888225204E+02  0.24820647724E+02  0.29575056457E+02  0.10916076533E+03  0.92660262837E+02 0.  0.
        -13    1    3    3    0    0  0.15825556355E+02  0.47786164716E+02 -0.14988964174E+03  0.15811663566E+03  0.00000000000E+00 0.  1.
         14    1    3    3    0    0  0.21027521233E+02 -0.25043848578E+02 -0.25208523870E+03  0.25419740080E+03  0.00000000000E+00 0. -1.
        -13    1    4    4    0    0  0.34824920170E+00 -0.27464391715E+02 -0.11580150000E+02  0.29807951352E+02  0.00000000000E+00 0.  1.
         13    1    4    4    0    0 -0.43236474405E+02  0.52285039439E+02  0.41155206456E+02  0.79352813980E+02  0.00000000000E+00 0. -1.
          1    1    1    2  501    0  0.60351476155E+01 -0.47562963862E+02 -0.10508361901E+03  0.11550422296E+03  0.00000000000E+00 0. -1.
<scales pt_clust_5="13000.00000" pt_clust_6="13000.00000" pt_clust_7="13000.00000" pt_clust_8="13000.00000" pt_clust_9="47.94435"></scales>
<clustering>
<clus scale="   47.944">  1  9  2 -1</clus>
<clus scale="   80.893">  5  6 -1 -1</clus>
<clus scale="   91.164">  2  5  1 -1</clus>
<clus scale="   92.660">  7  8 -1 -1</clus>
<clus scale="   47.944">  1  5  2 -1</clus>
</clustering>
</event>
<event>
 9    2  0.3745229E-005  0.9552380E+02  0.7546771E-02  0.1295824E+00
         -1   -1    0    0    0  501 -0.00000000000E+00  0.00000000000E+00  0.15608165001E+03  0.15608165001E+03  0.00000000000E+00 0.  1.
         21   -1    0    0  501  502  0.00000000000E+00 -0.00000000000E+00 -0.16386003140E+03  0.16386003140E+03  0.00000000000E+00 0. -1.
         23    2    1    2    0    0 -0.18762044972E+01  0.27020469672E+02  0.10774409415E+03  0.14471790886E+03  0.92740807609E+02 0.  0.
         24    2    1    2    0    0  0.17675921696E+02 -0.55222273603E+01 -0.37138264315E+02  0.92423470289E+02  0.82582770486E+02 0.  0.
        -11    1    4    4    0    0 -0.17438202911E+02  0.26918982494E+02 -0.30314595001E+02  0.44132722660E+02  0.00000000000E+00 0.  1.
         12    1    4    4    0    0  0.35114124606E+02 -0.32441209854E+02 -0.68236693136E+01  0.48290747629E+02  0.00000000000E+00 0. -1.
        -11    1    3    3    0    0 -0.24158677018E+02 -0.22515097588E+02  0.12964271396E+02  0.35477367820E+02  0.00000000000E+00 0. -1.
         11    1    3    3    0    0  0.22282472521E+02  0.49535567260E+02  0.94779822750E+02  0.10924054104E+03  0.00000000000E+00 0.  1.
         -2    1    1    2    0  502 -0.15799717198E+02 -0.21498242312E+02 -0.78384211220E+02  0.82800302262E+02  0.00000000000E+00 0.  1.
<scales pt_clust_5="13000.00000" pt_clust_6="13000.00000" pt_clust_7="13000.00000" pt_clust_8="13000.00000" pt_clust_9="26.67968"></scales>
<clustering>
<clus scale="   26.680">  2  9  1 -1</clus>
<clus scale="   82.583">  5  6 -1 -1</clus>
<clus scale="   85.696">  2  5  1 -1</clus>
<clus scale="   92.741">  7  8 -1 -1</clus>
<clus scale="   26.680">  2  5  1 -1</clus>
</clustering>
</event>
<event>
 9    2  0.3745229E-005  0.1743132E+03  0.7546771E-02  0.1175323E+00
          4   -1    0    0  502    0 -0.00000000000E+00  0.00000000000E+00  0.20173822153E+03  0.20173822153E+03  0.00000000000E+00 0. -1.
         21   -1    0    0  501  502  0.00000000000E+00 -0.00000000000E+00 -0.33558037775E+03  0.33558037775E+03  0.00000000000E+00 0.  1.
         23    2    1    2    0    0 -0.11953079074E+03  0.67697397443E+02  0.40423395043E+02  0.17150247133E+03  0.94384846508E+02 0.  0.
         24    2    1    2    0    0  0.86224590056E+02 -0.17406060276E+03 -0.11848675442E+03  0.24118182840E+03  0.79986186372E+02 0.  0.
        -13    1    4    4    0    0  0.64512829390E+02 -0.73777649022E+02 -0.22234719653E+02  0.10049591738E+03  0.00000000000E+00 0.  1.
         14    1    4    4    0    0  0.21711760666E+02 -0.10028295374E+03 -0.96252034772E+02  0.14068591102E+03  0.00000000000E+00 0. -1.
        -13    1    3    3    0    0 -0.36677800571E+01 -0.20072139924E+02  0.11071565048E+02  0.23214714392E+02  0.00000000000E+00 0.  1.
         13    1    3    3    0    0 -0.11586301068E+03  0.87769537367E+02  0.29351829995E+02  0.14828775694E+03  0.00000000000E+00 0. -1.
          3    1    1    2  501    0  0.33306200682E+02  0.10636320532E+03 -0.55778796833E+02  0.12463429956E+03  0.00000000000E+00 0. -1.
<scales pt_clust_5="13000.00000" pt_clust_6="13000.00000" pt_clust_7="13000.00000" pt_clust_8="13000.00000" pt_clust_9="111.45598"></scales>
<clustering>
<clus scale="   79.986">  5  6 -1 -1</clus>
<clus scale="   94.385">  7  8 -1 -1</clus>
<clus scale="  111.456">  2  9  1 -1</clus>
<clus scale="  166.956">  2  5  1 -1</clus>
<clus scale="  111.456">  2  5  1 -1</clus>
</clustering>
</event>
<event>
 9    2  0.3745229E-005  0.1245465E+03  0.7546771E-02  0.1237995E+00
         21   -1    0    0  501  502  0.00000000000E+00  0.00000000000E+00  0.21080905803E+03  0.21080905803E+03  0.00000000000E+00 0.  1.
         -1   -1    0    0    0  501 -0.00000000000E+00 -0.00000000000E+00 -0.28243827335E+03  0.28243827335E+03  0.00000000000E+00 0.  1.
         23    2    1    2    0    0  0.83932621215E+02  0.67992677698E+01 -0.21100722315E+03  0.24454273629E+03  0.90477548076E+02 0.  0.
         24    2    1    2    0    0 -0.94681148333E+02  0.44010501693E+02  0.44337206963E+02  0.14039985218E+03  0.82733828999E+02 0.  0.
        -13    1    4    4    0    0 -0.85826865803E+02  0.51621509567E+02  0.60117223399E+01  0.10033529762E+03  0.00000000000E+00 0.  1.
         14    1    4    4    0    0 -0.88542825307E+01 -0.76110078739E+01  0.38325484623E+02  0.40064554554E+02  0.00000000000E+00 0. -1.
        -13    1    3    3    0    0  0.61122018906E+02 -0.35561684983E+02 -0.15713800171E+03  0.17231623898E+03  0.00000000000E+00 0. -1.
         13    1    3    3    0    0  0.22810602309E+02  0.42360952753E+02 -0.53869221437E+02  0.72226497312E+02  0.00000000000E+00 0.  1.
         -2    1    1    2    0  502  0.10748527119E+02 -0.50809769463E+02  0.95040800862E+02  0.10830474291E+03  0.00000000000E+00 0.  1.
<scales pt_clust_5="13000.00000" pt_clust_6="13000.00000" pt_clust_7="13000.00000" pt_clust_8="13000.00000" pt_clust_9="51.93422"></scales>
<clustering>
<clus scale="   51.934">  1  9  2 -1</clus>
<clus scale="   82.734">  5  6 -1 -1</clus>
<clus scale="   90.478">  7  8 -1 -1</clus>
<clus scale="  119.040">  1  5  2 -1</clus>
<clus scale="   51.934">  1  5  2 -1</clus>
</clustering>
</event>
<event>
 9    2  0.3745229E-005  0.1792903E+03  0.7546771E-02  0.1180408E+00
         -3   -1    0    0    0  501 -0.00000000000E+00  0.00000000000E+00  0.23165054668E+03  0.23165054668E+03  0.00000000000E+00 0.  1.
         21   -1    0    0  501  502  0.00000000000E+00 -0.00000000000E+00 -0.69484503003E+03  0.69484503003E+03  0.00000000000E+00 0.  1.
         23    2    1    2    0    0  0.39700882129E+02  0.95196982753E+02  0.12882762377E+03  0.18791362575E+03  0.89868506888E+02 0.  0.
         24    2    1    2    0    0  0.12087413935E+03 -0.12637867921E+03 -0.92732947149E+02  0.21318086515E+03  0.79148933391E+02 0.  0.
        -11    1    4    4    0    0  0.10523813897E+03 -0.60952965004E+02 -0.41070169952E+02  0.12836311268E+03  0.00000000000E+00 0.  1.
         12    1    4    4    0    0  0.15636000385E+02 -0.65425714201E+02 -0.51662777197E+02  0.84817752472E+02  0.00000000000E+00 0. -1.
        -13    1    3    3    0    0  0.32583426879E+02  0.41550681566E+02  0.12254105197E+03  0.13343331018E+03  0.00000000000E+00 0.  1.
         13    1    3    3    0    0  0.71174552501E+01  0.53646301187E+02  0.62865717941E+01  0.54480315575E+02  0.00000000000E+00 0. -1.
         -4    1    1    2    0  502 -0.16057502148E+03  0.31181696452E+02 -0.49928915997E+03  0.52540108582E+03  0.00000000000E+00 0.  1.
<scales pt_clust_5="13000.00000" pt_clust_6="13000.00000" pt_clust_7="13000.00000" pt_clust_8="13000.00000" pt_clust_9="160.87409"></scales>
<clustering>
<clus scale="   79.149">  5  6 -1 -1</clus>
<clus scale="   89.869">  7  8 -1 -1</clus>
<clus scale="  136.803">  1  7  2 -1</clus>
<clus scale="  160.874">  2  9  1 -1</clus>
<clus scale="  160.874">  2  5  1 -1</clus>
</clustering>
</event>
<event>
 9    2  0.3745229E-005  0.1924870E+03  0.7546771E-02  0.1170919E+00
         -1   -1    0    0    0  501 -0.00000000000E+00  0.00000000000E+00  0.65068309347E+03  0.65068309347E+03  0.00000000000E+00 0.  1.
         21   -1    0    0  501  502  0.00000000000E+00 -0.00000000000E+00 -0.18098924491E+03  0.18098924491E+03  0.00000000000E+00 0.  1.
         23    2    1    2    0    0 -0.58270898261E+02 -0.84418777277E+02  0.42338984822E+03  0.44502082402E+03  0.90898529655E+02 0.  0.
         24    2    1    2    0    0 -0.31198779723E+02 -0.12560438249E+03  0.43194078504E+02  0.15834421590E+03  0.80357560527E+02 0.  0.
        -11    1    4    4    0    0 -0.46710797304E+02 -0.92985764825E+02  0.58203611653E+02  0.11923049717E+03  0.00000000000E+00 0.  1.
         12    1    4    4    0    0  0.15512017581E+02 -0.32618617665E+02 -0.15009533149E+02  0.39113718734E+02  0.00000000000E+00 0. -1.
        -13    1    3    3    0    0 -0.69968194093E+02 -0.54125145880E+02  0.38357116844E+03  0.39363932840E+03  0.00000000000E+00 0.  1.
         13    1    3    3    0    0  0.11697295832E+02 -0.30293631397E+02  0.39818679776E+02  0.51381495619E+02  0.00000000000E+00 0. -1.
         -2    1    1    2    0  502  0.89469677984E+02  0.21002315977E+03  0.31099218361E+01  0.22830729846E+03  0.00000000000E+00 0.  1.
<scales pt_clust_5="13000.00000" pt_clust_6="13000.00000" pt_clust_7="13000.00000" pt_clust_8="13000.00000" pt_clust_9="174.91127"></scales>
<clustering>
<clus scale="   80.358">  5  6 -1 -1</clus>
<clus scale="   90.899">  7  8 -1 -1</clus>
<clus scale="  137.057">  1  7  2 -1</clus>
<clus scale="  174.911">  2  9  1 -1</clus>
<clus scale="  174.911">  2  5  1 -1</clus>
</clustering>
</event>
<event>
 9    2  0.3745229E-005  0.1202174E+03  0.7546771E-02  0.1245124E+00
         21   -1    0    0  501  502  0.00000000000E+00  0.00000000000E+00  0.31615744978E+03  0.31615744978E+03  0.00000000000E+00 0.  1.
         -1   -1    0    0    0  501 -0.00000000000E+00 -0.00000000000E+00 -0.99122448735E+02  0.99122448735E+02  0.00000000000E+00 0.  1.
         24    2    1    2    0    0 -0.10243187629E+03  0.71660768457E+01  0.64816059083E+02  0.14490664775E+03  0.79077007474E+02 0.  0.
         23    2    1    2    0    0  0.36847250729E+02 -0.81130258412E+02  0.82967061645E+02  0.14967583491E+03  0.87060229284E+02 0.  0.
        -11    1    3    3    0    0 -0.86923862092E+02 -0.18756877583E+02  0.71338008559E+02  0.11400302506E+03  0.00000000000E+00 0.  1.
         12    1    3    3    0    0 -0.15508014197E+02  0.25922954429E+02 -0.65219494767E+01  0.30903622694E+02  0.00000000000E+00 0. -1.
        -13    1    4    4    0    0  0.44367961709E+02 -0.25774474550E+02  0.78302782792E+02  0.93617121070E+02  0.00000000000E+00 0.  1.
         13    1    4    4    0    0 -0.75207109802E+01 -0.55355783862E+02  0.46642788535E+01  0.56058713844E+02  0.00000000000E+00 0. -1.
         -2    1    1    2    0  502  0.65584625560E+02  0.73964181566E+02  0.69251880319E+02  0.12069741585E+03  0.00000000000E+00 0.  1.
<scales pt_clust_5="13000.00000" pt_clust_6="13000.00000" pt_clust_7="13000.00000" pt_clust_8="13000.00000" pt_clust_9="98.85365"></scales>
<clustering>
<clus scale="   79.077">  5  6 -1 -1</clus>
<clus scale="   87.060">  7  8 -1 -1</clus>
<clus scale="   98.854">  1  9  2 -1</clus>
<clus scale="  114.568">  2  5  1 -1</clus>
<clus scale="   98.854">  1  5  2 -1</clus>
</clustering>
</event>
<event>
 9    2  0.3745229E-005  0.9894114E+02  0.7546771E-02  0.1288990E+00
         21   -1    0    0  501  502  0.00000000000E+00  0.00000000000E+00  0.99543272638E+02  0.99543272638E+02  0.00000000000E+00 0.  1.
         -1   -1    0    0    0  501 -0.00000000000E+00 -0.00000000000E+00 -0.21118097439E+03  0.21118097439E+03  0.00000000000E+00 0.  1.
         24    2    1    2    0    0 -0.40157499638E+02  0.35890088330E+02 -0.10160307846E+03  0.13890409374E+03  0.77913018734E+02 0.  0.
         23    2    1    2    0    0  0.21596753421E+02 -0.70926187952E+01 -0.60238371522E+02  0.11104012459E+03  0.90468352838E+02 0.  0.
        -13    1    3    3    0    0 -0.59451871370E+01 -0.19915249777E+02 -0.54304829851E+02  0.58146168996E+02  0.00000000000E+00 0.  1.
         14    1    3    3    0    0 -0.34212312501E+02  0.55805338107E+02 -0.47298248613E+02  0.80757924749E+02  0.00000000000E+00 0. -1.
        -11    1    4    4    0    0 -0.25595400837E+02 -0.11366155388E+02  0.69197407103E+01  0.28847822168E+02  0.00000000000E+00 0. -1.
         11    1    4    4    0    0  0.47192154258E+02  0.42735365932E+01 -0.67158112232E+02  0.82192302420E+02  0.00000000000E+00 0.  1.
         -2    1    1    2    0  502  0.18560746217E+02 -0.28797469534E+02  0.50203748232E+02  0.60780028696E+02  0.00000000000E+00 0.  1.
<scales pt_clust_5="13000.00000" pt_clust_6="13000.00000" pt_clust_7="13000.00000" pt_clust_8="13000.00000" pt_clust_9="34.26070"></scales>
<clustering>
<clus scale="   34.261">  1  9  2 -1</clus>
<clus scale="   77.913">  5  6 -1 -1</clus>
<clus scale="   87.609">  2  5  1 -1</clus>
<clus scale="   90.468">  7  8 -1 -1</clus>
<clus scale="   34.261">  1  5  2 -1</clus>
</clustering>
</event>
<event>
 9    2  0.3745229E-005  0.2327793E+03  0.7546771E-02  0.1147405E+00
         21   -1    0    0  501  502  0.00000000000E+00  0.00000000000E+00  0.14487371960E+03  0.14487371960E+03  0.00000000000E+00 0. -1.
          2   -1    0    0  502    0 -0.00000000000E+00 -0.00000000000E+00 -0.61543992493E+03  0.61543992493E+03  0.00000000000E+00 0. -1.
         24    2    1    2    0    0  0.10575231406E+03 -0.18770755303E+02 -0.14439505369E+03  0.19704685227E+03  0.80259811080E+02 0.  0.
         23    2    1    2    0    0  0.12444190140E+03  0.12844221257E+03 -0.16864642520E+03  0.26354818289E+03  0.95041249867E+02 0.  0.
        -13    1    3    3    0    0  0.33578045238E+02  0.20100870833E+02 -0.91417215864E+02  0.99441628539E+02  0.00000000000E+00 0.  1.
         14    1    3    3    0    0  0.72174268819E+02 -0.38871626136E+02 -0.52977837828E+02  0.97605223728E+02  0.00000000000E+00 0. -1.
        -11    1    4    4    0    0  0.45246228435E+01  0.59534110496E+02 -0.26832474569E+02  0.65458110391E+02  0.00000000000E+00 0.  1.
         11    1    4    4    0    0  0.11991727856E+03  0.68908102073E+02 -0.14181395063E+03  0.19809007250E+03  0.00000000000E+00 0. -1.
          1    1    1    2  501    0 -0.23019421546E+03 -0.10967145727E+03 -0.15752472644E+03  0.29971860938E+03  0.00000000000E+00 0. -1.
<scales pt_clust_5="13000.00000" pt_clust_6="13000.00000" pt_clust_7="13000.00000" pt_clust_8="13000.00000" pt_clust_9="212.49329"></scales>
<clustering>
<clus scale="   80.260">  5  6 -1 -1</clus>
<clus scale="   95.041">  7  8 -1 -1</clus>
<clus scale="  134.080">  2  5  1 -1</clus>
<clus scale="  212.493">  1  9  2 -1</clus>
<clus scale="  212.493">  1  5  2 -1</clus>
</clustering>
</event>
<event>
 9    2  0.3745229E-005  0.9632244E+02  0.7546771E-02  0.1306996E+00
         21   -1    0    0  501  502  0.00000000000E+00  0.00000000000E+00  0.36613080989E+02  0.36613080989E+02  0.00000000000E+00 0. -1.
          2   -1    0    0  502    0 -0.00000000000E+00 -0.00000000000E+00 -0.64548109238E+03  0.64548109238E+03  0.00000000000E+00 0. -1.
         24    2    1    2    0    0 -0.11296695523E+02  0.11236516741E+02 -0.39916736280E+03  0.40508430589E+03  0.67118080427E+02 0.  0.
         23    2    1    2    0    0 -0.23177340700E+02 -0.83457851460E+01 -0.21979428734E+03  0.24097242798E+03  0.95662641857E+02 0.  0.
        -13    1    3    3    0    0  0.86376898331E+01  0.33298732666E+02 -0.13771544340E+03  0.14194702756E+03  0.00000000000E+00 0.  1.
         14    1    3    3    0    0 -0.19934385356E+02 -0.22062215925E+02 -0.26145191940E+03  0.26313727833E+03  0.00000000000E+00 0. -1.
        -11    1    4    4    0    0 -0.83273852563E+01  0.37638387095E+02 -0.15741293378E+03  0.16206426271E+03  0.00000000000E+00 0.  1.
         11    1    4    4    0    0 -0.14849955444E+02 -0.45984172241E+02 -0.62381353565E+02  0.78908165268E+02  0.00000000000E+00 0. -1.
          1    1    1    2  501    0  0.34474036223E+02 -0.28907315946E+01  0.10093638743E+02  0.36037439500E+02  0.00000000000E+00 0. -1.
<scales pt_clust_5="13000.00000" pt_clust_6="13000.00000" pt_clust_7="13000.00000" pt_clust_8="13000.00000" pt_clust_9="34.59502"></scales>
<clustering>
<clus scale="   34.595">  1  9  2 -1</clus>
<clus scale="   67.118">  5  6 -1 -1</clus>
<clus scale="   68.055">  2  5  1 -1</clus>
<clus scale="   95.663">  7  8 -1 -1</clus>
<clus scale="   34.595">  1  5  2 -1</clus>
</clustering>
</event>
<event>
 9    2  0.3745229E-005  0.1119372E+03  0.7546771E-02  0.1260356E+00
         21   -1    0    0  501  502  0.00000000000E+00  0.00000000000E+00  0.16165358566E+03  0.16165358566E+03  0.00000000000E+00 0. -1.
         -3   -1    0    0    0  501 -0.00000000000E+00 -0.00000000000E+00 -0.26747683575E+03  0.26747683575E+03  0.00000000000E+00 0.  1.
         23    2    1    2    0    0  0.19628741320E+02  0.62292783587E+02 -0.13043176023E+03  0.17296121447E+03  0.92937932314E+02 0.  0.
         24    2    1    2    0    0 -0.35294597092E+02 -0.33828525627E+02  0.12048965658E+03  0.15493271519E+03  0.84239605670E+02 0.  0.
        -13    1    4    4    0    0 -0.38869543595E+02  0.16519052157E+01  0.11970382455E+02  0.40704548471E+02  0.00000000000E+00 0.  1.
         14    1    4    4    0    0  0.35749465030E+01 -0.35480430842E+02  0.10851927413E+03  0.11422816672E+03  0.00000000000E+00 0. -1.
        -13    1    3    3    0    0 -0.25190468184E+02  0.38881909618E+02 -0.18037500255E+02  0.49716335327E+02  0.00000000000E+00 0. -1.
         13    1    3    3    0    0  0.44819209504E+02  0.23410873969E+02 -0.11239425998E+03  0.12324487915E+03  0.00000000000E+00 0.  1.
         -4    1    1    2    0  502  0.15665855772E+02 -0.28464257961E+02 -0.95881146441E+02  0.10123649175E+03  0.00000000000E+00 0.  1.
<scales pt_clust_5="13000.00000" pt_clust_6="13000.00000" pt_clust_7="13000.00000" pt_clust_8="13000.00000" pt_clust_9="32.49052"></scales>
<clustering>
<clus scale="   32.491">  1  9  2 -1</clus>
<clus scale="   84.240">  5  6 -1 -1</clus>
<clus scale="   92.938">  7  8 -1 -1</clus>
<clus scale="  104.827">  1  5  2 -1</clus>
<clus scale="   32.491">  1  5  2 -1</clus>
</clustering>
</event>
<event>
 9    2  0.3745229E-005  0.9536430E+02  0.7546771E-02  0.1293339E+00
         21   -1    0    0  501  502  0.00000000000E+00  0.00000000000E+00  0.27230048548E+02  0.27230048548E+02  0.00000000000E+00 0.  1.
          2   -1    0    0  502    0 -0.00000000000E+00 -0.00000000000E+00 -0.67487954803E+03  0.67487954803E+03  0.00000000000E+00 0. -1.
         23    2    1    2    0    0  0.37734590063E+01 -0.14335573324E+02 -0.21566522286E+03  0.23436323954E+03  0.90525643006E+02 0.  0.
         24    2    1    2    0    0 -0.14175710817E+02  0.54762794803E+02 -0.14288450011E+03  0.17564834633E+03  0.85067307027E+02 0.  0.
        -11    1    4    4    0    0  0.30877222358E+02  0.19454774478E+02 -0.23937023896E+02  0.43644841889E+02  0.00000000000E+00 0.  1.
         12    1    4    4    0    0 -0.45052933175E+02  0.35308020326E+02 -0.11894747621E+03  0.13200350444E+03  0.00000000000E+00 0. -1.
        -13    1    3    3    0    0  0.45054101017E+02 -0.21215909674E+02 -0.11224045564E+03  0.12279212810E+03  0.00000000000E+00 0. -1.
         13    1    3    3    0    0 -0.41280642011E+02  0.68803363504E+01 -0.10342476722E+03  0.11157111144E+03  0.00000000000E+00 0.  1.
          1    1    1    2  501    0  0.10402251811E+02 -0.40427221480E+02 -0.28909977651E+03  0.29209801071E+03  0.00000000000E+00 0. -1.
<scales pt_clust_5="13000.00000" pt_clust_6="13000.00000" pt_clust_7="13000.00000" pt_clust_8="13000.00000" pt_clust_9="41.74409"></scales>
<clustering>
<clus scale="   41.744">  1  9  2 -1</clus>
<clus scale="   85.067">  5  6 -1 -1</clus>
<clus scale="   90.199">  1  5  2 -1</clus>
<clus scale="   90.526">  7  8 -1 -1</clus>
<clus scale="   41.744">  1  5  2 -1</clus>
</clustering>
</event>
<event>
 9    2  0.3745229E-005  0.1210083E+03  0.7546771E-02  0.1242347E+00
         21   -1    0    0  501  502  0.00000000000E+00  0.00000000000E+00  0.10722138915E+03  0.10722138915E+03  0.00000000000E+00 0. -1.
         -1   -1    0    0    0  501 -0.00000000000E+00 -0.00000000000E+00 -0.29586775190E+03  0.29586775190E+03  0.00000000000E+00 0.  1.
         23    2    1    2    0    0  0.75596251226E+02  0.38741609723E+02 -0.22892201761E+03  0.25969344124E+03  0.88428998372E+02 0.  0.
         24    2    1    2    0    0 -0.55554921562E+02 -0.44024961812E+02  0.48471607529E+02  0.12110798248E+03  0.85399649365E+02 0.  0.
        -13    1    4    4    0    0  0.14175184734E+02 -0.31904850468E+02  0.34270749854E+02  0.48921770626E+02  0.00000000000E+00 0.  1.
         14    1    4    4    0    0 -0.69730106297E+02 -0.12120111343E+02  0.14200857675E+02  0.72186211854E+02  0.00000000000E+00 0. -1.
        -11    1    3    3    0    0  0.44301575758E+01 -0.24811617224E+02 -0.30835209605E+02  0.39825278364E+02  0.00000000000E+00 0. -1.
         11    1    3    3    0    0  0.71166093650E+02  0.63553226947E+02 -0.19808680800E+03  0.21986816287E+03  0.00000000000E+00 0.  1.
         -2    1    1    2    0  502 -0.20041329664E+02  0.52833520883E+01 -0.81959526737E+01  0.22287717339E+02  0.00000000000E+00 0.  1.
<scales pt_clust_5="13000.00000" pt_clust_6="13000.00000" pt_clust_7="13000.00000" pt_clust_8="13000.00000" pt_clust_9="20.72604"></scales>
<clustering>
<clus scale="   20.726">  1  9  2 -1</clus>
<clus scale="   85.400">  5  6 -1 -1</clus>
<clus scale="   88.429">  7  8 -1 -1</clus>
<clus scale="  118.813">  1  5  2 -1</clus>
<clus scale="   20.726">  1  5  2 -1</clus>
</clustering>
</event>
<event>
 9    2  0.3745229E-005  0.1979666E+03  0.7546771E-02  0.1152518E+00
         21   -1    0    0  501  502  0.00000000000E+00  0.00000000000E+00  0.56172304072E+02  0.56172304072E+02  0.00000000000E+00 0. -1.
          2   -1    0    0  502    0 -0.00000000000E+00 -0.00000000000E+00 -0.15871511307E+04  0.15871511307E+04  0.00000000000E+00 0. -1.
         24    2    1    2    0    0 -0.10235044594E+03 -0.95394575161E+02 -0.28892395826E+03  0.33077700343E+03  0.79753580394E+02 0.  0.
         23    2    1    2    0    0  0.23620592100E+03  0.43572720776E+02 -0.56770552385E+03  0.62309024619E+03  0.90884949130E+02 0.  0.
        -11    1    3    3    0    0 -0.66014343583E+02 -0.21750920548E+02 -0.78238693672E+02  0.10465318577E+03  0.00000000000E+00 0.  1.
         12    1    3    3    0    0 -0.36336102353E+02 -0.73643654613E+02 -0.21068526459E+03  0.22612381766E+03  0.00000000000E+00 0. -1.
        -11    1    4    4    0    0  0.46889345197E+02  0.26336914824E+02 -0.58037376141E+02  0.79123832091E+02  0.00000000000E+00 0. -1.
         11    1    4    4    0    0  0.18931657580E+03  0.17235805952E+02 -0.50966814770E+03  0.54396641410E+03  0.00000000000E+00 0.  1.
          1    1    1    2  501    0 -0.13385547506E+03  0.51821854385E+02 -0.67434934453E+03  0.68945618517E+03  0.00000000000E+00 0. -1.
<scales pt_clust_5="13000.00000" pt_clust_6="13000.00000" pt_clust_7="13000.00000" pt_clust_8="13000.00000" pt_clust_9="143.53680"></scales>
<clustering>
<clus scale="   79.754">  5  6 -1 -1</clus>
<clus scale="   90.885">  7  8 -1 -1</clus>
<clus scale="  143.537">  1  9  2 -1</clus>
<clus scale="  193.110">  2  5  1 -1</clus>
<clus scale="  143.537">  1  5  2 -1</clus>
</clustering>
</event>
<event>
 9    2  0.3745229E-005  0.1590325E+03  0.7546771E-02  0.1196193E+00
         21   -1    0    0  501  502  0.00000000000E+00  0.00000000000E+00  0.38224874982E+03  0.38224874982E+03  0.00000000000E+00 0.  1.
         -3   -1    0    0    0  501 -0.00000000000E+00 -0.00000000000E+00 -0.14335933946E+03  0.14335933946E+03  0.00000000000E+00 0.  1.
         23    2    1    2    0    0 -0.16905210741E+02  0.10184965382E+03  0.22881676016E+02  0.14004619177E+03  0.91816265432E+02 0.  0.
         24    2    1    2    0    0  0.12664406838E+03  0.10799056269E+02  0.52357528212E+02  0.15859551515E+03  0.79094165366E+02 0.  0.
        -11    1    4    4    0    0  0.64772995995E+02  0.40817612084E+02  0.84993537696E+01  0.77031535626E+02  0.00000000000E+00 0.  1.
         12    1    4    4    0    0  0.61871072381E+02 -0.30018555815E+02  0.43858174443E+02  0.81563979527E+02  0.00000000000E+00 0. -1.
        -13    1    3    3    0    0 -0.57679039030E+01  0.57969504907E+02 -0.33919322992E+02  0.67411072435E+02  0.00000000000E+00 0. -1.
         13    1    3    3    0    0 -0.11137306838E+02  0.43880148910E+02  0.56800999007E+02  0.72635119331E+02  0.00000000000E+00 0.  1.
         -4    1    1    2    0  502 -0.10973885764E+03 -0.11264871009E+03  0.16365020613E+03  0.22696638237E+03  0.00000000000E+00 0.  1.
<scales pt_clust_5="13000.00000" pt_clust_6="13000.00000" pt_clust_7="13000.00000" pt_clust_8="13000.00000" pt_clust_9="137.96898"></scales>
<clustering>
<clus scale="   79.094">  5  6 -1 -1</clus>
<clus scale="   91.816">  7  8 -1 -1</clus>
<clus scale="  138.164">  2  7  1 -1</clus>
<clus scale="  137.969">  1  9  2 -1</clus>
<clus scale="  137.969">  1  5  2 -1</clus>
</clustering>
</event>
<event>
 9    2  0.3745229E-005  0.1049265E+03  0.7546771E-02  0.1274815E+00
         21   -1    0    0  501  502  0.00000000000E+00  0.00000000000E+00  0.25626582712E+02  0.25626582712E+02  0.00000000000E+00 0.  1.
          2   -1    0    0  502    0 -0.00000000000E+00 -0.00000000000E+00 -0.71856504093E+03  0.71856504093E+03  0.00000000000E+00 0. -1.
         24    2    1    2    0    0  0.36439080529E+02 -0.65774140684E+02 -0.26687911369E+03  0.28865889001E+03  0.80283555516E+02 0.  0.
         23    2    1    2    0    0 -0.42839766304E+01  0.28488042363E+02 -0.17012477969E+03  0.19490521146E+03  0.90640387110E+02 0.  0.
        -11    1    3    3    0    0  0.10534792271E+02 -0.79631270340E+02 -0.18571918761E+03  0.20234558979E+03  0.00000000000E+00 0.  1.
         12    1    3    3    0    0  0.25904288257E+02  0.13857129656E+02 -0.81159926085E+02  0.86313300218E+02  0.00000000000E+00 0. -1.
        -13    1    4    4    0    0  0.26372465994E+02  0.17555682224E+02 -0.12668753749E+02  0.34120466916E+02  0.00000000000E+00 0.  1.
         13    1    4    4    0    0 -0.30656442625E+02  0.10932360139E+02 -0.15745602594E+03  0.16078474454E+03  0.00000000000E+00 0. -1.
          1    1    1    2  501    0 -0.32155103898E+02  0.37286098320E+02 -0.25593456483E+03  0.26062752217E+03  0.00000000000E+00 0. -1.
<scales pt_clust_5="13000.00000" pt_clust_6="13000.00000" pt_clust_7="13000.00000" pt_clust_8="13000.00000" pt_clust_9="49.23623"></scales>
<clustering>
<clus scale="   49.236">  1  9  2 -1</clus>
<clus scale="   80.284">  5  6 -1 -1</clus>
<clus scale="   90.640">  7  8 -1 -1</clus>
<clus scale="   96.122">  2  5  1 -1</clus>
<clus scale="   49.236">  1  5  2 -1</clus>
</clustering>
</event>
<event>
 9    2  0.3745229E-005  0.1438037E+03  0.7546771E-02  0.1210163E+00
          2   -1    0    0  502    0 -0.00000000000E+00  0.00000000000E+00  0.26230244537E+03  0.26230244537E+03  0.00000000000E+00 0. -1.
         21   -1    0    0  501  502  0.00000000000E+00 -0.00000000000E+00 -0.87405612787E+03  0.87405612787E+03  0.00000000000E+00 0. -1.
         23    2    1    2    0    0  0.70352514344E+02 -0.92002656325E+02  0.22455322469E+03  0.26880631930E+03  0.91753591396E+02 0.  0.
         24    2    1    2    0    0  0.21369819438E+02  0.75140292985E+02 -0.26062943626E+03  0.28436971275E+03  0.82678278119E+02 0.  0.
        -13    1    4    4    0    0 -0.11539574154E+02  0.64107451619E+02 -0.22654319747E+03  0.23572175853E+03  0.00000000000E+00 0.  1.
         14    1    4    4    0    0  0.32909393592E+02  0.11032841366E+02 -0.34086238794E+02  0.48647954225E+02  0.00000000000E+00 0. -1.
        -11    1    3    3    0    0  0.17417641234E+02  0.14842551048E+02  0.13979589606E+02  0.26816123383E+02  0.00000000000E+00 0.  1.
         11    1    3    3    0    0  0.52934873111E+02 -0.10684520737E+03  0.21057363508E+03  0.24199019592E+03  0.00000000000E+00 0. -1.
          1    1    1    2  501    0 -0.91722333782E+02  0.16862363340E+02 -0.57567747093E+03  0.58318254118E+03  0.00000000000E+00 0. -1.
<scales pt_clust_5="13000.00000" pt_clust_6="13000.00000" pt_clust_7="13000.00000" pt_clust_8="13000.00000" pt_clust_9="93.25945"></scales>
<clustering>
<clus scale="   82.678">  5  6 -1 -1</clus>
<clus scale="   91.754">  7  8 -1 -1</clus>
<clus scale="   93.259">  2  9  1 -1</clus>
<clus scale="  138.190">  2  5  1 -1</clus>
<clus scale="   93.259">  2  5  1 -1</clus>
</clustering>
</event>
<event>
 9    2  0.3745229E-005  0.1451622E+03  0.7546771E-02  0.1233668E+00
         21   -1    0    0  501  502  0.00000000000E+00  0.00000000000E+00  0.41816184843E+02  0.41816184843E+02  0.00000000000E+00 0. -1.
         -1   -1    0    0    0  501 -0.00000000000E+00 -0.00000000000E+00 -0.73049473640E+03  0.73049473640E+03  0.00000000000E+00 0.  1.
         24    2    1    2    0    0 -0.69615213530E+01 -0.15152720431E+02 -0.18115957330E+03  0.19891173483E+03  0.80430215339E+02 0.  0.
         23    2    1    2    0    0 -0.77595694623E+02 -0.72663085917E+02 -0.21546656068E+03  0.25692461677E+03  0.91013208112E+02 0.  0.
        -13    1    3    3    0    0  0.31465294533E+02  0.11146817663E+02 -0.98969463041E+02  0.10444745530E+03  0.00000000000E+00 0.  1.
         14    1    3    3    0    0 -0.38426815886E+02 -0.26299538094E+02 -0.82190110261E+02  0.94464279533E+02  0.00000000000E+00 0. -1.
        -11    1    4    4    0    0 -0.52307700614E+02  0.90676330619E+01 -0.65960431573E+02  0.84670514621E+02  0.00000000000E+00 0.  1.
         11    1    4    4    0    0 -0.25287994009E+02 -0.81730718979E+02 -0.14950612911E+03  0.17225410215E+03  0.00000000000E+00 0. -1.
         -2    1    1    2    0  502  0.84557215976E+02  0.87815806348E+02 -0.29205241757E+03  0.31647456964E+03  0.00000000000E+00 0.  1.
<scales pt_clust_5="13000.00000" pt_clust_6="13000.00000" pt_clust_7="13000.00000" pt_clust_8="13000.00000" pt_clust_9="113.08696"></scales>
<clustering>
<clus scale="   80.430">  5  6 -1 -1</clus>
<clus scale="   82.141">  2  5  1 -1</clus>
<clus scale="   91.013">  7  8 -1 -1</clus>
<clus scale="  113.087">  1  9  2 -1</clus>
<clus scale="  113.087">  1  5  2 -1</clus>
</clustering>
</event>
<event>
 9    2  0.3745229E-005  0.1334412E+03  0.7546771E-02  0.1225007E+00
         -1   -1    0    0    0  501 -0.00000000000E+00  0.00000000000E+00  0.41746000277E+03  0.41746000277E+03  0.00000000000E+00 0.  1.
         21   -1    0    0  501  502  0.00000000000E+00 -0.00000000000E+00 -0.16936239729E+03  0.16936239729E+03  0.00000000000E+00 0. -1.
         23    2    1    2    0    0  0.20505162548E+02  0.96115438541E+02  0.32976421458E+03  0.35581179083E+03  0.90548075935E+02 0.  0.
         24    2    1    2    0    0  0.45182725403E+02 -0.10515318781E+03 -0.87003918882E+02  0.16448943658E+03  0.79927600141E+02 0.  0.
        -13    1    4    4    0    0  0.40279014333E+02 -0.88035899291E+02 -0.25012808478E+02  0.99991795401E+02  0.00000000000E+00 0.  1.
         14    1    4    4    0    0  0.49037110696E+01 -0.17117288517E+02 -0.61991110404E+02  0.64497641178E+02  0.00000000000E+00 0. -1.
        -11    1    3    3    0    0  0.32036195074E+02  0.73230953228E+02  0.31749205192E+03  0.32739928732E+03  0.00000000000E+00 0.  1.
         11    1    3    3    0    0 -0.11531032526E+02  0.22884485312E+02  0.12272162663E+02  0.28412503507E+02  0.00000000000E+00 0. -1.
         -2    1    1    2    0  502 -0.65687887951E+02  0.90377492680E+01  0.53373097814E+01  0.66521172652E+02  0.00000000000E+00 0.  1.
<scales pt_clust_5="13000.00000" pt_clust_6="13000.00000" pt_clust_7="13000.00000" pt_clust_8="13000.00000" pt_clust_9="66.30671"></scales>
<clustering>
<clus scale="   66.307">  2  9  1 -1</clus>
<clus scale="   79.928">  5  6 -1 -1</clus>
<clus scale="   90.548">  7  8 -1 -1</clus>
<clus scale="  126.475">  2  5  1 -1</clus>
<clus scale="   66.307">  2  5  1 -1</clus>
</clustering>
</event>
<event>
 9    2  0.3745229E-005  0.1155015E+03  0.7546771E-02  0.1256494E+00
         -3   -1    0    0    0  501 -0.00000000000E+00  0.00000000000E+00  0.10310053999E+03  0.10310053999E+03  0.00000000000E+00 0.  1.
         21   -1    0    0  501  502  0.00000000000E+00 -0.00000000000E+00 -0.19617953424E+03  0.19617953424E+03  0.00000000000E+00 0.  1.
         23    2    1    2    0    0 -0.27542553033E+02 -0.84663212894E+02 -0.51233548988E+02  0.13408798923E+03  0.86187356778E+02 0.  0.
         24    2    1    2    0    0  0.89681658870E+00  0.65973302745E+02 -0.73196638118E+02  0.12000131928E+03  0.68478375004E+02 0.  0.
        -13    1    4    4    0    0 -0.15118207530E+02  0.67581521717E+02 -0.33021414812E+02  0.76721809889E+02  0.00000000000E+00 0.  1.
         14    1    4    4    0    0  0.16015024119E+02 -0.16082189723E+01 -0.40175223306E+02  0.43279509395E+02  0.00000000000E+00 0. -1.
        -13    1    3    3    0    0 -0.46563481294E+02 -0.74782064259E+02 -0.11366359265E+02  0.88824034180E+02  0.00000000000E+00 0.  1.
         13    1    3    3    0    0  0.19020928261E+02 -0.98811486348E+01 -0.39867189723E+02  0.45263955049E+02  0.00000000000E+00 0. -1.
         -4    1    1    2    0  502  0.26645736445E+02  0.18689910149E+02  0.31351192862E+02  0.45190765715E+02  0.00000000000E+00 0.  1.
<scales pt_clust_5="13000.00000" pt_clust_6="13000.00000" pt_clust_7="13000.00000" pt_clust_8="13000.00000" pt_clust_9="32.54703"></scales>
<clustering>
<clus scale="   32.547">  2  9  1 -1</clus>
<clus scale="   68.478">  5  6 -1 -1</clus>
<clus scale="   86.187">  7  8 -1 -1</clus>
<clus scale="  102.964">  2  5  1 -1</clus>
<clus scale="   32.547">  2  5  1 -1</clus>
</clustering>
</event>
<event>
 9    2  0.3745229E-005  0.1143283E+03  0.7546771E-02  0.1257141E+00
         21   -1    0    0  501  502  0.00000000000E+00  0.00000000000E+00  0.22205209560E+03  0.22205209560E+03  0.00000000000E+00 0. -1.
         -1   -1    0    0    0  501 -0.00000000000E+00 -0.00000000000E+00 -0.23312867873E+03  0.23312867873E+03  0.00000000000E+00 0.  1.
         23    2    1    2    0    0 -0.69174666520E+02 -0.41428284891E+01 -0.19003085336E+03  0.22219704154E+03  0.91964680850E+02 0.  0.
         24    2    1    2    0    0  0.51174586831E+02  0.44372905082E+02  0.13371109609E+03  0.16982198220E+03  0.79831418476E+02 0.  0.
        -13    1    4    4    0    0  0.21839697282E+02 -0.21759641355E+02  0.27502479571E+02  0.41313929271E+02  0.00000000000E+00 0.  1.
         14    1    4    4    0    0  0.29334889549E+02  0.66132546437E+02  0.10620861652E+03  0.12850805293E+03  0.00000000000E+00 0. -1.
        -11    1    3    3    0    0 -0.26611927532E+02 -0.40188234813E+02 -0.13701307793E+03  0.14524418208E+03  0.00000000000E+00 0.  1.
         11    1    3    3    0    0 -0.42562738988E+02  0.36045406324E+02 -0.53017775430E+02  0.76952859458E+02  0.00000000000E+00 0. -1.
         -2    1    1    2    0  502  0.18000079689E+02 -0.40230076593E+02  0.45243174142E+02  0.63161750593E+02  0.00000000000E+00 0.  1.
<scales pt_clust_5="13000.00000" pt_clust_6="13000.00000" pt_clust_7="13000.00000" pt_clust_8="13000.00000" pt_clust_9="44.07337"></scales>
<clustering>
<clus scale="   44.073">  1  9  2 -1</clus>
<clus scale="   79.831">  5  6 -1 -1</clus>
<clus scale="   91.965">  7  8 -1 -1</clus>
<clus scale="  104.817">  1  5  2 -1</clus>
<clus scale="   44.073">  1  5  2 -1</clus>
</clustering>
</event>
<event>
 9    2  0.3745229E-005  0.1961281E+03  0.7546771E-02  0.1162223E+00
         21   -1    0    0  501  502  0.00000000000E+00  0.00000000000E+00  0.11167812859E+03  0.11167812859E+03  0.00000000000E+00 0. -1.
          2   -1    0    0  502    0 -0.00000000000E+00 -0.00000000000E+00 -0.92952225205E+03  0.92952225205E+03  0.00000000000E+00 0. -1.
         24    2    1    2    0    0 -0.84799740818E+02  0.10646332462E+03 -0.55238767652E+02  0.16762841962E+03  0.80762182245E+02 0.  0.
         23    2    1    2    0    0  0.22760608658E+03 -0.25935058895E+02 -0.56774904003E+03  0.61892036025E+03  0.90809041102E+02 0.  0.
        -13    1    3    3    0    0 -0.43000311110E+02  0.18223726744E+02 -0.52058732402E+02  0.69937419106E+02  0.00000000000E+00 0.  1.
         14    1    3    3    0    0 -0.41799429708E+02  0.88239597878E+02 -0.31800352498E+01  0.97691000515E+02  0.00000000000E+00 0. -1.
        -13    1    4    4    0    0  0.11211709285E+03 -0.17443160626E+02 -0.39480998748E+03  0.41079122748E+03  0.00000000000E+00 0. -1.
         13    1    4    4    0    0  0.11548899373E+03 -0.84918982683E+01 -0.17293905255E+03  0.20812913277E+03  0.00000000000E+00 0.  1.
          1    1    1    2  501    0 -0.14280634577E+03 -0.80528265728E+02 -0.19485631578E+03  0.25465160076E+03  0.00000000000E+00 0. -1.
<scales pt_clust_5="13000.00000" pt_clust_6="13000.00000" pt_clust_7="13000.00000" pt_clust_8="13000.00000" pt_clust_9="173.83883"></scales>
<clustering>
<clus scale="   80.762">  5  6 -1 -1</clus>
<clus scale="   90.809">  7  8 -1 -1</clus>
<clus scale="  158.266">  2  5  1 -1</clus>
<clus scale="  173.839">  1  9  2 -1</clus>
<clus scale="  173.839">  1  5  2 -1</clus>
</clustering>
</event>
<event>
 9    2  0.3745229E-005  0.1055279E+03  0.7546771E-02  0.1274138E+00
         21   -1    0    0  501  502  0.00000000000E+00  0.00000000000E+00  0.20545677293E+03  0.20545677293E+03  0.00000000000E+00 0.  1.
          4   -1    0    0  502    0 -0.00000000000E+00 -0.00000000000E+00 -0.80185841257E+02  0.80185841257E+02  0.00000000000E+00 0. -1.
         24    2    1    2    0    0 -0.89722331571E+01  0.48139985679E+02  0.48565638398E+02  0.10642796313E+03  0.81057577769E+02 0.  0.
         23    2    1    2    0    0 -0.39799742647E+02 -0.50503619557E+02  0.60141269339E+02  0.12765246261E+03  0.92431292475E+02 0.  0.
        -11    1    3    3    0    0 -0.16237753006E+02  0.66263567623E+02  0.53016030646E+02  0.86401530787E+02  0.00000000000E+00 0.  1.
         12    1    3    3    0    0  0.72655198492E+01 -0.18123581944E+02 -0.44503922484E+01  0.20026432342E+02  0.00000000000E+00 0. -1.
        -11    1    4    4    0    0 -0.47442883513E+02  0.81083014698E+01  0.79157239378E+01  0.48777355752E+02  0.00000000000E+00 0. -1.
         11    1    4    4    0    0  0.76431408659E+01 -0.58611921027E+02  0.52225545401E+02  0.78875106854E+02  0.00000000000E+00 0.  1.
          3    1    1    2  501    0  0.48771975804E+02  0.23636338787E+01  0.16564023935E+02  0.51562188451E+02  0.00000000000E+00 0. -1.
<scales pt_clust_5="13000.00000" pt_clust_6="13000.00000" pt_clust_7="13000.00000" pt_clust_8="13000.00000" pt_clust_9="48.82924"></scales>
<clustering>
<clus scale="   48.829">  1  9  2 -1</clus>
<clus scale="   81.058">  5  6 -1 -1</clus>
<clus scale="   92.431">  7  8 -1 -1</clus>
<clus scale="   95.723">  2  5  1 -1</clus>
<clus scale="   48.829">  1  5  2 -1</clus>
</clustering>
</event>
<event>
 9    2  0.3745229E-005  0.1747833E+03  0.7546771E-02  0.1173309E+00
          2   -1    0    0  502    0 -0.00000000000E+00  0.00000000000E+00  0.66017525011E+03  0.66017525011E+03  0.00000000000E+00 0. -1.
         21   -1    0    0  501  502  0.00000000000E+00 -0.00000000000E+00 -0.67197818857E+02  0.67197818857E+02  0.00000000000E+00 0.  1.
         23    2    1    2    0    0  0.91044522623E+02  0.13633585783E+03  0.36720902511E+03  0.41191291555E+03  0.89180775090E+02 0.  0.
         24    2    1    2    0    0 -0.66530322001E+02 -0.10557529192E+03  0.95311773780E+02  0.17920270821E+03  0.86353056686E+02 0.  0.
        -11    1    4    4    0    0 -0.27479982981E+02  0.51574829472E+01 -0.17897832301E-01  0.27959782105E+02  0.00000000000E+00 0.  1.
         12    1    4    4    0    0 -0.39050339020E+02 -0.11073277486E+03  0.95329671612E+02  0.15124292610E+03  0.00000000000E+00 0. -1.
        -13    1    3    3    0    0  0.10345975651E+02  0.94462267506E+02  0.17001412391E+03  0.19476899528E+03  0.00000000000E+00 0. -1.
         13    1    3    3    0    0  0.80698546972E+02  0.41873590321E+02  0.19719490120E+03  0.21714392027E+03  0.00000000000E+00 0.  1.
          1    1    1    2  501    0 -0.24514200622E+02 -0.30760565912E+02  0.13045663237E+03  0.13625744521E+03  0.00000000000E+00 0. -1.
<scales pt_clust_5="13000.00000" pt_clust_6="13000.00000" pt_clust_7="13000.00000" pt_clust_8="13000.00000" pt_clust_9="39.33395"></scales>
<clustering>
<clus scale="   39.334">  2  9  1 -1</clus>
<clus scale="   86.353">  5  6 -1 -1</clus>
<clus scale="   89.181">  7  8 -1 -1</clus>
<clus scale="  173.358">  2  5  1 -1</clus>
<clus scale="   39.334">  2  5  1 -1</clus>
</clustering>
</event>
<event>
 9    2  0.3745229E-005  0.1445704E+03  0.7546771E-02  0.1224301E+00
          2   -1    0    0  502    0 -0.00000000000E+00  0.00000000000E+00  0.10960485218E+04  0.10960485218E+04  0.00000000000E+00 0. -1.
         21   -1    0    0  501  502  0.00000000000E+00 -0.00000000000E+00 -0.56158073224E+02  0.56158073224E+02  0.00000000000E+00 0.  1.
         23    2    1    2    0    0 -0.61151259129E+00 -0.41590976471E+02  0.67018149574E+02  0.12115375259E+03  0.91959861478E+02 0.  0.
         24    2    1    2    0    0  0.11614034158E+03  0.78053223130E+01  0.83896220490E+03  0.85099647888E+03  0.82388857432E+02 0.  0.
        -13    1    4    4    0    0  0.82444074664E+02  0.21674123265E+02  0.33349411683E+03  0.34421667453E+03  0.00000000000E+00 0.  1.
         14    1    4    4    0    0  0.33696266918E+02 -0.13868800952E+02  0.50546808807E+03  0.50677980435E+03  0.00000000000E+00 0. -1.
        -11    1    3    3    0    0 -0.36195092034E+02 -0.39042183788E+01  0.58096221521E+02  0.68560182056E+02  0.00000000000E+00 0.  1.
         11    1    3    3    0    0  0.35583579443E+02 -0.37686758092E+02  0.89219280527E+01  0.52593570535E+02  0.00000000000E+00 0. -1.
          1    1    1    2  501    0 -0.11552882899E+03  0.33785654158E+02  0.13391009415E+03  0.18005636359E+03  0.00000000000E+00 0. -1.
<scales pt_clust_5="13000.00000" pt_clust_6="13000.00000" pt_clust_7="13000.00000" pt_clust_8="13000.00000" pt_clust_9="118.79678"></scales>
<clustering>
<clus scale="   82.389">  5  6 -1 -1</clus>
<clus scale="   91.960">  7  8 -1 -1</clus>
<clus scale="  100.930">  1  7  2 -1</clus>
<clus scale="  118.797">  2  9  1 -1</clus>
<clus scale="  118.797">  2  5  1 -1</clus>
</clustering>
</event>
<event>
 9    2  0.3745229E-005  0.9732715E+02  0.7546771E-02  0.1295896E+00
          2   -1    0    0  502    0 -0.00000000000E+00  0.00000000000E+00  0.49841190435E+03  0.49841190435E+03  0.00000000000E+00 0. -1.
         21   -1    0    0  501  502  0.00000000000E+00 -0.00000000000E+00 -0.35071743272E+02  0.35071743272E+02  0.00000000000E+00 0. -1.
         24    2    1    2    0    0 -0.20057904347E+02  0.32698297360E+02  0.34935582105E+03  0.35934276258E+03  0.74874783065E+02 0.  0.
         23    2    1    2    0    0  0.41453262768E+01  0.19514366090E+00  0.96451694272E+02  0.13361210181E+03  0.92369056567E+02 0.  0.
        -11    1    3    3    0    0  0.51221537694E+01 -0.22297774145E+02  0.75686547130E+02  0.79068834616E+02  0.00000000000E+00 0.  1.
         12    1    3    3    0    0 -0.25180058116E+02  0.54996071505E+02  0.27366927392E+03  0.28027392797E+03  0.00000000000E+00 0. -1.
        -13    1    4    4    0    0  0.14495501325E+02  0.39655903355E+02  0.78304485145E+02  0.88962366332E+02  0.00000000000E+00 0. -1.
         13    1    4    4    0    0 -0.10350175048E+02 -0.39460759694E+02  0.18147209127E+02  0.44649735478E+02  0.00000000000E+00 0.  1.
          1    1    1    2  501    0  0.15912578070E+02 -0.32893441021E+02  0.17532645752E+02  0.40528783230E+02  0.00000000000E+00 0. -1.
<scales pt_clust_5="13000.00000" pt_clust_6="13000.00000" pt_clust_7="13000.00000" pt_clust_8="13000.00000" pt_clust_9="36.54023"></scales>
<clustering>
<clus scale="   36.540">  2  9  1 -1</clus>
<clus scale="   74.875">  5  6 -1 -1</clus>
<clus scale="   80.912">  1  5  2 -1</clus>
<clus scale="   92.369">  7  8 -1 -1</clus>
<clus scale="   36.540">  2  5  1 -1</clus>
</clustering>
</event>
