<event>
 9    1  0.3312826E-006  0.3648163E+03  0.7546771E-02  0.1093687E+00
         -2   -1    0    0    0  501 -0.00000000000E+00  0.00000000000E+00  0.14678775789E+03  0.14678775789E+03  0.00000000000E+00 0.  1.
         21   -1    0    0  501  502  0.00000000000E+00 -0.00000000000E+00 -0.55977186306E+03  0.55977186306E+03  0.00000000000E+00 0.  1.
         23    2    1    2    0    0 -0.54432431487E+02  0.90928773818E+02  0.25845108808E+02  0.13589155960E+03  0.81040821908E+02 0.  0.
         23    2    1    2    0    0 -0.10402884304E+03 -0.20243521139E+01 -0.60403319347E+02  0.15088224758E+03  0.91053794326E+02 0.  0.
        -11    1    4    4    0    0 -0.40632322219E+01 -0.33151128925E+02 -0.17803254340E+02  0.37847893867E+02  0.00000000000E+00 0. -1.
         11    1    4    4    0    0 -0.99965610817E+02  0.31126776811E+02 -0.42600065007E+02  0.11303435371E+03  0.00000000000E+00 0.  1.
        -13    1    3    3    0    0 -0.71694117298E+02  0.48588680704E+02  0.86384823275E+01  0.87037519063E+02  0.00000000000E+00 0.  1.
         13    1    3    3    0    0  0.17261685811E+02  0.42340093114E+02  0.17206626480E+02  0.48854040537E+02  0.00000000000E+00 0. -1.
         -2    1    1    2    0  502  0.15846127453E+03 -0.88904421704E+02 -0.37842589463E+03  0.41978581378E+03  0.00000000000E+00 0.  1.
<scales pt_clust_5="13000.00000" pt_clust_6="13000.00000" pt_clust_7="13000.00000" pt_clust_8="13000.00000" pt_clust_9="13000.00000"></scales>
<clustering>
<clus scale="   81.041">  7  8 -1 -1</clus>
<clus scale="   91.054">  5  6 -1 -1</clus>
<clus scale="  133.411">  1  7  2 -1</clus>
<clus scale="  153.738">  5  9 -1 -1</clus>
<clus scale="  364.816">  2  5  1 -1</clus>
</clustering>
</event>
<event>
 9    1  0.3312826E-006  0.2304985E+03  0.7546771E-02  0.1160147E+00
         21   -1    0    0  501  502  0.00000000000E+00  0.00000000000E+00  0.22787217708E+03  0.22787217708E+03  0.00000000000E+00 0.  1.
         -4   -1    0    0    0  501 -0.00000000000E+00 -0.00000000000E+00 -0.13078742109E+03  0.13078742109E+03  0.00000000000E+00 0.  1.
         23    2    1    2    0    0 -0.36228740806E+02  0.12516850676E+02 -0.13148955569E+02  0.10315805838E+03  0.94865677491E+02 0.  0.
         23    2    1    2    0    0 -0.37630921436E+02 -0.74014264220E+02  0.22940757629E+02  0.12566610016E+03  0.91495862270E+02 0.  0.
        -11    1    3    3    0    0  0.14967685867E+02  0.40923868484E+02 -0.87388655031E+01  0.44442799216E+02  0.00000000000E+00 0. -1.
         11    1    3    3    0    0 -0.51196426673E+02 -0.28407017808E+02 -0.44100900655E+01  0.58715259168E+02  0.00000000000E+00 0.  1.
        -11    1    4    4    0    0 -0.32912309705E+02 -0.15726375333E+02  0.49459572877E+02  0.61455580384E+02  0.00000000000E+00 0.  1.
         11    1    4    4    0    0 -0.47186117308E+01 -0.58287888887E+02 -0.26518815248E+02  0.64210519775E+02  0.00000000000E+00 0. -1.
         -4    1    1    2    0  502  0.73859662242E+02  0.61497413544E+02  0.87292953930E+02  0.12983543963E+03  0.00000000000E+00 0.  1.
<scales pt_clust_5="13000.00000" pt_clust_6="13000.00000" pt_clust_7="13000.00000" pt_clust_8="13000.00000" pt_clust_9="13000.00000"></scales>
<clustering>
<clus scale="   91.496">  7  8 -1 -1</clus>
<clus scale="   94.866">  5  6 -1 -1</clus>
<clus scale="   96.110">  7  9 -1 -1</clus>
<clus scale="  102.317">  2  5  1 -1</clus>
<clus scale="  230.499">  1  5  2 -1</clus>
</clustering>
</event>
<event>
 9    1  0.3312826E-006  0.1691992E+03  0.7546771E-02  0.1204567E+00
         21   -1    0    0  501  502  0.00000000000E+00  0.00000000000E+00  0.29459766590E+03  0.29459766590E+03  0.00000000000E+00 0.  1.
         -1   -1    0    0    0  501 -0.00000000000E+00 -0.00000000000E+00 -0.72562463889E+02  0.72562463889E+02  0.00000000000E+00 0.  1.
         23    2    1    2    0    0 -0.14949277645E+02  0.23742996788E+02  0.10428105108E+02  0.96224854712E+02  0.91450896604E+02 0.  0.
         23    2    1    2    0    0 -0.47661410101E+02 -0.21340359647E+02  0.10872598704E+03  0.15047617973E+03  0.89970658807E+02 0.  0.
        -13    1    4    4    0    0 -0.72543100835E+02 -0.25787096524E+02  0.92893370001E+02  0.12065095945E+03  0.00000000000E+00 0.  1.
         13    1    4    4    0    0  0.24881690734E+02  0.44467368763E+01  0.15832617042E+02  0.29825220285E+02  0.00000000000E+00 0. -1.
        -13    1    3    3    0    0 -0.46462302344E+02 -0.12019416897E+02  0.50591636638E+01  0.48257715017E+02  0.00000000000E+00 0.  1.
         13    1    3    3    0    0  0.31513024700E+02  0.35762413685E+02  0.53689414445E+01  0.47967139695E+02  0.00000000000E+00 0. -1.
         -1    1    1    2    0  502  0.62610687745E+02 -0.24026371404E+01  0.10288110986E+03  0.12045909535E+03  0.00000000000E+00 0.  1.
<scales pt_clust_5="13000.00000" pt_clust_6="13000.00000" pt_clust_7="13000.00000" pt_clust_8="13000.00000" pt_clust_9="13000.00000"></scales>
<clustering>
<clus scale="   89.971">  5  6 -1 -1</clus>
<clus scale="   62.657">  5  9 -1 -1</clus>
<clus scale="   91.451">  7  8 -1 -1</clus>
<clus scale="   95.658">  2  7  1 -1</clus>
<clus scale="  169.199">  1  5  2 -1</clus>
</clustering>
</event>
<event>
 9    1  0.3312826E-006  0.1699834E+03  0.7546771E-02  0.1203735E+00
         21   -1    0    0  501  502  0.00000000000E+00  0.00000000000E+00  0.79544153442E+02  0.79544153442E+02  0.00000000000E+00 0. -1.
         -1   -1    0    0    0  501 -0.00000000000E+00 -0.00000000000E+00 -0.22275337372E+03  0.22275337372E+03  0.00000000000E+00 0.  1.
         23    2    1    2    0    0 -0.34114115714E+01  0.20215851765E+02 -0.46206821592E+02  0.10658390646E+03  0.93833578012E+02 0.  0.
         23    2    1    2    0    0 -0.52113818309E+02 -0.24952180579E+02 -0.40798916248E+02  0.11656619243E+03  0.92653463386E+02 0.  0.
        -11    1    3    3    0    0 -0.27730532619E+02  0.49960299305E+02 -0.22331056522E+02  0.61348920376E+02  0.00000000000E+00 0. -1.
         11    1    3    3    0    0  0.24319121048E+02 -0.29744447540E+02 -0.23875765071E+02  0.45234986081E+02  0.00000000000E+00 0.  1.
        -13    1    4    4    0    0 -0.96100488439E+01 -0.55464293726E+02 -0.27135845878E+02  0.62489959584E+02  0.00000000000E+00 0.  1.
         13    1    4    4    0    0 -0.42503769466E+02  0.30512113147E+02 -0.13663070370E+02  0.54076232851E+02  0.00000000000E+00 0. -1.
         -1    1    1    2    0  502  0.55525229881E+02  0.47363288142E+01 -0.56203482440E+02  0.79147428274E+02  0.00000000000E+00 0.  1.
<scales pt_clust_5="13000.00000" pt_clust_6="13000.00000" pt_clust_7="13000.00000" pt_clust_8="13000.00000" pt_clust_9="13000.00000"></scales>
<clustering>
<clus scale="   92.653">  7  8 -1 -1</clus>
<clus scale="   55.727">  7  9 -1 -1</clus>
<clus scale="   93.834">  5  6 -1 -1</clus>
<clus scale="   96.047">  2  5  1 -1</clus>
<clus scale="  169.983">  1  5  2 -1</clus>
</clustering>
</event>
<event>
 9    1  0.3312826E-006  0.3548163E+03  0.7546771E-02  0.1102026E+00
         21   -1    0    0  501  502  0.00000000000E+00  0.00000000000E+00  0.17097060226E+03  0.17097060226E+03  0.00000000000E+00 0. -1.
          1   -1    0    0  502    0 -0.00000000000E+00 -0.00000000000E+00 -0.36519742371E+03  0.36519742371E+03  0.00000000000E+00 0. -1.
         23    2    1    2    0    0 -0.43585642231E+01  0.53816135437E+02  0.24653232897E+02  0.11927106238E+03  0.10345352055E+03 0.  0.
         23    2    1    2    0    0  0.16096338062E+00 -0.14907481471E+03 -0.26020357753E+03  0.31297646802E+03  0.89582595893E+02 0.  0.
        -11    1    4    4    0    0 -0.30009344361E+02 -0.10798919571E+03 -0.12198356638E+03  0.16565692742E+03  0.00000000000E+00 0. -1.
         11    1    4    4    0    0  0.30170307742E+02 -0.41085619000E+02 -0.13822001116E+03  0.14731954060E+03  0.00000000000E+00 0.  1.
        -11    1    3    3    0    0 -0.51378733179E+02  0.18881787516E+02  0.26173240328E+02  0.60674002935E+02  0.00000000000E+00 0. -1.
         11    1    3    3    0    0  0.47020168956E+02  0.34934347921E+02 -0.15200074310E+01  0.58597059448E+02  0.00000000000E+00 0.  1.
          1    1    1    2  501    0  0.41976008424E+01  0.95258679268E+02  0.41323523191E+02  0.10392049556E+03  0.00000000000E+00 0. -1.
<scales pt_clust_5="13000.00000" pt_clust_6="13000.00000" pt_clust_7="13000.00000" pt_clust_8="13000.00000" pt_clust_9="13000.00000"></scales>
<clustering>
<clus scale="   89.583">  5  6 -1 -1</clus>
<clus scale="   95.351">  5  9 -1 -1</clus>
<clus scale="  103.454">  7  8 -1 -1</clus>
<clus scale="  116.695">  2  7  1 -1</clus>
<clus scale="  354.816">  1  5  2 -1</clus>
</clustering>
</event>
<event>
 9    1  0.3312826E-006  0.1407684E+03  0.7546771E-02  0.1225080E+00
          1   -1    0    0  502    0 -0.00000000000E+00  0.00000000000E+00  0.64035364037E+03  0.64035364037E+03  0.00000000000E+00 0. -1.
         21   -1    0    0  501  502  0.00000000000E+00 -0.00000000000E+00 -0.27718841218E+02  0.27718841218E+02  0.00000000000E+00 0. -1.
         23    2    1    2    0    0  0.14683072811E+02  0.52386077571E+02  0.39087693406E+03  0.40540863559E+03  0.92798116797E+02 0.  0.
         23    2    1    2    0    0  0.19822670843E+02 -0.50845054255E+02  0.16513242145E+03  0.19633540590E+03  0.91108271715E+02 0.  0.
        -11    1    4    4    0    0  0.67855517010E+01  0.26710059515E+02  0.42650321762E+02  0.50779138803E+02  0.00000000000E+00 0.  1.
         11    1    4    4    0    0  0.13037119142E+02 -0.77555113771E+02  0.12248209968E+03  0.14555626709E+03  0.00000000000E+00 0. -1.
        -11    1    3    3    0    0 -0.32280034976E+02  0.49007814898E+02  0.25289409900E+03  0.25961354335E+03  0.00000000000E+00 0. -1.
         11    1    3    3    0    0  0.46963107788E+02  0.33782626733E+01  0.13798283506E+03  0.14579509224E+03  0.00000000000E+00 0.  1.
          1    1    1    2  501    0 -0.34505743655E+02 -0.15410233158E+01  0.56625443650E+02  0.66328440103E+02  0.00000000000E+00 0. -1.
<scales pt_clust_5="13000.00000" pt_clust_6="13000.00000" pt_clust_7="13000.00000" pt_clust_8="13000.00000" pt_clust_9="13000.00000"></scales>
<clustering>
<clus scale="   91.108">  5  6 -1 -1</clus>
<clus scale="   34.540">  5  9 -1 -1</clus>
<clus scale="   92.798">  7  8 -1 -1</clus>
<clus scale="  107.570">  1  7  2 -1</clus>
<clus scale="  140.768">  2  5  1 -1</clus>
</clustering>
</event>
<event>
 9    1  0.3312826E-006  0.2815660E+03  0.7546771E-02  0.1121522E+00
         -1   -1    0    0    0  501 -0.00000000000E+00  0.00000000000E+00  0.37494979967E+03  0.37494979967E+03  0.00000000000E+00 0.  1.
         21   -1    0    0  501  502  0.00000000000E+00 -0.00000000000E+00 -0.12508157707E+03  0.12508157707E+03  0.00000000000E+00 0.  1.
         23    2    1    2    0    0  0.23195891457E+02 -0.10348919447E+03  0.13420277434E+03  0.19563378310E+03  0.94942770631E+02 0.  0.
         23    2    1    2    0    0 -0.47408960416E+02 -0.44285599022E+02  0.10577929606E+03  0.15432628291E+03  0.91752483970E+02 0.  0.
        -11    1    4    4    0    0  0.27624351171E+02 -0.16325253075E+02  0.26080817705E+02  0.41350063092E+02  0.00000000000E+00 0. -1.
         11    1    4    4    0    0 -0.75033311586E+02 -0.27960345947E+02  0.79698478352E+02  0.11297621982E+03  0.00000000000E+00 0.  1.
        -13    1    3    3    0    0 -0.99620332394E+01 -0.10509408237E+03  0.11913796313E+03  0.15917871250E+03  0.00000000000E+00 0.  1.
         13    1    3    3    0    0  0.33157924697E+02  0.16048878956E+01  0.15064811214E+02  0.36455070597E+02  0.00000000000E+00 0. -1.
         -1    1    1    2    0  502  0.24213068959E+02  0.14777479349E+03  0.98861521975E+01  0.15007131074E+03  0.00000000000E+00 0.  1.
<scales pt_clust_5="13000.00000" pt_clust_6="13000.00000" pt_clust_7="13000.00000" pt_clust_8="13000.00000" pt_clust_9="13000.00000"></scales>
<clustering>
<clus scale="   91.752">  5  6 -1 -1</clus>
<clus scale="   94.943">  7  8 -1 -1</clus>
<clus scale="  142.345">  1  7  2 -1</clus>
<clus scale="  113.293">  5  9 -1 -1</clus>
<clus scale="  281.566">  2  5  1 -1</clus>
</clustering>
</event>
<event>
 9    1  0.3312826E-006  0.3637747E+03  0.7546771E-02  0.1094344E+00
         21   -1    0    0  501  502  0.00000000000E+00  0.00000000000E+00  0.62815341743E+02  0.62815341743E+02  0.00000000000E+00 0. -1.
          2   -1    0    0  502    0 -0.00000000000E+00 -0.00000000000E+00 -0.98601218317E+03  0.98601218317E+03  0.00000000000E+00 0. -1.
         23    2    1    2    0    0  0.90174090146E+02  0.26193072986E+02 -0.28603417253E+03  0.31513256433E+03  0.93142587669E+02 0.  0.
         23    2    1    2    0    0 -0.13210468960E+02 -0.12942089150E+03 -0.56283932053E+03  0.58502303448E+03  0.92409774829E+02 0.  0.
        -11    1    3    3    0    0  0.95124669780E+02 -0.10056498926E+02 -0.20441495219E+03  0.22568852130E+03  0.00000000000E+00 0. -1.
         11    1    3    3    0    0 -0.49505796334E+01  0.36249571912E+02 -0.81619220343E+02  0.89444043021E+02  0.00000000000E+00 0.  1.
        -13    1    4    4    0    0  0.26440899175E+02 -0.59325611221E+01 -0.14524558185E+03  0.14775180363E+03  0.00000000000E+00 0.  1.
         13    1    4    4    0    0 -0.39651368135E+02 -0.12348833038E+03 -0.41759373869E+03  0.43727123085E+03  0.00000000000E+00 0. -1.
          2    1    1    2  501    0 -0.76963621186E+02  0.10322781851E+03 -0.74323348360E+02  0.14867192611E+03  0.00000000000E+00 0. -1.
<scales pt_clust_5="13000.00000" pt_clust_6="13000.00000" pt_clust_7="13000.00000" pt_clust_8="13000.00000" pt_clust_9="13000.00000"></scales>
<clustering>
<clus scale="   92.410">  7  8 -1 -1</clus>
<clus scale="   93.143">  5  6 -1 -1</clus>
<clus scale="  128.761">  7  9 -1 -1</clus>
<clus scale="  132.261">  2  5  1 -1</clus>
<clus scale="  363.775">  1  5  2 -1</clus>
</clustering>
</event>
<event>
 9    1  0.3312826E-006  0.5877956E+03  0.7546771E-02  0.1011039E+00
          2   -1    0    0  502    0 -0.00000000000E+00  0.00000000000E+00  0.12514344199E+04  0.12514344199E+04  0.00000000000E+00 0. -1.
         21   -1    0    0  501  502  0.00000000000E+00 -0.00000000000E+00 -0.19870409639E+03  0.19870409639E+03  0.00000000000E+00 0. -1.
         23    2    1    2    0    0  0.64880760961E+01 -0.32193504504E+03  0.66923178928E+03  0.74830182481E+03  0.91652413319E+02 0.  0.
         23    2    1    2    0    0  0.99962369779E+02 -0.30190003119E+00  0.33179525918E+03  0.35855608491E+03  0.92096718172E+02 0.  0.
        -13    1    3    3    0    0  0.91000389950E+01 -0.25925793772E+03  0.44136310097E+03  0.51195593158E+03  0.00000000000E+00 0. -1.
         13    1    3    3    0    0 -0.26119628989E+01 -0.62677107314E+02  0.22786868831E+03  0.23634589323E+03  0.00000000000E+00 0.  1.
        -13    1    4    4    0    0  0.61165601703E+02  0.22809495663E+02  0.82498672762E+02  0.10520235231E+03  0.00000000000E+00 0.  1.
         13    1    4    4    0    0  0.38796768077E+02 -0.23111395694E+02  0.24929658642E+03  0.25335373260E+03  0.00000000000E+00 0. -1.
          2    1    1    2  501    0 -0.10645044588E+03  0.32223694507E+03  0.51703275052E+02  0.34328060657E+03  0.00000000000E+00 0. -1.
<scales pt_clust_5="13000.00000" pt_clust_6="13000.00000" pt_clust_7="13000.00000" pt_clust_8="13000.00000" pt_clust_9="13000.00000"></scales>
<clustering>
<clus scale="   91.652">  5  6 -1 -1</clus>
<clus scale="   92.097">  7  8 -1 -1</clus>
<clus scale="  334.790">  1  5  2 -1</clus>
<clus scale="  229.980">  7  9 -1 -1</clus>
<clus scale="  587.796">  2  5  1 -1</clus>
</clustering>
</event>
<event>
 9    1  0.3312826E-006  0.2803644E+03  0.7546771E-02  0.1137487E+00
         21   -1    0    0  501  502  0.00000000000E+00  0.00000000000E+00  0.84554554245E+02  0.84554554245E+02  0.00000000000E+00 0. -1.
          1   -1    0    0  502    0 -0.00000000000E+00 -0.00000000000E+00 -0.52951494449E+03  0.52951494449E+03  0.00000000000E+00 0. -1.
         23    2    1    2    0    0  0.22860743973E+02  0.31313023571E+02 -0.26142599979E+03  0.27897390289E+03  0.89329536364E+02 0.  0.
         23    2    1    2    0    0 -0.10001297621E+03  0.62238237178E+02 -0.56107317609E+02  0.15919231498E+03  0.91202897328E+02 0.  0.
        -11    1    4    4    0    0 -0.18540092801E+01  0.28227891646E+02  0.16220874264E+02  0.32609323499E+02  0.00000000000E+00 0.  1.
         11    1    4    4    0    0 -0.98158966929E+02  0.34010345532E+02 -0.72328191873E+02  0.12658299148E+03  0.00000000000E+00 0. -1.
        -13    1    3    3    0    0  0.32150055593E+01  0.58777439444E+02 -0.20432640248E+03  0.21263678515E+03  0.00000000000E+00 0.  1.
         13    1    3    3    0    0  0.19645738414E+02 -0.27464415873E+02 -0.57099597313E+02  0.66337117742E+02  0.00000000000E+00 0. -1.
          1    1    1    2  501    0  0.77152232236E+02 -0.93551260749E+02 -0.12742707284E+03  0.17590328087E+03  0.00000000000E+00 0. -1.
<scales pt_clust_5="13000.00000" pt_clust_6="13000.00000" pt_clust_7="13000.00000" pt_clust_8="13000.00000" pt_clust_9="13000.00000"></scales>
<clustering>
<clus scale="   89.330">  7  8 -1 -1</clus>
<clus scale="   91.203">  5  6 -1 -1</clus>
<clus scale="   97.380">  2  7  1 -1</clus>
<clus scale="  117.707">  5  9 -1 -1</clus>
<clus scale="  280.364">  1  5  2 -1</clus>
</clustering>
</event>
<event>
 9    1  0.3312826E-006  0.3125813E+03  0.7546771E-02  0.1118377E+00
         -3   -1    0    0    0  501 -0.00000000000E+00  0.00000000000E+00  0.73975991414E+02  0.73975991414E+02  0.00000000000E+00 0.  1.
         21   -1    0    0  501  502  0.00000000000E+00 -0.00000000000E+00 -0.61672263955E+03  0.61672263955E+03  0.00000000000E+00 0.  1.
         23    2    1    2    0    0 -0.37046869401E+02  0.52750501129E+02 -0.11503594116E+03  0.16094064737E+03  0.92268837178E+02 0.  0.
         23    2    1    2    0    0  0.34385360491E+02  0.36994404953E+02 -0.11983999027E+02  0.10444641839E+03  0.90633873736E+02 0.  0.
        -11    1    4    4    0    0 -0.80663561993E+01  0.56135946094E+02 -0.11550166545E+02  0.57876738794E+02  0.00000000000E+00 0.  1.
         11    1    4    4    0    0  0.42451716690E+02 -0.19141541142E+02 -0.43383248211E+00  0.46569679598E+02  0.00000000000E+00 0. -1.
        -13    1    3    3    0    0 -0.42757547474E+02  0.76070456247E+02 -0.99493225404E+02  0.13233980535E+03  0.00000000000E+00 0.  1.
         13    1    3    3    0    0  0.57106780735E+01 -0.23319955119E+02 -0.15542715760E+02  0.28600842015E+02  0.00000000000E+00 0. -1.
         -3    1    1    2    0  502  0.26615089104E+01 -0.89744906081E+02 -0.41572670795E+03  0.42531156521E+03  0.00000000000E+00 0.  1.
<scales pt_clust_5="13000.00000" pt_clust_6="13000.00000" pt_clust_7="13000.00000" pt_clust_8="13000.00000" pt_clust_9="13000.00000"></scales>
<clustering>
<clus scale="   90.634">  5  6 -1 -1</clus>
<clus scale="   89.784">  5  9 -1 -1</clus>
<clus scale="   92.269">  7  8 -1 -1</clus>
<clus scale="  112.555">  1  7  2 -1</clus>
<clus scale="  312.581">  2  5  1 -1</clus>
</clustering>
</event>
<event>
 9    1  0.3312826E-006  0.4325425E+03  0.7546771E-02  0.1037943E+00
         21   -1    0    0  501  502  0.00000000000E+00  0.00000000000E+00  0.11215370082E+03  0.11215370082E+03  0.00000000000E+00 0. -1.
          2   -1    0    0  502    0 -0.00000000000E+00 -0.00000000000E+00 -0.14692975379E+04  0.14692975379E+04  0.00000000000E+00 0. -1.
         23    2    1    2    0    0 -0.52941268062E+02  0.35888093041E+03 -0.54710199842E+03  0.66315890458E+03  0.94132013537E+02 0.  0.
         23    2    1    2    0    0  0.18210944536E+02 -0.17050415298E+03 -0.61431301948E+03  0.64442781234E+03  0.92213961642E+02 0.  0.
        -11    1    4    4    0    0 -0.89781836712E+01 -0.16626464232E+03 -0.50694159058E+03  0.53358627731E+03  0.00000000000E+00 0. -1.
         11    1    4    4    0    0  0.27189128207E+02 -0.42395106560E+01 -0.10737142890E+03  0.11084153503E+03  0.00000000000E+00 0.  1.
        -13    1    3    3    0    0  0.18731946205E+02  0.97314133245E+02 -0.10407410027E+03  0.14370923660E+03  0.00000000000E+00 0.  1.
         13    1    3    3    0    0 -0.71673214267E+02  0.26156679717E+03 -0.44302789815E+03  0.51944966798E+03  0.00000000000E+00 0. -1.
          2    1    1    2  501    0  0.34730323526E+02 -0.18837677744E+03 -0.19572881920E+03  0.27386452182E+03  0.00000000000E+00 0. -1.
<scales pt_clust_5="13000.00000" pt_clust_6="13000.00000" pt_clust_7="13000.00000" pt_clust_8="13000.00000" pt_clust_9="13000.00000"></scales>
<clustering>
<clus scale="   92.214">  5  6 -1 -1</clus>
<clus scale="   94.132">  7  8 -1 -1</clus>
<clus scale="  191.552">  5  9 -1 -1</clus>
<clus scale="  374.779">  2  7  1 -1</clus>
<clus scale="  432.543">  1  5  2 -1</clus>
</clustering>
</event>
<event>
 9    1  0.3312826E-006  0.3267369E+03  0.7546771E-02  0.1111650E+00
         21   -1    0    0  501  502  0.00000000000E+00  0.00000000000E+00  0.58214698999E+02  0.58214698999E+02  0.00000000000E+00 0. -1.
          3   -1    0    0  502    0 -0.00000000000E+00 -0.00000000000E+00 -0.11958044036E+04  0.11958044036E+04  0.00000000000E+00 0. -1.
         23    2    1    2    0    0  0.65707844824E+02  0.33212360486E+02 -0.69025441894E+03  0.70006435698E+03  0.90655166949E+02 0.  0.
         23    2    1    2    0    0  0.25076229071E+02 -0.78513599314E+02 -0.43400633780E+03  0.45162385506E+03  0.93858418167E+02 0.  0.
        -11    1    4    4    0    0  0.54792485116E+02 -0.70670766505E+02 -0.26061921672E+03  0.27553393582E+03  0.00000000000E+00 0. -1.
         11    1    4    4    0    0 -0.29716256045E+02 -0.78428328089E+01 -0.17338712109E+03  0.17608991924E+03  0.00000000000E+00 0.  1.
        -13    1    3    3    0    0 -0.23006388241E+02  0.93691264639E+01 -0.13643686255E+03  0.13867981790E+03  0.00000000000E+00 0.  1.
         13    1    3    3    0    0  0.88714233065E+02  0.23843234022E+02 -0.55381755639E+03  0.56138453908E+03  0.00000000000E+00 0. -1.
          3    1    1    2  501    0 -0.90784073895E+02  0.45301238828E+02 -0.13328947864E+02  0.10233089056E+03  0.00000000000E+00 0. -1.
<scales pt_clust_5="13000.00000" pt_clust_6="13000.00000" pt_clust_7="13000.00000" pt_clust_8="13000.00000" pt_clust_9="13000.00000"></scales>
<clustering>
<clus scale="   90.655">  7  8 -1 -1</clus>
<clus scale="   93.858">  5  6 -1 -1</clus>
<clus scale="  101.459">  5  9 -1 -1</clus>
<clus scale="  116.786">  2  7  1 -1</clus>
<clus scale="  326.737">  1  5  2 -1</clus>
</clustering>
</event>
<event>
 9    1  0.3312826E-006  0.2460300E+03  0.7546771E-02  0.1134309E+00
          1   -1    0    0  502    0 -0.00000000000E+00  0.00000000000E+00  0.41601086251E+03  0.41601086251E+03  0.00000000000E+00 0. -1.
         21   -1    0    0  501  502  0.00000000000E+00 -0.00000000000E+00 -0.97904828982E+02  0.97904828982E+02  0.00000000000E+00 0. -1.
         23    2    1    2    0    0 -0.11366076841E+03  0.55145057645E+02  0.99166488571E+02  0.18457503910E+03  0.90962656865E+02 0.  0.
         23    2    1    2    0    0  0.74119435956E+02  0.26528684986E+02  0.20446096631E+03  0.23745079198E+03  0.91548511480E+02 0.  0.
        -11    1    3    3    0    0 -0.10424719051E+03  0.31372481612E+02  0.11180666430E+03  0.15605268186E+03  0.00000000000E+00 0. -1.
         11    1    3    3    0    0 -0.94135778993E+01  0.23772576033E+02 -0.12640175731E+02  0.28522357242E+02  0.00000000000E+00 0.  1.
        -13    1    4    4    0    0  0.58072066303E+02  0.57062409265E+02  0.10972937850E+03  0.13663462205E+03  0.00000000000E+00 0. -1.
         13    1    4    4    0    0  0.16047369652E+02 -0.30533724279E+02  0.94731587806E+02  0.10081616993E+03  0.00000000000E+00 0.  1.
          1    1    1    2  501    0  0.39541332454E+02 -0.81673742630E+02  0.14478578648E+02  0.91889860416E+02  0.00000000000E+00 0. -1.
<scales pt_clust_5="13000.00000" pt_clust_6="13000.00000" pt_clust_7="13000.00000" pt_clust_8="13000.00000" pt_clust_9="13000.00000"></scales>
<clustering>
<clus scale="   90.963">  5  6 -1 -1</clus>
<clus scale="   91.549">  7  8 -1 -1</clus>
<clus scale="   90.742">  7  9 -1 -1</clus>
<clus scale="  155.673">  1  5  2 -1</clus>
<clus scale="  246.030">  2  5  1 -1</clus>
</clustering>
</event>
<event>
 9    1  0.3312826E-006  0.1466831E+03  0.7546771E-02  0.1216516E+00
         21   -1    0    0  501  502  0.00000000000E+00  0.00000000000E+00  0.23545388212E+02  0.23545388212E+02  0.00000000000E+00 0.  1.
         -1   -1    0    0    0  501 -0.00000000000E+00 -0.00000000000E+00 -0.77728852460E+03  0.77728852460E+03  0.00000000000E+00 0.  1.
         23    2    1    2    0    0 -0.14874715359E+02  0.67115424121E+02 -0.44034976670E+03  0.45481176909E+03  0.90664717286E+02 0.  0.
         23    2    1    2    0    0  0.75151843452E+01 -0.28946630401E+02 -0.27505496498E+03  0.29142495711E+03  0.91536257602E+02 0.  0.
        -11    1    4    4    0    0  0.46234357391E+02 -0.64847850828E+01 -0.94494839162E+02  0.10539896996E+03  0.00000000000E+00 0. -1.
         11    1    4    4    0    0 -0.38719173046E+02 -0.22461845318E+02 -0.18056012582E+03  0.18602598715E+03  0.00000000000E+00 0.  1.
        -11    1    3    3    0    0 -0.39495093612E+02  0.36186883317E+00 -0.10969936995E+03  0.11659307499E+03  0.00000000000E+00 0. -1.
         11    1    3    3    0    0  0.24620378253E+02  0.66753555288E+02 -0.33065039675E+03  0.33821869410E+03  0.00000000000E+00 0.  1.
         -1    1    1    2    0  502  0.73595310138E+01 -0.38168793720E+02 -0.38338404710E+02  0.54597186616E+02  0.00000000000E+00 0.  1.
<scales pt_clust_5="13000.00000" pt_clust_6="13000.00000" pt_clust_7="13000.00000" pt_clust_8="13000.00000" pt_clust_9="13000.00000"></scales>
<clustering>
<clus scale="   90.665">  7  8 -1 -1</clus>
<clus scale="   91.536">  5  6 -1 -1</clus>
<clus scale="   38.872">  5  9 -1 -1</clus>
<clus scale="  113.780">  2  7  1 -1</clus>
<clus scale="  146.683">  1  5  2 -1</clus>
</clustering>
</event>
<event>
 9    1  0.3312826E-006  0.3005601E+03  0.7546771E-02  0.1110278E+00
         21   -1    0    0  501  502  0.00000000000E+00  0.00000000000E+00  0.10710406802E+03  0.10710406802E+03  0.00000000000E+00 0. -1.
          1   -1    0    0  502    0 -0.00000000000E+00 -0.00000000000E+00 -0.51113290585E+03  0.51113290585E+03  0.00000000000E+00 0. -1.
         23    2    1    2    0    0 -0.11116327514E+03  0.64700722999E+02 -0.74740033834E+02  0.17240349500E+03  0.87140318641E+02 0.  0.
         23    2    1    2    0    0  0.67691637982E+02  0.90794562547E+01 -0.34193017227E+03  0.35927077167E+03  0.86571648302E+02 0.  0.
        -11    1    4    4    0    0  0.74552479782E+02 -0.22453307218E+02 -0.24974599287E+03  0.26160138418E+03  0.00000000000E+00 0. -1.
         11    1    4    4    0    0 -0.68608418008E+01  0.31532763473E+02 -0.92184179392E+02  0.97669387490E+02  0.00000000000E+00 0.  1.
        -13    1    3    3    0    0 -0.74516055624E+02 -0.48026772755E+01 -0.22267612199E+02  0.77920182288E+02  0.00000000000E+00 0.  1.
         13    1    3    3    0    0 -0.36647219516E+02  0.69503400274E+02 -0.52472421636E+02  0.94483312708E+02  0.00000000000E+00 0. -1.
          1    1    1    2  501    0  0.43471637159E+02 -0.73780179253E+02  0.12641368262E+02  0.86562707210E+02  0.00000000000E+00 0. -1.
<scales pt_clust_5="13000.00000" pt_clust_6="13000.00000" pt_clust_7="13000.00000" pt_clust_8="13000.00000" pt_clust_9="13000.00000"></scales>
<clustering>
<clus scale="   86.572">  5  6 -1 -1</clus>
<clus scale="   85.635">  5  9 -1 -1</clus>
<clus scale="   87.140">  7  8 -1 -1</clus>
<clus scale="  155.361">  2  7  1 -1</clus>
<clus scale="  300.560">  1  5  2 -1</clus>
</clustering>
</event>
<event>
 9    1  0.3312826E-006  0.2877460E+03  0.7546771E-02  0.1132879E+00
         21   -1    0    0  501  502  0.00000000000E+00  0.00000000000E+00  0.15128825699E+03  0.15128825699E+03  0.00000000000E+00 0. -1.
          1   -1    0    0  502    0 -0.00000000000E+00 -0.00000000000E+00 -0.25767428866E+03  0.25767428866E+03  0.00000000000E+00 0. -1.
         23    2    1    2    0    0 -0.24925287885E+02 -0.32383285365E+02 -0.60636616990E+02  0.11760233782E+03  0.92106261428E+02 0.  0.
         23    2    1    2    0    0  0.42716733212E+02  0.43709328308E+01 -0.15120703722E+03  0.18080462194E+03  0.89347181603E+02 0.  0.
        -11    1    3    3    0    0 -0.40968551072E+02 -0.56596039935E+02 -0.52632623225E+02  0.87474150129E+02  0.00000000000E+00 0. -1.
         11    1    3    3    0    0  0.16043263186E+02  0.24212754570E+02 -0.80039937651E+01  0.30128187694E+02  0.00000000000E+00 0.  1.
        -13    1    4    4    0    0  0.35871053700E+02 -0.30875818432E+02 -0.13169180206E+03  0.13993848430E+03  0.00000000000E+00 0. -1.
         13    1    4    4    0    0  0.68456795115E+01  0.35246751263E+02 -0.19515235157E+02  0.40866137642E+02  0.00000000000E+00 0.  1.
          1    1    1    2  501    0 -0.17791445327E+02  0.28012352534E+02  0.10545762253E+03  0.11055558589E+03  0.00000000000E+00 0. -1.
<scales pt_clust_5="13000.00000" pt_clust_6="13000.00000" pt_clust_7="13000.00000" pt_clust_8="13000.00000" pt_clust_9="13000.00000"></scales>
<clustering>
<clus scale="   89.347">  7  8 -1 -1</clus>
<clus scale="   33.185">  7  9 -1 -1</clus>
<clus scale="   92.106">  5  6 -1 -1</clus>
<clus scale="  100.765">  2  5  1 -1</clus>
<clus scale="  287.746">  1  5  2 -1</clus>
</clustering>
</event>
<event>
 9    1  0.3312826E-006  0.2229723E+03  0.7546771E-02  0.1167497E+00
          1   -1    0    0  502    0 -0.00000000000E+00  0.00000000000E+00  0.27732404622E+03  0.27732404622E+03  0.00000000000E+00 0. -1.
         21   -1    0    0  501  502  0.00000000000E+00 -0.00000000000E+00 -0.99841273379E+02  0.99841273379E+02  0.00000000000E+00 0. -1.
         23    2    1    2    0    0 -0.28477628748E+02 -0.43658555325E+00  0.10697218209E+03  0.14330979639E+03  0.91013647619E+02 0.  0.
         23    2    1    2    0    0  0.83167787587E+01  0.25797641898E+01  0.13539316615E+03  0.16587904436E+03  0.95439634979E+02 0.  0.
        -13    1    4    4    0    0  0.13788422032E+02  0.47976148472E+02  0.65398651014E+02  0.82272808137E+02  0.00000000000E+00 0.  1.
         13    1    4    4    0    0 -0.54716432734E+01 -0.45396384282E+02  0.69994515132E+02  0.83606236218E+02  0.00000000000E+00 0. -1.
        -13    1    3    3    0    0 -0.12876692999E+01  0.37901487227E+02  0.81404361002E+02  0.89804514455E+02  0.00000000000E+00 0.  1.
         13    1    3    3    0    0 -0.27189959448E+02 -0.38338072781E+02  0.25567821088E+02  0.53505281931E+02  0.00000000000E+00 0. -1.
          1    1    1    2  501    0  0.20160849989E+02 -0.21431786365E+01 -0.64882575399E+02  0.67976478854E+02  0.00000000000E+00 0. -1.
<scales pt_clust_5="13000.00000" pt_clust_6="13000.00000" pt_clust_7="13000.00000" pt_clust_8="13000.00000" pt_clust_9="13000.00000"></scales>
<clustering>
<clus scale="   91.014">  7  8 -1 -1</clus>
<clus scale="   95.366">  1  7  2 -1</clus>
<clus scale="   95.440">  5  6 -1 -1</clus>
<clus scale="   19.987">  5  9 -1 -1</clus>
<clus scale="  222.972">  2  5  1 -1</clus>
</clustering>
</event>
<event>
 9    1  0.3312826E-006  0.3348285E+03  0.7546771E-02  0.1104180E+00
         21   -1    0    0  501  502  0.00000000000E+00  0.00000000000E+00  0.19618043505E+03  0.19618043505E+03  0.00000000000E+00 0.  1.
         -1   -1    0    0    0  501 -0.00000000000E+00 -0.00000000000E+00 -0.27877658797E+03  0.27877658797E+03  0.00000000000E+00 0.  1.
         23    2    1    2    0    0 -0.34838432662E+01  0.95495420807E+02 -0.40680111741E+02  0.13751510849E+03  0.90133351278E+02 0.  0.
         23    2    1    2    0    0 -0.51762628281E+02  0.20391460741E+02 -0.13967860432E+03  0.17607444356E+03  0.91634686742E+02 0.  0.
        -11    1    3    3    0    0  0.34160508068E+02  0.82596482941E+02 -0.39456605637E+02  0.97703341980E+02  0.00000000000E+00 0.  1.
         11    1    3    3    0    0 -0.37644351334E+02  0.12898937866E+02 -0.12235061043E+01  0.39811766510E+02  0.00000000000E+00 0. -1.
        -11    1    4    4    0    0  0.20967569117E+02 -0.48600197149E+01 -0.69221916929E+01  0.22609190259E+02  0.00000000000E+00 0.  1.
         11    1    4    4    0    0 -0.72730197399E+02  0.25251480456E+02 -0.13275641262E+03  0.15346525330E+03  0.00000000000E+00 0. -1.
         -1    1    1    2    0  502  0.55246471547E+02 -0.11588688155E+03  0.97762563136E+02  0.16136747096E+03  0.00000000000E+00 0.  1.
<scales pt_clust_5="13000.00000" pt_clust_6="13000.00000" pt_clust_7="13000.00000" pt_clust_8="13000.00000" pt_clust_9="13000.00000"></scales>
<clustering>
<clus scale="   90.133">  5  6 -1 -1</clus>
<clus scale="   91.635">  7  8 -1 -1</clus>
<clus scale="  128.382">  7  9 -1 -1</clus>
<clus scale="  131.360">  2  5  1 -1</clus>
<clus scale="  334.828">  1  5  2 -1</clus>
</clustering>
</event>
<event>
 9    1  0.3312826E-006  0.1506571E+03  0.7546771E-02  0.1212052E+00
         21   -1    0    0  501  502  0.00000000000E+00  0.00000000000E+00  0.23993152345E+02  0.23993152345E+02  0.00000000000E+00 0.  1.
         -1   -1    0    0    0  501 -0.00000000000E+00 -0.00000000000E+00 -0.77769385885E+03  0.77769385885E+03  0.00000000000E+00 0.  1.
         23    2    1    2    0    0  0.20281291497E+02  0.65990101340E+02 -0.41960781872E+03  0.43519606968E+03  0.92514178788E+02 0.  0.
         23    2    1    2    0    0  0.14409812658E+02 -0.18317348926E+02 -0.20267835860E+03  0.22245642304E+03  0.88685822626E+02 0.  0.
        -13    1    3    3    0    0 -0.13133290148E+02  0.77610006676E+02 -0.25697940181E+03  0.26876422642E+03  0.00000000000E+00 0. -1.
         13    1    3    3    0    0  0.33414581644E+02 -0.11619905337E+02 -0.16262841691E+03  0.16643184327E+03  0.00000000000E+00 0.  1.
        -13    1    4    4    0    0  0.50836708021E+02 -0.20706040232E+02 -0.11278428286E+03  0.12543287226E+03  0.00000000000E+00 0.  1.
         13    1    4    4    0    0 -0.36426895363E+02  0.23886913057E+01 -0.89894075738E+02  0.97023550774E+02  0.00000000000E+00 0. -1.
         -1    1    1    2    0  502 -0.34691104154E+02 -0.47672752413E+02 -0.13141452918E+03  0.14403451847E+03  0.00000000000E+00 0.  1.
<scales pt_clust_5="13000.00000" pt_clust_6="13000.00000" pt_clust_7="13000.00000" pt_clust_8="13000.00000" pt_clust_9="13000.00000"></scales>
<clustering>
<clus scale="   88.686">  7  8 -1 -1</clus>
<clus scale="   58.959">  7  9 -1 -1</clus>
<clus scale="   92.514">  5  6 -1 -1</clus>
<clus scale="  115.434">  2  5  1 -1</clus>
<clus scale="  150.657">  1  5  2 -1</clus>
</clustering>
</event>
<event>
 9    1  0.3312826E-006  0.3245770E+03  0.7546771E-02  0.1083684E+00
         21   -1    0    0  501  502  0.00000000000E+00  0.00000000000E+00  0.10026364716E+04  0.10026364716E+04  0.00000000000E+00 0.  1.
          2   -1    0    0  502    0 -0.00000000000E+00 -0.00000000000E+00 -0.94829427906E+02  0.94829427906E+02  0.00000000000E+00 0. -1.
         23    2    1    2    0    0  0.14273073948E+03  0.17992340018E+03  0.19641999544E+03  0.31553125422E+03  0.90745048664E+02 0.  0.
         23    2    1    2    0    0 -0.10325921949E+03 -0.92211353105E+02  0.19022513904E+03  0.25197130721E+03  0.90213835316E+02 0.  0.
        -11    1    3    3    0    0  0.14095463821E+03  0.13083292205E+03  0.18086925639E+03  0.26400596855E+03  0.00000000000E+00 0.  1.
         11    1    3    3    0    0  0.17761012717E+01  0.49090478122E+02  0.15550739056E+02  0.51525285668E+02  0.00000000000E+00 0. -1.
        -13    1    4    4    0    0 -0.11377788570E+03 -0.60033535749E+02  0.16748784348E+03  0.21119093352E+03  0.00000000000E+00 0. -1.
         13    1    4    4    0    0  0.10518666210E+02 -0.32177817356E+02  0.22737295563E+02  0.40780373688E+02  0.00000000000E+00 0.  1.
          2    1    1    2  501    0 -0.39471519991E+02 -0.87712047071E+02  0.52116190923E+03  0.52996333810E+03  0.00000000000E+00 0. -1.
<scales pt_clust_5="13000.00000" pt_clust_6="13000.00000" pt_clust_7="13000.00000" pt_clust_8="13000.00000" pt_clust_9="13000.00000"></scales>
<clustering>
<clus scale="   90.214">  7  8 -1 -1</clus>
<clus scale="   90.745">  5  6 -1 -1</clus>
<clus scale="   96.184">  7  9 -1 -1</clus>
<clus scale="  246.940">  2  5  1 -1</clus>
<clus scale="  324.577">  1  5  2 -1</clus>
</clustering>
</event>
<event>
 9    1  0.3312826E-006  0.2229094E+03  0.7546771E-02  0.1156098E+00
         21   -1    0    0  501  502  0.00000000000E+00  0.00000000000E+00  0.23377082039E+03  0.23377082039E+03  0.00000000000E+00 0. -1.
         -3   -1    0    0    0  501 -0.00000000000E+00 -0.00000000000E+00 -0.33041465441E+03  0.33041465441E+03  0.00000000000E+00 0.  1.
         23    2    1    2    0    0 -0.60455934096E+02 -0.57061046661E+02 -0.25974689486E+03  0.28797685368E+03  0.92473433243E+02 0.  0.
         23    2    1    2    0    0 -0.21799262104E+02  0.26548565903E+02  0.16199810421E+03  0.18846952087E+03  0.89985222951E+02 0.  0.
        -11    1    4    4    0    0  0.10998872510E+02  0.38925241855E+02  0.14297146267E+03  0.14858327224E+03  0.00000000000E+00 0. -1.
         11    1    4    4    0    0 -0.32798134614E+02 -0.12376675952E+02  0.19026641539E+02  0.39886248634E+02  0.00000000000E+00 0.  1.
        -11    1    3    3    0    0 -0.16124139549E+02 -0.53901101516E+02 -0.55786833311E+02  0.79230596310E+02  0.00000000000E+00 0. -1.
         11    1    3    3    0    0 -0.44331794548E+02 -0.31599451447E+01 -0.20396006155E+03  0.20874625737E+03  0.00000000000E+00 0.  1.
         -3    1    1    2    0  502  0.82255196200E+02  0.30512480758E+02  0.11049566228E+01  0.87739100253E+02  0.00000000000E+00 0.  1.
<scales pt_clust_5="13000.00000" pt_clust_6="13000.00000" pt_clust_7="13000.00000" pt_clust_8="13000.00000" pt_clust_9="13000.00000"></scales>
<clustering>
<clus scale="   89.985">  5  6 -1 -1</clus>
<clus scale="   87.732">  5  9 -1 -1</clus>
<clus scale="   92.473">  7  8 -1 -1</clus>
<clus scale="  124.347">  2  7  1 -1</clus>
<clus scale="  222.909">  1  5  2 -1</clus>
</clustering>
</event>
<event>
 9    1  0.3312826E-006  0.2715969E+03  0.7546771E-02  0.1143030E+00
          3   -1    0    0  502    0 -0.00000000000E+00  0.00000000000E+00  0.13871048579E+03  0.13871048579E+03  0.00000000000E+00 0. -1.
         21   -1    0    0  501  502  0.00000000000E+00 -0.00000000000E+00 -0.25060905355E+03  0.25060905355E+03  0.00000000000E+00 0. -1.
         23    2    1    2    0    0 -0.95228513239E+01  0.76760136183E+01  0.45071553862E+01  0.93828132998E+02  0.92918234001E+02 0.  0.
         23    2    1    2    0    0  0.86970048842E+02 -0.89168244663E+02 -0.60957187283E+02  0.17013753822E+03  0.98570979395E+02 0.  0.
        -11    1    3    3    0    0 -0.20515516871E+02  0.47837471386E+02  0.13226551167E+01  0.52067835731E+02  0.00000000000E+00 0.  1.
         11    1    3    3    0    0  0.10992665547E+02 -0.40161457768E+02  0.31845002695E+01  0.41760297267E+02  0.00000000000E+00 0. -1.
        -13    1    4    4    0    0 -0.25053278292E+00 -0.69026031593E+02 -0.31737344118E+02  0.75973119035E+02  0.00000000000E+00 0.  1.
         13    1    4    4    0    0  0.87220581625E+02 -0.20142213070E+02 -0.29219843165E+02  0.94164419187E+02  0.00000000000E+00 0. -1.
          3    1    1    2  501    0 -0.77447197518E+02  0.81492231045E+02 -0.55448535857E+02  0.12535386812E+03  0.00000000000E+00 0. -1.
<scales pt_clust_5="13000.00000" pt_clust_6="13000.00000" pt_clust_7="13000.00000" pt_clust_8="13000.00000" pt_clust_9="13000.00000"></scales>
<clustering>
<clus scale="   92.918">  5  6 -1 -1</clus>
<clus scale="   93.720">  1  5  2 -1</clus>
<clus scale="   98.571">  7  8 -1 -1</clus>
<clus scale="  117.158">  7  9 -1 -1</clus>
<clus scale="  271.597">  2  5  1 -1</clus>
</clustering>
</event>
<event>
 9    1  0.3312826E-006  0.1462752E+03  0.7546771E-02  0.1225653E+00
         21   -1    0    0  501  502  0.00000000000E+00  0.00000000000E+00  0.24549434227E+02  0.24549434227E+02  0.00000000000E+00 0.  1.
          1   -1    0    0  502    0 -0.00000000000E+00 -0.00000000000E+00 -0.61150169580E+03  0.61150169580E+03  0.00000000000E+00 0. -1.
         23    2    1    2    0    0  0.11268072110E+01  0.26847851409E+02 -0.28895692375E+03  0.30409079142E+03  0.90846182221E+02 0.  0.
         23    2    1    2    0    0  0.28112334965E+01 -0.60669788121E+02 -0.21023634017E+03  0.23782706480E+03  0.93132528157E+02 0.  0.
        -11    1    3    3    0    0  0.33208740398E+02 -0.17830593626E+02 -0.14950480347E+03  0.15418312738E+03  0.00000000000E+00 0.  1.
         11    1    3    3    0    0 -0.32081933187E+02  0.44678445035E+02 -0.13945212028E+03  0.14990766404E+03  0.00000000000E+00 0. -1.
        -13    1    4    4    0    0  0.24307361503E+02 -0.28540494055E+02 -0.17716036259E+02  0.41464027360E+02  0.00000000000E+00 0.  1.
         13    1    4    4    0    0 -0.21496128007E+02 -0.32129294066E+02 -0.19252030391E+03  0.19636303744E+03  0.00000000000E+00 0. -1.
          1    1    1    2  501    0 -0.39380407075E+01  0.33821936712E+02 -0.87758997652E+02  0.94133273801E+02  0.00000000000E+00 0. -1.
<scales pt_clust_5="13000.00000" pt_clust_6="13000.00000" pt_clust_7="13000.00000" pt_clust_8="13000.00000" pt_clust_9="13000.00000"></scales>
<clustering>
<clus scale="   90.846">  5  6 -1 -1</clus>
<clus scale="   93.133">  7  8 -1 -1</clus>
<clus scale="   34.050">  7  9 -1 -1</clus>
<clus scale="   94.737">  2  5  1 -1</clus>
<clus scale="  146.275">  1  5  2 -1</clus>
</clustering>
</event>
<event>
 9    1  0.3312826E-006  0.2042230E+03  0.7546771E-02  0.1163385E+00
          2   -1    0    0  502    0 -0.00000000000E+00  0.00000000000E+00  0.25687682653E+03  0.25687682653E+03  0.00000000000E+00 0. -1.
         21   -1    0    0  501  502  0.00000000000E+00 -0.00000000000E+00 -0.13828434425E+03  0.13828434425E+03  0.00000000000E+00 0. -1.
         23    2    1    2    0    0  0.43239726919E+02 -0.92995657883E+02  0.13284253385E+03  0.19044157622E+03  0.90016602838E+02 0.  0.
         23    2    1    2    0    0  0.10163160798E+02 -0.60439543343E+01 -0.70031591308E+00  0.91386860789E+02  0.90615940436E+02 0.  0.
        -11    1    3    3    0    0  0.17158255384E+02 -0.45089297149E+02  0.15493004399E+01  0.48268527811E+02  0.00000000000E+00 0.  1.
         11    1    3    3    0    0  0.26081471535E+02 -0.47906360734E+02  0.13129323341E+03  0.14217304841E+03  0.00000000000E+00 0. -1.
        -13    1    4    4    0    0 -0.21785188381E+01  0.34097102572E+02  0.24833488944E+02  0.42238140599E+02  0.00000000000E+00 0. -1.
         13    1    4    4    0    0  0.12341679636E+02 -0.40141056907E+02 -0.25533804857E+02  0.49148720190E+02  0.00000000000E+00 0.  1.
          2    1    1    2  501    0 -0.53402887717E+02  0.99039612217E+02 -0.13549735656E+02  0.11333273376E+03  0.00000000000E+00 0. -1.
<scales pt_clust_5="13000.00000" pt_clust_6="13000.00000" pt_clust_7="13000.00000" pt_clust_8="13000.00000" pt_clust_9="13000.00000"></scales>
<clustering>
<clus scale="   90.017">  5  6 -1 -1</clus>
<clus scale="   90.616">  7  8 -1 -1</clus>
<clus scale="  112.520">  7  9 -1 -1</clus>
<clus scale="  136.458">  1  5  2 -1</clus>
<clus scale="  204.223">  2  5  1 -1</clus>
</clustering>
</event>
<event>
 9    1  0.3312826E-006  0.1516527E+03  0.7546771E-02  0.1219773E+00
          1   -1    0    0  502    0 -0.00000000000E+00  0.00000000000E+00  0.82384179138E+02  0.82384179138E+02  0.00000000000E+00 0. -1.
         21   -1    0    0  501  502  0.00000000000E+00 -0.00000000000E+00 -0.21057361119E+03  0.21057361119E+03  0.00000000000E+00 0.  1.
         23    2    1    2    0    0 -0.28812190088E+02  0.13834776688E+02 -0.27837347514E+01  0.96170805382E+02  0.90661630721E+02 0.  0.
         23    2    1    2    0    0  0.27657798974E+02  0.36192450950E+02 -0.87055788085E+02  0.13374119475E+03  0.90736704730E+02 0.  0.
        -11    1    3    3    0    0 -0.33898797591E+02  0.39107057679E+02  0.25674403686E+02  0.57772531908E+02  0.00000000000E+00 0.  1.
         11    1    3    3    0    0  0.50866075034E+01 -0.25272280991E+02 -0.28458138437E+02  0.38398273473E+02  0.00000000000E+00 0. -1.
        -13    1    4    4    0    0  0.59070798118E+02  0.15610837466E+02 -0.68704808265E+02  0.91942417389E+02  0.00000000000E+00 0.  1.
         13    1    4    4    0    0 -0.31412999144E+02  0.20581613484E+02 -0.18350979820E+02  0.41798777365E+02  0.00000000000E+00 0. -1.
          1    1    1    2  501    0  0.11543911137E+01 -0.50027227638E+02 -0.38349909212E+02  0.63045790189E+02  0.00000000000E+00 0. -1.
<scales pt_clust_5="13000.00000" pt_clust_6="13000.00000" pt_clust_7="13000.00000" pt_clust_8="13000.00000" pt_clust_9="13000.00000"></scales>
<clustering>
<clus scale="   90.662">  5  6 -1 -1</clus>
<clus scale="   90.737">  7  8 -1 -1</clus>
<clus scale="   50.041">  7  9 -1 -1</clus>
<clus scale="   96.131">  1  5  2 -1</clus>
<clus scale="  151.653">  2  5  1 -1</clus>
</clustering>
</event>
<event>
 9    1  0.3312826E-006  0.2850067E+03  0.7546771E-02  0.1134166E+00
         -2   -1    0    0    0  501 -0.00000000000E+00  0.00000000000E+00  0.88225767841E+02  0.88225767841E+02  0.00000000000E+00 0.  1.
         21   -1    0    0  501  502  0.00000000000E+00 -0.00000000000E+00 -0.46167174845E+03  0.46167174845E+03  0.00000000000E+00 0.  1.
         23    2    1    2    0    0  0.37517214772E+02  0.22229861142E+02 -0.17769231116E+03  0.20413993536E+03  0.90536443679E+02 0.  0.
         23    2    1    2    0    0  0.46134456875E+02 -0.47469983553E+02  0.19371327887E+02  0.11356492293E+03  0.90221704299E+02 0.  0.
        -11    1    3    3    0    0  0.26800183055E+02 -0.20112614677E+02 -0.16914505199E+02  0.37534884668E+02  0.00000000000E+00 0.  1.
         11    1    3    3    0    0  0.10717031716E+02  0.42342475819E+02 -0.16077780596E+03  0.16660505070E+03  0.00000000000E+00 0. -1.
        -13    1    4    4    0    0 -0.71122817285E+01 -0.50567695125E+02  0.29934107064E+02  0.59192289256E+02  0.00000000000E+00 0.  1.
         13    1    4    4    0    0  0.53246738603E+02  0.30977115718E+01 -0.10562779177E+02  0.54372633676E+02  0.00000000000E+00 0. -1.
         -2    1    1    2    0  502 -0.83651671647E+02  0.25240122411E+02 -0.21512499734E+03  0.23219265800E+03  0.00000000000E+00 0.  1.
<scales pt_clust_5="13000.00000" pt_clust_6="13000.00000" pt_clust_7="13000.00000" pt_clust_8="13000.00000" pt_clust_9="13000.00000"></scales>
<clustering>
<clus scale="   90.222">  7  8 -1 -1</clus>
<clus scale="   87.377">  7  9 -1 -1</clus>
<clus scale="   90.536">  5  6 -1 -1</clus>
<clus scale="  100.492">  1  5  2 -1</clus>
<clus scale="  285.007">  2  5  1 -1</clus>
</clustering>
</event>
<event>
 9    1  0.3312826E-006  0.4164666E+03  0.7546771E-02  0.1093104E+00
          2   -1    0    0  502    0 -0.00000000000E+00  0.00000000000E+00  0.85299407127E+02  0.85299407127E+02  0.00000000000E+00 0. -1.
         21   -1    0    0  501  502  0.00000000000E+00 -0.00000000000E+00 -0.75530142876E+03  0.75530142876E+03  0.00000000000E+00 0.  1.
         23    2    1    2    0    0 -0.33408982701E+01  0.30205598417E+01 -0.11323765345E+03  0.14530882049E+03  0.90948346715E+02 0.  0.
         23    2    1    2    0    0  0.34371778553E+02 -0.89585552642E+02 -0.11766137625E+01  0.13214535034E+03  0.90851630654E+02 0.  0.
        -11    1    3    3    0    0  0.17781227711E+02 -0.25234802195E+02 -0.10450130850E+03  0.10896554858E+03  0.00000000000E+00 0.  1.
         11    1    3    3    0    0 -0.21122125981E+02  0.28255362037E+02 -0.87363449572E+01  0.36343271908E+02  0.00000000000E+00 0. -1.
        -11    1    4    4    0    0 -0.22691712762E+02 -0.28836815109E+02  0.25441629910E+02  0.44651453125E+02  0.00000000000E+00 0.  1.
         11    1    4    4    0    0  0.57063491315E+02 -0.60748737533E+02 -0.26618243673E+02  0.87493897211E+02  0.00000000000E+00 0. -1.
          2    1    1    2  501    0 -0.31030880283E+02  0.86564992800E+02 -0.55558775441E+03  0.56314666506E+03  0.00000000000E+00 0. -1.
<scales pt_clust_5="13000.00000" pt_clust_6="13000.00000" pt_clust_7="13000.00000" pt_clust_8="13000.00000" pt_clust_9="13000.00000"></scales>
<clustering>
<clus scale="   90.852">  7  8 -1 -1</clus>
<clus scale="   90.948">  5  6 -1 -1</clus>
<clus scale="   91.060">  1  5  2 -1</clus>
<clus scale="   92.176">  7  9 -1 -1</clus>
<clus scale="  416.467">  2  5  1 -1</clus>
</clustering>
</event>
<event>
 9    1  0.3312826E-006  0.3638418E+03  0.7546771E-02  0.1103868E+00
         21   -1    0    0  501  502  0.00000000000E+00  0.00000000000E+00  0.18612591626E+03  0.18612591626E+03  0.00000000000E+00 0. -1.
          1   -1    0    0  502    0 -0.00000000000E+00 -0.00000000000E+00 -0.34819909196E+03  0.34819909196E+03  0.00000000000E+00 0. -1.
         23    2    1    2    0    0 -0.37055569016E+02  0.29088600375E+02 -0.13437280074E+03  0.16943026277E+03  0.91822124218E+02 0.  0.
         23    2    1    2    0    0  0.12324753321E+02 -0.49047458962E+02 -0.18024303639E+03  0.20907679771E+03  0.93102107377E+02 0.  0.
        -11    1    4    4    0    0  0.43487635523E+02 -0.42141520796E+02 -0.16050353762E+03  0.17154727572E+03  0.00000000000E+00 0. -1.
         11    1    4    4    0    0 -0.31162882202E+02 -0.69059381665E+01 -0.19739498773E+02  0.37529521992E+02  0.00000000000E+00 0.  1.
        -13    1    3    3    0    0  0.25377966159E+02  0.31384747849E+02 -0.45892647811E+02  0.61116108245E+02  0.00000000000E+00 0. -1.
         13    1    3    3    0    0 -0.62433535175E+02 -0.22961474738E+01 -0.88480152933E+02  0.10831415453E+03  0.00000000000E+00 0.  1.
          1    1    1    2  501    0  0.24730815695E+02  0.19958858587E+02  0.15254266143E+03  0.15581794774E+03  0.00000000000E+00 0. -1.
<scales pt_clust_5="13000.00000" pt_clust_6="13000.00000" pt_clust_7="13000.00000" pt_clust_8="13000.00000" pt_clust_9="13000.00000"></scales>
<clustering>
<clus scale="   91.822">  7  8 -1 -1</clus>
<clus scale="   93.102">  5  6 -1 -1</clus>
<clus scale="   31.780">  5  9 -1 -1</clus>
<clus scale="  103.202">  2  7  1 -1</clus>
<clus scale="  363.842">  1  5  2 -1</clus>
</clustering>
</event>
<event>
 9    1  0.3312826E-006  0.6352445E+03  0.7546771E-02  0.1021564E+00
         21   -1    0    0  501  502  0.00000000000E+00  0.00000000000E+00  0.22078629094E+03  0.22078629094E+03  0.00000000000E+00 0.  1.
         -4   -1    0    0    0  501 -0.00000000000E+00 -0.00000000000E+00 -0.80137308134E+03  0.80137308134E+03  0.00000000000E+00 0.  1.
         23    2    1    2    0    0 -0.10438097237E+03 -0.13316189465E+03 -0.21780669639E+03  0.29062333861E+03  0.91622542928E+02 0.  0.
         23    2    1    2    0    0  0.69552114818E+02  0.47732533886E+02 -0.52771732151E+03  0.54255054743E+03  0.93592914394E+02 0.  0.
        -11    1    4    4    0    0 -0.64775179589E+01  0.49164535825E+02 -0.22881129105E+03  0.23412329388E+03  0.00000000000E+00 0. -1.
         11    1    4    4    0    0  0.76029632777E+02 -0.14320019382E+01 -0.29890603046E+03  0.30842725355E+03  0.00000000000E+00 0.  1.
        -13    1    3    3    0    0 -0.16331008237E+02 -0.14499007089E+02  0.58089147781E+01  0.22597931930E+02  0.00000000000E+00 0. -1.
         13    1    3    3    0    0 -0.88049964134E+02 -0.11866288757E+03 -0.22361561116E+03  0.26802540668E+03  0.00000000000E+00 0.  1.
         -4    1    1    2    0  502  0.34828857553E+02  0.85429360768E+02  0.16493722749E+03  0.18898548625E+03  0.00000000000E+00 0.  1.
<scales pt_clust_5="13000.00000" pt_clust_6="13000.00000" pt_clust_7="13000.00000" pt_clust_8="13000.00000" pt_clust_9="13000.00000"></scales>
<clustering>
<clus scale="   91.623">  7  8 -1 -1</clus>
<clus scale="   93.593">  5  6 -1 -1</clus>
<clus scale="   92.256">  5  9 -1 -1</clus>
<clus scale="  192.411">  2  7  1 -1</clus>
<clus scale="  635.244">  1  5  2 -1</clus>
</clustering>
</event>
<event>
 9    1  0.3312826E-006  0.2489448E+03  0.7546771E-02  0.1123242E+00
          2   -1    0    0  502    0 -0.00000000000E+00  0.00000000000E+00  0.13251462516E+04  0.13251462516E+04  0.00000000000E+00 0. -1.
         21   -1    0    0  501  502  0.00000000000E+00 -0.00000000000E+00 -0.41366079931E+02  0.41366079931E+02  0.00000000000E+00 0.  1.
         23    2    1    2    0    0 -0.10711506094E+03 -0.13860848160E+03  0.78010686499E+03  0.80467578380E+03  0.90831981058E+02 0.  0.
         23    2    1    2    0    0  0.97495458692E+02  0.63631894865E+02  0.43615165698E+03  0.46047975969E+03  0.90878813153E+02 0.  0.
        -11    1    3    3    0    0 -0.13229149832E+02 -0.37422336320E+02  0.63414772638E+02  0.74812265369E+02  0.00000000000E+00 0.  1.
         11    1    3    3    0    0 -0.93885911113E+02 -0.10118614528E+03  0.71669209235E+03  0.72986351843E+03  0.00000000000E+00 0. -1.
        -13    1    4    4    0    0  0.87113627286E+02  0.71609123337E+01  0.21728075258E+03  0.23420287822E+03  0.00000000000E+00 0.  1.
         13    1    4    4    0    0  0.10381831407E+02  0.56470982532E+02  0.21887090441E+03  0.22627688147E+03  0.00000000000E+00 0. -1.
          2    1    1    2  501    0  0.96196022520E+01  0.74976586739E+02  0.67521649727E+02  0.10135678807E+03  0.00000000000E+00 0. -1.
<scales pt_clust_5="13000.00000" pt_clust_6="13000.00000" pt_clust_7="13000.00000" pt_clust_8="13000.00000" pt_clust_9="13000.00000"></scales>
<clustering>
<clus scale="   90.832">  5  6 -1 -1</clus>
<clus scale="   90.879">  7  8 -1 -1</clus>
<clus scale="   75.591">  7  9 -1 -1</clus>
<clus scale="  197.323">  1  5  2 -1</clus>
<clus scale="  248.945">  2  5  1 -1</clus>
</clustering>
</event>
<event>
 9    1  0.3312826E-006  0.3579239E+03  0.7546771E-02  0.1096721E+00
          1   -1    0    0  502    0 -0.00000000000E+00  0.00000000000E+00  0.20162485952E+03  0.20162485952E+03  0.00000000000E+00 0. -1.
         21   -1    0    0  501  502  0.00000000000E+00 -0.00000000000E+00 -0.30035491565E+03  0.30035491565E+03  0.00000000000E+00 0. -1.
         23    2    1    2    0    0 -0.87840022486E+02 -0.29073647257E+02  0.76988925161E+00  0.13048316375E+03  0.92000634663E+02 0.  0.
         23    2    1    2    0    0 -0.44393910594E+02  0.58345758587E+02  0.83190506576E+02  0.14407965780E+03  0.91995872535E+02 0.  0.
        -13    1    4    4    0    0  0.22950582113E+02  0.25795543894E+02  0.53351029873E+02  0.63548970823E+02  0.00000000000E+00 0.  1.
         13    1    4    4    0    0 -0.67344492707E+02  0.32550214692E+02  0.29839476702E+02  0.80530686973E+02  0.00000000000E+00 0. -1.
        -13    1    3    3    0    0  0.64037836414E+01 -0.24326054416E+02 -0.21992706446E+02  0.33413238472E+02  0.00000000000E+00 0.  1.
         13    1    3    3    0    0 -0.94243806128E+02 -0.47475928410E+01  0.22762595698E+02  0.97069925281E+02  0.00000000000E+00 0. -1.
          1    1    1    2  501    0  0.13223393308E+03 -0.29272111330E+02 -0.18269045195E+03  0.22741695362E+03  0.00000000000E+00 0. -1.
<scales pt_clust_5="13000.00000" pt_clust_6="13000.00000" pt_clust_7="13000.00000" pt_clust_8="13000.00000" pt_clust_9="13000.00000"></scales>
<clustering>
<clus scale="   91.996">  5  6 -1 -1</clus>
<clus scale="   92.001">  7  8 -1 -1</clus>
<clus scale="  130.481">  1  7  2 -1</clus>
<clus scale="  122.613">  5  9 -1 -1</clus>
<clus scale="  357.924">  2  5  1 -1</clus>
</clustering>
</event>
<event>
 9    1  0.3312826E-006  0.8792643E+03  0.7546771E-02  0.9793942E-01
          2   -1    0    0  502    0 -0.00000000000E+00  0.00000000000E+00  0.21769043140E+04  0.21769043140E+04  0.00000000000E+00 0.  1.
         21   -1    0    0  501  502  0.00000000000E+00 -0.00000000000E+00 -0.23107240314E+03  0.23107240314E+03  0.00000000000E+00 0.  1.
         23    2    1    2    0    0  0.89951923597E+02 -0.24204437601E+03  0.12694206894E+04  0.12986355427E+04  0.91370441179E+02 0.  0.
         23    2    1    2    0    0  0.28673041589E+03  0.70788903565E+00  0.57740476267E+03  0.65115435263E+03  0.91601847666E+02 0.  0.
        -11    1    3    3    0    0  0.48249580782E+02 -0.32529125059E+02  0.21133504897E+03  0.21920006603E+03  0.00000000000E+00 0. -1.
         11    1    3    3    0    0  0.41702342815E+02 -0.20951525095E+03  0.10580856404E+04  0.10794354766E+04  0.00000000000E+00 0.  1.
        -11    1    4    4    0    0  0.70986030592E+02  0.24914313714E+02  0.88103519368E+02  0.11585322478E+03  0.00000000000E+00 0. -1.
         11    1    4    4    0    0  0.21574438530E+03 -0.24206424678E+02  0.48930124330E+03  0.53530112785E+03  0.00000000000E+00 0.  1.
          2    1    1    2  501    0 -0.37668233949E+03  0.24133648697E+03  0.99006458807E+02  0.45818682184E+03  0.00000000000E+00 0.  1.
<scales pt_clust_5="13000.00000" pt_clust_6="13000.00000" pt_clust_7="13000.00000" pt_clust_8="13000.00000" pt_clust_9="13000.00000"></scales>
<clustering>
<clus scale="   91.370">  5  6 -1 -1</clus>
<clus scale="   91.602">  7  8 -1 -1</clus>
<clus scale="  273.908">  1  5  2 -1</clus>
<clus scale="  386.040">  7  9 -1 -1</clus>
<clus scale="  879.264">  2  5  1 -1</clus>
</clustering>
</event>
<event>
 9    1  0.3312826E-006  0.9040407E+03  0.7546771E-02  0.9723868E-01
          2   -1    0    0  502    0 -0.00000000000E+00  0.00000000000E+00  0.17432391158E+04  0.17432391158E+04  0.00000000000E+00 0. -1.
         21   -1    0    0  501  502  0.00000000000E+00 -0.00000000000E+00 -0.24156685600E+03  0.24156685600E+03  0.00000000000E+00 0. -1.
         23    2    1    2    0    0 -0.13162633419E+03  0.27434833304E+03  0.13306026695E+03  0.34456564766E+03  0.91803873646E+02 0.  0.
         23    2    1    2    0    0 -0.24527912101E+03 -0.27913613654E+03  0.11326118050E+04  0.11955193623E+04  0.91532589474E+02 0.  0.
        -11    1    3    3    0    0 -0.59140722438E+02  0.44430509506E+02  0.51244523042E+02  0.89987201130E+02  0.00000000000E+00 0. -1.
         11    1    3    3    0    0 -0.72485611754E+02  0.22991782353E+03  0.81815743911E+02  0.25457844653E+03  0.00000000000E+00 0.  1.
        -13    1    4    4    0    0 -0.51416510033E+02 -0.10434521656E+03  0.44734343911E+03  0.46222043901E+03  0.00000000000E+00 0.  1.
         13    1    4    4    0    0 -0.19386261098E+03 -0.17479091998E+03  0.68526836589E+03  0.73329892331E+03  0.00000000000E+00 0. -1.
          2    1    1    2  501    0  0.37690545521E+03  0.47878035065E+01  0.23600018786E+03  0.44472096184E+03  0.00000000000E+00 0. -1.
<scales pt_clust_5="13000.00000" pt_clust_6="13000.00000" pt_clust_7="13000.00000" pt_clust_8="13000.00000" pt_clust_9="13000.00000"></scales>
<clustering>
<clus scale="   91.533">  7  8 -1 -1</clus>
<clus scale="   91.804">  5  6 -1 -1</clus>
<clus scale="  317.837">  1  5  2 -1</clus>
<clus scale="  353.506">  7  9 -1 -1</clus>
<clus scale="  904.041">  2  5  1 -1</clus>
</clustering>
</event>
<event>
 9    1  0.3312826E-006  0.5101263E+03  0.7546771E-02  0.1043727E+00
         21   -1    0    0  501  502  0.00000000000E+00  0.00000000000E+00  0.42331541777E+03  0.42331541777E+03  0.00000000000E+00 0.  1.
         -3   -1    0    0    0  501 -0.00000000000E+00 -0.00000000000E+00 -0.37386478110E+03  0.37386478110E+03  0.00000000000E+00 0.  1.
         23    2    1    2    0    0 -0.92304281310E+02 -0.14258710075E+03 -0.15496654895E+03  0.24762106876E+03  0.91926061310E+02 0.  0.
         23    2    1    2    0    0 -0.22706183856E+02 -0.90511155464E+02 -0.86527031982E+02  0.15941717914E+03  0.96015986657E+02 0.  0.
        -11    1    4    4    0    0  0.34602624708E+02 -0.37919342420E+02 -0.55701368226E+02  0.75748667239E+02  0.00000000000E+00 0.  1.
         11    1    4    4    0    0 -0.57308808564E+02 -0.52591813044E+02 -0.30825663756E+02  0.83668511905E+02  0.00000000000E+00 0. -1.
        -13    1    3    3    0    0 -0.70778591543E+02 -0.59193567689E+02 -0.12717586806E+03  0.15712157361E+03  0.00000000000E+00 0.  1.
         13    1    3    3    0    0 -0.21525689767E+02 -0.83393533065E+02 -0.27790680888E+02  0.90499495143E+02  0.00000000000E+00 0. -1.
         -3    1    1    2    0  502  0.11501046517E+03  0.23309825622E+03  0.29094421760E+03  0.39014195097E+03  0.00000000000E+00 0.  1.
<scales pt_clust_5="13000.00000" pt_clust_6="13000.00000" pt_clust_7="13000.00000" pt_clust_8="13000.00000" pt_clust_9="13000.00000"></scales>
<clustering>
<clus scale="   91.926">  7  8 -1 -1</clus>
<clus scale="   96.016">  5  6 -1 -1</clus>
<clus scale="  193.136">  2  7  1 -1</clus>
<clus scale="  211.513">  5  9 -1 -1</clus>
<clus scale="  510.126">  1  5  2 -1</clus>
</clustering>
</event>
<event>
 9    1  0.3312826E-006  0.1563776E+03  0.7546771E-02  0.1216951E+00
         21   -1    0    0  501  502  0.00000000000E+00  0.00000000000E+00  0.66312590972E+02  0.66312590972E+02  0.00000000000E+00 0.  1.
          1   -1    0    0  502    0 -0.00000000000E+00 -0.00000000000E+00 -0.23720226397E+03  0.23720226397E+03  0.00000000000E+00 0. -1.
         23    2    1    2    0    0 -0.22627279610E+02 -0.40632303957E+01 -0.79552316555E+02  0.12241691034E+03  0.90159998022E+02 0.  0.
         23    2    1    2    0    0  0.42110968611E+01  0.19468479084E+02 -0.14656625682E+02  0.10074614348E+03  0.97663779033E+02 0.  0.
        -13    1    4    4    0    0 -0.10039307672E+01 -0.35729052791E+02 -0.25942956147E+02  0.44165711406E+02  0.00000000000E+00 0. -1.
         13    1    4    4    0    0  0.52150276283E+01  0.55197531875E+02  0.11286330465E+02  0.56580432073E+02  0.00000000000E+00 0.  1.
        -13    1    3    3    0    0 -0.51066295137E+02  0.11257472659E+02 -0.22654916372E+02  0.56988967577E+02  0.00000000000E+00 0. -1.
         13    1    3    3    0    0  0.28439015527E+02 -0.15320703054E+02 -0.56897400183E+02  0.65427942760E+02  0.00000000000E+00 0.  1.
          1    1    1    2  501    0  0.18416182749E+02 -0.15405248688E+02 -0.76680730764E+02  0.80351801129E+02  0.00000000000E+00 0. -1.
<scales pt_clust_5="13000.00000" pt_clust_6="13000.00000" pt_clust_7="13000.00000" pt_clust_8="13000.00000" pt_clust_9="13000.00000"></scales>
<clustering>
<clus scale="   90.160">  7  8 -1 -1</clus>
<clus scale="   93.045">  2  7  1 -1</clus>
<clus scale="   97.664">  5  6 -1 -1</clus>
<clus scale="   18.543">  5  9 -1 -1</clus>
<clus scale="  156.378">  1  5  2 -1</clus>
</clustering>
</event>
<event>
 9    1  0.3312826E-006  0.1451894E+03  0.7546771E-02  0.1227567E+00
         21   -1    0    0  501  502  0.00000000000E+00  0.00000000000E+00  0.14371030297E+03  0.14371030297E+03  0.00000000000E+00 0. -1.
         -3   -1    0    0    0  501 -0.00000000000E+00 -0.00000000000E+00 -0.23002791462E+03  0.23002791462E+03  0.00000000000E+00 0.  1.
         23    2    1    2    0    0  0.16165600456E+02  0.22955535836E+02 -0.17880566136E+03  0.20159289373E+03  0.88769065577E+02 0.  0.
         23    2    1    2    0    0 -0.20448457335E+02 -0.56839972770E+02  0.79256485453E+02  0.13551784481E+03  0.91839936104E+02 0.  0.
        -11    1    3    3    0    0  0.41217147147E+02  0.26834060108E+02 -0.16611653678E+03  0.17324440479E+03  0.00000000000E+00 0.  1.
         11    1    3    3    0    0 -0.25051546691E+02 -0.38785242722E+01 -0.12689124579E+02  0.28348488932E+02  0.00000000000E+00 0. -1.
        -13    1    4    4    0    0 -0.42520162888E+02 -0.71257863422E+02  0.53963751680E+02  0.98983502902E+02  0.00000000000E+00 0. -1.
         13    1    4    4    0    0  0.22071705553E+02  0.14417890652E+02  0.25292733773E+02  0.36534341907E+02  0.00000000000E+00 0.  1.
         -3    1    1    2    0  502  0.42828568790E+01  0.33884436934E+02  0.13231564252E+02  0.36627479055E+02  0.00000000000E+00 0.  1.
<scales pt_clust_5="13000.00000" pt_clust_6="13000.00000" pt_clust_7="13000.00000" pt_clust_8="13000.00000" pt_clust_9="13000.00000"></scales>
<clustering>
<clus scale="   88.769">  5  6 -1 -1</clus>
<clus scale="   91.840">  7  8 -1 -1</clus>
<clus scale="   34.154">  7  9 -1 -1</clus>
<clus scale="   93.103">  2  5  1 -1</clus>
<clus scale="  145.189">  1  5  2 -1</clus>
</clustering>
</event>
<event>
 9    1  0.3312826E-006  0.2453525E+03  0.7546771E-02  0.1120468E+00
         21   -1    0    0  501  502  0.00000000000E+00  0.00000000000E+00  0.15778696970E+03  0.15778696970E+03  0.00000000000E+00 0. -1.
          2   -1    0    0  502    0 -0.00000000000E+00 -0.00000000000E+00 -0.34571475626E+03  0.34571475626E+03  0.00000000000E+00 0. -1.
         23    2    1    2    0    0 -0.15263212231E+03  0.13215293946E+03 -0.10457997764E+03  0.24437876334E+03  0.89571446792E+02 0.  0.
         23    2    1    2    0    0  0.14985494564E+03 -0.78829918257E+02 -0.62855998730E+02  0.20193055417E+03  0.90301779527E+02 0.  0.
        -11    1    3    3    0    0 -0.12827152053E+03  0.12196188453E+03 -0.50284074640E+02  0.18400209896E+03  0.00000000000E+00 0. -1.
         11    1    3    3    0    0 -0.24360601778E+02  0.10191054925E+02 -0.54295902999E+02  0.60376664383E+02  0.00000000000E+00 0.  1.
        -13    1    4    4    0    0  0.11558284060E+03 -0.86560840096E+02 -0.18862081153E+02  0.14562949628E+03  0.00000000000E+00 0. -1.
         13    1    4    4    0    0  0.34272105033E+02  0.77309218390E+01 -0.43993917578E+02  0.56301057891E+02  0.00000000000E+00 0.  1.
          2    1    1    2  501    0  0.27771766754E+01 -0.53323021199E+02 -0.20491810192E+02  0.57192408456E+02  0.00000000000E+00 0. -1.
<scales pt_clust_5="13000.00000" pt_clust_6="13000.00000" pt_clust_7="13000.00000" pt_clust_8="13000.00000" pt_clust_9="13000.00000"></scales>
<clustering>
<clus scale="   89.571">  5  6 -1 -1</clus>
<clus scale="   90.302">  7  8 -1 -1</clus>
<clus scale="   53.395">  7  9 -1 -1</clus>
<clus scale="  220.871">  2  5  1 -1</clus>
<clus scale="  245.353">  1  5  2 -1</clus>
</clustering>
</event>
<event>
 9    1  0.3312826E-006  0.2518587E+03  0.7546771E-02  0.1120065E+00
          1   -1    0    0  502    0 -0.00000000000E+00  0.00000000000E+00  0.92310328947E+03  0.92310328947E+03  0.00000000000E+00 0. -1.
         21   -1    0    0  501  502  0.00000000000E+00 -0.00000000000E+00 -0.57932998441E+02  0.57932998441E+02  0.00000000000E+00 0.  1.
         23    2    1    2    0    0 -0.13749631344E+02 -0.18543688131E+03  0.32328874092E+03  0.38348428486E+03  0.89267560841E+02 0.  0.
         23    2    1    2    0    0  0.14085535035E+02  0.12575363568E+03  0.50292705232E+03  0.52628030082E+03  0.89570954499E+02 0.  0.
        -13    1    4    4    0    0 -0.25018548591E+02  0.10616242524E+03  0.31562364324E+03  0.33393812672E+03  0.00000000000E+00 0.  1.
         13    1    4    4    0    0  0.39104083626E+02  0.19591210435E+02  0.18730340908E+03  0.19234217410E+03  0.00000000000E+00 0. -1.
        -13    1    3    3    0    0 -0.16329146964E+02 -0.63695891335E+02  0.19859101916E+03  0.20919416938E+03  0.00000000000E+00 0. -1.
         13    1    3    3    0    0  0.25795156199E+01 -0.12174098998E+03  0.12469772176E+03  0.17429011548E+03  0.00000000000E+00 0.  1.
          1    1    1    2  501    0 -0.33590369084E+00  0.59683245636E+02  0.38954497793E+02  0.71271702234E+02  0.00000000000E+00 0. -1.
<scales pt_clust_5="13000.00000" pt_clust_6="13000.00000" pt_clust_7="13000.00000" pt_clust_8="13000.00000" pt_clust_9="13000.00000"></scales>
<clustering>
<clus scale="   89.268">  7  8 -1 -1</clus>
<clus scale="   89.571">  5  6 -1 -1</clus>
<clus scale="   59.684">  5  9 -1 -1</clus>
<clus scale="  206.263">  1  7  2 -1</clus>
<clus scale="  251.859">  2  5  1 -1</clus>
</clustering>
</event>
<event>
 9    1  0.3312826E-006  0.2191123E+03  0.7546771E-02  0.1145547E+00
          1   -1    0    0  502    0 -0.00000000000E+00  0.00000000000E+00  0.69722459273E+03  0.69722459273E+03  0.00000000000E+00 0. -1.
         21   -1    0    0  501  502  0.00000000000E+00 -0.00000000000E+00 -0.58216358707E+02  0.58216358707E+02  0.00000000000E+00 0. -1.
         23    2    1    2    0    0  0.12317151019E+03  0.65442477562E+02  0.38441669768E+03  0.41954358812E+03  0.93737324946E+02 0.  0.
         23    2    1    2    0    0 -0.46362123158E+02  0.19863922138E+02  0.11160500221E+03  0.15253430076E+03  0.90923124257E+02 0.  0.
        -11    1    3    3    0    0  0.13184435328E+03  0.44207907622E+02  0.27990621604E+03  0.31254561646E+03  0.00000000000E+00 0. -1.
         11    1    3    3    0    0 -0.86728430952E+01  0.21234569940E+02  0.10451048164E+03  0.10699797166E+03  0.00000000000E+00 0.  1.
        -13    1    4    4    0    0 -0.70923374713E+02 -0.16685612157E+01  0.70299468755E+02  0.99874543726E+02  0.00000000000E+00 0.  1.
         13    1    4    4    0    0  0.24561251555E+02  0.21532483354E+02  0.41305533452E+02  0.52659757035E+02  0.00000000000E+00 0. -1.
          1    1    1    2  501    0 -0.76809387027E+02 -0.85306399700E+02  0.14298653414E+03  0.18336306256E+03  0.00000000000E+00 0. -1.
<scales pt_clust_5="13000.00000" pt_clust_6="13000.00000" pt_clust_7="13000.00000" pt_clust_8="13000.00000" pt_clust_9="13000.00000"></scales>
<clustering>
<clus scale="   90.923">  7  8 -1 -1</clus>
<clus scale="   93.737">  5  6 -1 -1</clus>
<clus scale="  114.791">  7  9 -1 -1</clus>
<clus scale="  168.049">  1  5  2 -1</clus>
<clus scale="  219.112">  2  5  1 -1</clus>
</clustering>
</event>
<event>
 9    1  0.3312826E-006  0.2620240E+03  0.7546771E-02  0.1141217E+00
         21   -1    0    0  501  502  0.00000000000E+00  0.00000000000E+00  0.27511764329E+03  0.27511764329E+03  0.00000000000E+00 0.  1.
         -2   -1    0    0    0  501 -0.00000000000E+00 -0.00000000000E+00 -0.12523940710E+03  0.12523940710E+03  0.00000000000E+00 0.  1.
         23    2    1    2    0    0 -0.46127246307E+02 -0.45455445769E+02  0.38058266781E+02  0.11547065895E+03  0.87699036520E+02 0.  0.
         23    2    1    2    0    0  0.11438337955E+03  0.11294073628E+02 -0.38158923822E+01  0.14633116200E+03  0.90482784668E+02 0.  0.
        -13    1    4    4    0    0 -0.97388264590E+01  0.19221854918E+02  0.30688993692E+01  0.21765628653E+02  0.00000000000E+00 0. -1.
         13    1    4    4    0    0  0.12412220601E+03 -0.79277812905E+01 -0.68847917514E+01  0.12456553335E+03  0.00000000000E+00 0.  1.
        -13    1    3    3    0    0 -0.26704099212E+02  0.83492742797E+01  0.49756519588E+02  0.57083539985E+02  0.00000000000E+00 0. -1.
         13    1    3    3    0    0 -0.19423147094E+02 -0.53804720049E+02 -0.11698252807E+02  0.58387118967E+02  0.00000000000E+00 0.  1.
         -2    1    1    2    0  502 -0.68256133244E+02  0.34161372141E+02  0.11563586179E+03  0.13855522944E+03  0.00000000000E+00 0.  1.
<scales pt_clust_5="13000.00000" pt_clust_6="13000.00000" pt_clust_7="13000.00000" pt_clust_8="13000.00000" pt_clust_9="13000.00000"></scales>
<clustering>
<clus scale="   87.699">  7  8 -1 -1</clus>
<clus scale="   90.483">  5  6 -1 -1</clus>
<clus scale="   76.328">  5  9 -1 -1</clus>
<clus scale="  109.019">  2  7  1 -1</clus>
<clus scale="  262.024">  1  5  2 -1</clus>
</clustering>
</event>
<event>
 9    1  0.3312826E-006  0.4435041E+03  0.7546771E-02  0.1067955E+00
         -3   -1    0    0    0  501 -0.00000000000E+00  0.00000000000E+00  0.92628513291E+03  0.92628513291E+03  0.00000000000E+00 0.  1.
         21   -1    0    0  501  502  0.00000000000E+00 -0.00000000000E+00 -0.96281708094E+02  0.96281708094E+02  0.00000000000E+00 0.  1.
         23    2    1    2    0    0 -0.29528882995E+02 -0.11559113692E+03  0.27144835312E+03  0.30934902286E+03  0.88200587661E+02 0.  0.
         23    2    1    2    0    0 -0.73987711118E+02  0.20338579215E+02  0.55939290314E+03  0.57254288445E+03  0.94853019213E+02 0.  0.
        -11    1    3    3    0    0 -0.58634197702E+02 -0.98252742611E+02  0.21335005542E+03  0.24209464413E+03  0.00000000000E+00 0.  1.
         11    1    3    3    0    0  0.29105314707E+02 -0.17338394313E+02  0.58098297702E+02  0.67254378723E+02  0.00000000000E+00 0. -1.
        -11    1    4    4    0    0 -0.51209053481E+02 -0.35043025813E+02  0.27502130135E+03  0.28193456158E+03  0.00000000000E+00 0.  1.
         11    1    4    4    0    0 -0.22778657637E+02  0.55381605028E+02  0.28437160179E+03  0.29060832287E+03  0.00000000000E+00 0. -1.
         -3    1    1    2    0  502  0.10351659411E+03  0.95252557709E+02 -0.83783145082E+00  0.14067493369E+03  0.00000000000E+00 0.  1.
<scales pt_clust_5="13000.00000" pt_clust_6="13000.00000" pt_clust_7="13000.00000" pt_clust_8="13000.00000" pt_clust_9="13000.00000"></scales>
<clustering>
<clus scale="   88.201">  5  6 -1 -1</clus>
<clus scale="   94.853">  7  8 -1 -1</clus>
<clus scale="  140.673">  7  9 -1 -1</clus>
<clus scale="  148.366">  1  5  2 -1</clus>
<clus scale="  443.504">  2  5  1 -1</clus>
</clustering>
</event>
<event>
 9    1  0.3312826E-006  0.2641300E+03  0.7546771E-02  0.1145163E+00
         21   -1    0    0  501  502  0.00000000000E+00  0.00000000000E+00  0.89019213209E+02  0.89019213209E+02  0.00000000000E+00 0. -1.
          1   -1    0    0  502    0 -0.00000000000E+00 -0.00000000000E+00 -0.38149873536E+03  0.38149873536E+03  0.00000000000E+00 0. -1.
         23    2    1    2    0    0 -0.15863606947E+02  0.13627809727E+02 -0.12362596477E+03  0.15702763116E+03  0.94535319118E+02 0.  0.
         23    2    1    2    0    0  0.51105480064E+02  0.19769438752E+02  0.28684071782E+02  0.11007330543E+03  0.91053587476E+02 0.  0.
        -11    1    4    4    0    0 -0.16473347723E+02 -0.19821413012E+02  0.17024035177E+02  0.30888142914E+02  0.00000000000E+00 0.  1.
         11    1    4    4    0    0  0.67578827787E+02  0.39590851763E+02  0.11660036605E+02  0.79185162512E+02  0.00000000000E+00 0. -1.
        -11    1    3    3    0    0 -0.32641818673E+02  0.37890599079E+02 -0.28783169677E+02  0.57703177395E+02  0.00000000000E+00 0. -1.
         11    1    3    3    0    0  0.16778211726E+02 -0.24262789352E+02 -0.94842795090E+02  0.99324453768E+02  0.00000000000E+00 0.  1.
          1    1    1    2  501    0 -0.35241873117E+02 -0.33397248479E+02 -0.19753762916E+03  0.20341701198E+03  0.00000000000E+00 0. -1.
<scales pt_clust_5="13000.00000" pt_clust_6="13000.00000" pt_clust_7="13000.00000" pt_clust_8="13000.00000" pt_clust_9="13000.00000"></scales>
<clustering>
<clus scale="   91.054">  5  6 -1 -1</clus>
<clus scale="   48.553">  5  9 -1 -1</clus>
<clus scale="   94.535">  7  8 -1 -1</clus>
<clus scale="   96.821">  2  7  1 -1</clus>
<clus scale="  264.130">  1  5  2 -1</clus>
</clustering>
</event>
<event>
 9    1  0.3312826E-006  0.1692511E+03  0.7546771E-02  0.1200231E+00
          3   -1    0    0  502    0 -0.00000000000E+00  0.00000000000E+00  0.30186194037E+03  0.30186194037E+03  0.00000000000E+00 0. -1.
         21   -1    0    0  501  502  0.00000000000E+00 -0.00000000000E+00 -0.77321201787E+02  0.77321201787E+02  0.00000000000E+00 0.  1.
         23    2    1    2    0    0  0.38698474203E+02  0.44725022294E+02  0.17283092971E+03  0.20220900005E+03  0.86718221344E+02 0.  0.
         23    2    1    2    0    0 -0.33718925773E+01 -0.55688081491E+02 -0.89982539137E+01  0.10588528979E+03  0.89544368557E+02 0.  0.
        -13    1    4    4    0    0  0.30975247420E+02  0.89491027731E+01 -0.44517399362E+01  0.32547970468E+02  0.00000000000E+00 0.  1.
         13    1    4    4    0    0 -0.34347139997E+02 -0.64637184264E+02 -0.45465139775E+01  0.73337319319E+02  0.00000000000E+00 0. -1.
        -13    1    3    3    0    0  0.48289328055E+02  0.18858669750E+02  0.37215671352E+02  0.63816258296E+02  0.00000000000E+00 0.  1.
         13    1    3    3    0    0 -0.95908538513E+01  0.25866352543E+02  0.13561525836E+03  0.13839274176E+03  0.00000000000E+00 0. -1.
          3    1    1    2  501    0 -0.35326581626E+02  0.10963059197E+02  0.60708062791E+02  0.71088852320E+02  0.00000000000E+00 0. -1.
<scales pt_clust_5="13000.00000" pt_clust_6="13000.00000" pt_clust_7="13000.00000" pt_clust_8="13000.00000" pt_clust_9="13000.00000"></scales>
<clustering>
<clus scale="   86.718">  7  8 -1 -1</clus>
<clus scale="   89.544">  5  6 -1 -1</clus>
<clus scale="   36.989">  5  9 -1 -1</clus>
<clus scale="  104.966">  1  7  2 -1</clus>
<clus scale="  169.251">  2  5  1 -1</clus>
</clustering>
</event>
<event>
 9    1  0.3312826E-006  0.9013278E+03  0.7546771E-02  0.9670405E-01
          1   -1    0    0  502    0 -0.00000000000E+00  0.00000000000E+00  0.12107654663E+04  0.12107654663E+04  0.00000000000E+00 0. -1.
         21   -1    0    0  501  502  0.00000000000E+00 -0.00000000000E+00 -0.39911254679E+03  0.39911254679E+03  0.00000000000E+00 0. -1.
         23    2    1    2    0    0 -0.66583091230E+00  0.37279000138E+03  0.55129679360E+03  0.67170050451E+03  0.90997717935E+02 0.  0.
         23    2    1    2    0    0  0.30187444176E+03 -0.17778408840E+03 -0.14828980801E+03  0.39435269060E+03  0.10386922910E+03 0.  0.
        -13    1    3    3    0    0  0.19975881380E+02  0.33880868054E+03  0.52063633281E+03  0.62149219536E+03  0.00000000000E+00 0. -1.
         13    1    3    3    0    0 -0.20641712293E+02  0.33981320839E+02  0.30660460782E+02  0.50208309150E+02  0.00000000000E+00 0.  1.
        -13    1    4    4    0    0  0.27125146114E+03 -0.12678157407E+03 -0.94031523045E+02  0.31383570546E+03  0.00000000000E+00 0. -1.
         13    1    4    4    0    0  0.30622980616E+02 -0.51002514330E+02 -0.54258284967E+02  0.80516985148E+02  0.00000000000E+00 0.  1.
          1    1    1    2  501    0 -0.30120861084E+03 -0.19500591298E+03  0.40864593398E+03  0.54382481802E+03  0.00000000000E+00 0. -1.
<scales pt_clust_5="13000.00000" pt_clust_6="13000.00000" pt_clust_7="13000.00000" pt_clust_8="13000.00000" pt_clust_9="13000.00000"></scales>
<clustering>
<clus scale="   90.998">  5  6 -1 -1</clus>
<clus scale="  103.869">  7  8 -1 -1</clus>
<clus scale="  358.823">  7  9 -1 -1</clus>
<clus scale="  383.736">  1  5  2 -1</clus>
<clus scale="  901.328">  2  5  1 -1</clus>
</clustering>
</event>
<event>
 9    1  0.3312826E-006  0.1517117E+03  0.7546771E-02  0.1219208E+00
         21   -1    0    0  501  502  0.00000000000E+00  0.00000000000E+00  0.10112548297E+03  0.10112548297E+03  0.00000000000E+00 0.  1.
          2   -1    0    0  502    0 -0.00000000000E+00 -0.00000000000E+00 -0.26228519943E+03  0.26228519943E+03  0.00000000000E+00 0. -1.
         23    2    1    2    0    0  0.36280933110E+02  0.15610500524E+02 -0.18583671086E+03  0.20970510417E+03  0.88774736156E+02 0.  0.
         23    2    1    2    0    0 -0.33997515746E+02  0.68399044167E+01  0.57710828536E+02  0.11369971772E+03  0.91621344186E+02 0.  0.
        -11    1    4    4    0    0 -0.24078824439E+02  0.44932687590E+02  0.53843045938E+02  0.74147217050E+02  0.00000000000E+00 0. -1.
         11    1    4    4    0    0 -0.99186913068E+01 -0.38092783173E+02  0.38677825981E+01  0.39552500671E+02  0.00000000000E+00 0.  1.
        -11    1    3    3    0    0 -0.28166157974E+02  0.27383468513E+01 -0.33869059227E+02  0.44135520518E+02  0.00000000000E+00 0.  1.
         11    1    3    3    0    0  0.64447091084E+02  0.12872153673E+02 -0.15196765163E+03  0.16556958365E+03  0.00000000000E+00 0. -1.
          2    1    1    2  501    0 -0.22834173644E+01 -0.22450404941E+02 -0.33033834140E+02  0.40005860506E+02  0.00000000000E+00 0. -1.
<scales pt_clust_5="13000.00000" pt_clust_6="13000.00000" pt_clust_7="13000.00000" pt_clust_8="13000.00000" pt_clust_9="13000.00000"></scales>
<clustering>
<clus scale="   88.775">  7  8 -1 -1</clus>
<clus scale="   91.621">  5  6 -1 -1</clus>
<clus scale="   22.566">  5  9 -1 -1</clus>
<clus scale="   97.165">  2  7  1 -1</clus>
<clus scale="  151.712">  1  5  2 -1</clus>
</clustering>
</event>
<event>
 9    1  0.3312826E-006  0.2707888E+03  0.7546771E-02  0.1141637E+00
         21   -1    0    0  501  502  0.00000000000E+00  0.00000000000E+00  0.56440258621E+02  0.56440258621E+02  0.00000000000E+00 0.  1.
         -1   -1    0    0    0  501 -0.00000000000E+00 -0.00000000000E+00 -0.62377145967E+03  0.62377145967E+03  0.00000000000E+00 0.  1.
         23    2    1    2    0    0  0.11102278467E+02  0.15576002886E+02 -0.21198425014E+03  0.23344774083E+03  0.95888752939E+02 0.  0.
         23    2    1    2    0    0  0.17604770747E+02 -0.48559119648E+02 -0.38161359194E+03  0.39575498711E+03  0.91242315926E+02 0.  0.
        -13    1    3    3    0    0  0.29115183426E+02  0.48337252236E+02 -0.93533933089E+02  0.10923726699E+03  0.00000000000E+00 0.  1.
         13    1    3    3    0    0 -0.18012904959E+02 -0.32761249350E+02 -0.11845031705E+03  0.12421047385E+03  0.00000000000E+00 0. -1.
        -13    1    4    4    0    0  0.40857581308E+02 -0.61381136373E+02 -0.22140063852E+03  0.23335644107E+03  0.00000000000E+00 0.  1.
         13    1    4    4    0    0 -0.23252810561E+02  0.12822016724E+02 -0.16021295342E+03  0.16239854604E+03  0.00000000000E+00 0. -1.
         -1    1    1    2    0  502 -0.28707049214E+02  0.32983116763E+02  0.26266641025E+02  0.51008990352E+02  0.00000000000E+00 0.  1.
<scales pt_clust_5="13000.00000" pt_clust_6="13000.00000" pt_clust_7="13000.00000" pt_clust_8="13000.00000" pt_clust_9="13000.00000"></scales>
<clustering>
<clus scale="   91.242">  7  8 -1 -1</clus>
<clus scale="   43.726">  7  9 -1 -1</clus>
<clus scale="   95.889">  5  6 -1 -1</clus>
<clus scale="   97.778">  2  5  1 -1</clus>
<clus scale="  270.789">  1  5  2 -1</clus>
</clustering>
</event>
<event>
 9    1  0.3312826E-006  0.4332294E+03  0.7546771E-02  0.1069920E+00
         21   -1    0    0  501  502  0.00000000000E+00  0.00000000000E+00  0.53575033206E+03  0.53575033206E+03  0.00000000000E+00 0.  1.
         -1   -1    0    0    0  501 -0.00000000000E+00 -0.00000000000E+00 -0.16412505231E+03  0.16412505231E+03  0.00000000000E+00 0.  1.
         23    2    1    2    0    0  0.65496331744E+02  0.11376735703E+03  0.45176648381E+02  0.15742129873E+03  0.74214248883E+02 0.  0.
         23    2    1    2    0    0 -0.14424956743E+03 -0.23352380527E+03  0.20447293412E+03  0.35424741800E+03  0.91327690431E+02 0.  0.
        -13    1    3    3    0    0  0.20050703397E+02  0.36927623603E+02  0.53194699373E+02  0.67789056145E+02  0.00000000000E+00 0.  1.
         13    1    3    3    0    0  0.45445628346E+02  0.76839733431E+02 -0.80180509917E+01  0.89632242587E+02  0.00000000000E+00 0. -1.
        -13    1    4    4    0    0  0.64594778823E+01 -0.54846719348E+02  0.32826999040E+02  0.64245617312E+02  0.00000000000E+00 0. -1.
         13    1    4    4    0    0 -0.15070904531E+03 -0.17867708592E+03  0.17164593508E+03  0.29000180069E+03  0.00000000000E+00 0.  1.
         -1    1    1    2    0  502  0.78753235682E+02  0.11975644824E+03  0.12197569725E+03  0.18820666764E+03  0.00000000000E+00 0.  1.
<scales pt_clust_5="13000.00000" pt_clust_6="13000.00000" pt_clust_7="13000.00000" pt_clust_8="13000.00000" pt_clust_9="13000.00000"></scales>
<clustering>
<clus scale="   74.214">  5  6 -1 -1</clus>
<clus scale="   91.328">  7  8 -1 -1</clus>
<clus scale="  143.331">  7  9 -1 -1</clus>
<clus scale="  150.800">  2  5  1 -1</clus>
<clus scale="  433.229">  1  5  2 -1</clus>
</clustering>
</event>
<event>
 9    1  0.3312826E-006  0.2144339E+03  0.7546771E-02  0.1174828E+00
         -1   -1    0    0    0  501 -0.00000000000E+00  0.00000000000E+00  0.35271945323E+03  0.35271945323E+03  0.00000000000E+00 0.  1.
         21   -1    0    0  501  502  0.00000000000E+00 -0.00000000000E+00 -0.10587953006E+03  0.10587953006E+03  0.00000000000E+00 0.  1.
         23    2    1    2    0    0 -0.18291024933E+02 -0.42108548679E+01  0.22556091091E+03  0.24311183943E+03  0.88731894189E+02 0.  0.
         23    2    1    2    0    0 -0.20210742623E+02  0.38550146494E+02  0.86044817818E+02  0.13268507489E+03  0.91142912583E+02 0.  0.
        -11    1    4    4    0    0 -0.26452755324E+00  0.46796556791E+02  0.97573486059E+02  0.10821540040E+03  0.00000000000E+00 0.  1.
         11    1    4    4    0    0 -0.19946215070E+02 -0.82464102965E+01 -0.11528668240E+02  0.24469674493E+02  0.00000000000E+00 0. -1.
        -13    1    3    3    0    0 -0.40686842182E+02  0.21043493025E+02  0.18376478957E+03  0.18938781802E+03  0.00000000000E+00 0.  1.
         13    1    3    3    0    0  0.22395817249E+02 -0.25254347893E+02  0.41796121340E+02  0.53724021413E+02  0.00000000000E+00 0. -1.
         -1    1    1    2    0  502  0.38501767556E+02 -0.34339291626E+02 -0.64765805570E+02  0.82802068968E+02  0.00000000000E+00 0.  1.
<scales pt_clust_5="13000.00000" pt_clust_6="13000.00000" pt_clust_7="13000.00000" pt_clust_8="13000.00000" pt_clust_9="13000.00000"></scales>
<clustering>
<clus scale="   88.732">  7  8 -1 -1</clus>
<clus scale="   90.695">  1  7  2 -1</clus>
<clus scale="   91.143">  5  6 -1 -1</clus>
<clus scale="   50.778">  5  9 -1 -1</clus>
<clus scale="  214.434">  2  5  1 -1</clus>
</clustering>
</event>
<event>
 9    1  0.3312826E-006  0.1867181E+03  0.7546771E-02  0.1184845E+00
         -4   -1    0    0    0  501 -0.00000000000E+00  0.00000000000E+00  0.86433703303E+02  0.86433703303E+02  0.00000000000E+00 0.  1.
         21   -1    0    0  501  502  0.00000000000E+00 -0.00000000000E+00 -0.31373107251E+03  0.31373107251E+03  0.00000000000E+00 0.  1.
         23    2    1    2    0    0 -0.15147475663E+02 -0.52016786406E+01 -0.48999581941E+01  0.10977838495E+03  0.10849322897E+03 0.  0.
         23    2    1    2    0    0  0.40142041499E+02 -0.43834470542E+02 -0.20826643858E+03  0.23356248190E+03  0.87428137394E+02 0.  0.
        -11    1    4    4    0    0  0.34986916692E+02 -0.41116458306E+01 -0.18264934762E+03  0.18601552128E+03  0.00000000000E+00 0.  1.
         11    1    4    4    0    0  0.51551248068E+01 -0.39722824711E+02 -0.25617090962E+02  0.47546960620E+02  0.00000000000E+00 0. -1.
        -13    1    3    3    0    0  0.35545048768E+01  0.36918440381E+02  0.33357102111E+02  0.49882882899E+02  0.00000000000E+00 0. -1.
         13    1    3    3    0    0 -0.18701980540E+02 -0.42120119021E+02 -0.38257060305E+02  0.59895502049E+02  0.00000000000E+00 0.  1.
         -4    1    1    2    0  502 -0.24994565836E+02  0.49036149183E+02 -0.14130972427E+02  0.56823908962E+02  0.00000000000E+00 0.  1.
<scales pt_clust_5="13000.00000" pt_clust_6="13000.00000" pt_clust_7="13000.00000" pt_clust_8="13000.00000" pt_clust_9="13000.00000"></scales>
<clustering>
<clus scale="   87.428">  5  6 -1 -1</clus>
<clus scale="   55.039">  5  9 -1 -1</clus>
<clus scale="  108.493">  7  8 -1 -1</clus>
<clus scale="  109.669">  1  7  2 -1</clus>
<clus scale="  186.718">  2  5  1 -1</clus>
</clustering>
</event>
<event>
 9    1  0.3312826E-006  0.1608015E+03  0.7546771E-02  0.1209597E+00
         21   -1    0    0  501  502  0.00000000000E+00  0.00000000000E+00  0.59072652969E+02  0.59072652969E+02  0.00000000000E+00 0. -1.
         -1   -1    0    0    0  501 -0.00000000000E+00 -0.00000000000E+00 -0.31367095611E+03  0.31367095611E+03  0.00000000000E+00 0.  1.
         23    2    1    2    0    0  0.38756059221E+01  0.40945151201E+02 -0.48044092267E+02  0.11097697611E+03  0.91192810557E+02 0.  0.
         23    2    1    2    0    0 -0.10695855553E+02 -0.59885986312E+02 -0.21326455847E+03  0.24054636424E+03  0.93166779315E+02 0.  0.
        -11    1    3    3    0    0 -0.34151308669E+02  0.49115215442E+02 -0.37773066908E+02  0.70748998971E+02  0.00000000000E+00 0. -1.
         11    1    3    3    0    0  0.38026914591E+02 -0.81700642413E+01 -0.10271025358E+02  0.40227977142E+02  0.00000000000E+00 0.  1.
        -13    1    4    4    0    0 -0.35156084000E+02  0.94652707353E+01 -0.54043053115E+02  0.65162820551E+02  0.00000000000E+00 0. -1.
         13    1    4    4    0    0  0.24460228447E+02 -0.69351257047E+02 -0.15922150536E+03  0.17538354369E+03  0.00000000000E+00 0.  1.
         -1    1    1    2    0  502  0.68202496305E+01  0.18940835111E+02  0.67103475985E+01  0.21220268721E+02  0.00000000000E+00 0.  1.
<scales pt_clust_5="13000.00000" pt_clust_6="13000.00000" pt_clust_7="13000.00000" pt_clust_8="13000.00000" pt_clust_9="13000.00000"></scales>
<clustering>
<clus scale="   91.193">  5  6 -1 -1</clus>
<clus scale="   93.167">  7  8 -1 -1</clus>
<clus scale="   20.131">  7  9 -1 -1</clus>
<clus scale="  100.038">  2  5  1 -1</clus>
<clus scale="  160.802">  1  5  2 -1</clus>
</clustering>
</event>
<event>
 9    1  0.3312826E-006  0.3502962E+03  0.7546771E-02  0.1106492E+00
         21   -1    0    0  501  502  0.00000000000E+00  0.00000000000E+00  0.17646394024E+03  0.17646394024E+03  0.00000000000E+00 0. -1.
          2   -1    0    0  502    0 -0.00000000000E+00 -0.00000000000E+00 -0.44686205915E+03  0.44686205915E+03  0.00000000000E+00 0. -1.
         23    2    1    2    0    0 -0.59045084890E+02  0.85897393192E+01 -0.25007581778E+03  0.27244077209E+03  0.90144073511E+02 0.  0.
         23    2    1    2    0    0  0.59128779750E+02  0.58857348293E+02 -0.15859271905E+03  0.19704171882E+03  0.81935269433E+02 0.  0.
        -13    1    3    3    0    0  0.95944839987E+01  0.27591854523E+02 -0.33464269426E+02  0.44420962252E+02  0.00000000000E+00 0.  1.
         13    1    3    3    0    0 -0.68639568888E+02 -0.19002115204E+02 -0.21661154835E+03  0.22801980984E+03  0.00000000000E+00 0. -1.
        -13    1    4    4    0    0  0.63238166090E+02  0.27452103660E+02 -0.53452645655E+02  0.87234562952E+02  0.00000000000E+00 0.  1.
         13    1    4    4    0    0 -0.41093863400E+01  0.31405244632E+02 -0.10514007339E+03  0.10980715587E+03  0.00000000000E+00 0. -1.
          2    1    1    2  501    0 -0.83694860789E-01 -0.67447087612E+02  0.13827041791E+03  0.15384350848E+03  0.00000000000E+00 0. -1.
<scales pt_clust_5="13000.00000" pt_clust_6="13000.00000" pt_clust_7="13000.00000" pt_clust_8="13000.00000" pt_clust_9="13000.00000"></scales>
<clustering>
<clus scale="   81.935">  7  8 -1 -1</clus>
<clus scale="   67.447">  7  9 -1 -1</clus>
<clus scale="   90.144">  5  6 -1 -1</clus>
<clus scale="  108.102">  2  5  1 -1</clus>
<clus scale="  350.296">  1  5  2 -1</clus>
</clustering>
</event>
<event>
 9    1  0.3312826E-006  0.4470144E+03  0.7546771E-02  0.1041718E+00
          3   -1    0    0  502    0 -0.00000000000E+00  0.00000000000E+00  0.12563391925E+04  0.12563391925E+04  0.00000000000E+00 0. -1.
         21   -1    0    0  501  502  0.00000000000E+00 -0.00000000000E+00 -0.11305314126E+03  0.11305314126E+03  0.00000000000E+00 0. -1.
         23    2    1    2    0    0  0.17981347284E+02 -0.28992024035E+03  0.40888720258E+03  0.50964614537E+03  0.90406716750E+02 0.  0.
         23    2    1    2    0    0 -0.52235207389E+02  0.79437066575E+02  0.58428092869E+03  0.59895530805E+03  0.91238659431E+02 0.  0.
        -13    1    4    4    0    0 -0.51748929886E+02  0.65215049364E+01  0.15539138930E+03  0.16391145671E+03  0.00000000000E+00 0. -1.
         13    1    4    4    0    0 -0.48627750241E+00  0.72915561639E+02  0.42888953938E+03  0.43504385134E+03  0.00000000000E+00 0.  1.
        -13    1    3    3    0    0  0.56989284441E+01 -0.39129846911E+02  0.14510256829E+02  0.42120900488E+02  0.00000000000E+00 0.  1.
         13    1    3    3    0    0  0.12282418840E+02 -0.25079039344E+03  0.39437694576E+03  0.46752524488E+03  0.00000000000E+00 0. -1.
          3    1    1    2  501    0  0.34253860105E+02  0.21048317378E+03  0.15011791995E+03  0.26079088033E+03  0.00000000000E+00 0. -1.
<scales pt_clust_5="13000.00000" pt_clust_6="13000.00000" pt_clust_7="13000.00000" pt_clust_8="13000.00000" pt_clust_9="13000.00000"></scales>
<clustering>
<clus scale="   90.407">  7  8 -1 -1</clus>
<clus scale="   91.239">  5  6 -1 -1</clus>
<clus scale="  213.252">  5  9 -1 -1</clus>
<clus scale="  304.221">  1  7  2 -1</clus>
<clus scale="  447.014">  2  5  1 -1</clus>
</clustering>
</event>
<event>
 9    1  0.3312826E-006  0.1820750E+03  0.7546771E-02  0.1189642E+00
          1   -1    0    0  502    0 -0.00000000000E+00  0.00000000000E+00  0.10284169962E+04  0.10284169962E+04  0.00000000000E+00 0. -1.
         21   -1    0    0  501  502  0.00000000000E+00 -0.00000000000E+00 -0.20287787336E+02  0.20287787336E+02  0.00000000000E+00 0.  1.
         23    2    1    2    0    0  0.11310461186E+02  0.57169789188E+02  0.40145735793E+03  0.41529967910E+03  0.88935380478E+02 0.  0.
         23    2    1    2    0    0 -0.46140783188E+02 -0.81054840937E+02  0.35668259266E+03  0.37987349638E+03  0.91556224441E+02 0.  0.
        -11    1    3    3    0    0  0.17830317437E+02 -0.20233013982E+02  0.74166851821E+02  0.78917786231E+02  0.00000000000E+00 0. -1.
         11    1    3    3    0    0 -0.65198562516E+01  0.77402803169E+02  0.32729050611E+03  0.33638189287E+03  0.00000000000E+00 0.  1.
        -13    1    4    4    0    0 -0.38096409988E+01 -0.34769268437E+02  0.26756003978E+02  0.44037474281E+02  0.00000000000E+00 0.  1.
         13    1    4    4    0    0 -0.42331142189E+02 -0.46285572499E+02  0.32992658869E+03  0.33583602210E+03  0.00000000000E+00 0. -1.
          1    1    1    2  501    0  0.34830322002E+02  0.23885051749E+02  0.24998925831E+03  0.25353160809E+03  0.00000000000E+00 0. -1.
<scales pt_clust_5="13000.00000" pt_clust_6="13000.00000" pt_clust_7="13000.00000" pt_clust_8="13000.00000" pt_clust_9="13000.00000"></scales>
<clustering>
<clus scale="   88.935">  5  6 -1 -1</clus>
<clus scale="   91.556">  7  8 -1 -1</clus>
<clus scale="   42.233">  7  9 -1 -1</clus>
<clus scale="  106.329">  1  5  2 -1</clus>
<clus scale="  182.075">  2  5  1 -1</clus>
</clustering>
</event>
<event>
 9    1  0.3312826E-006  0.2879716E+03  0.7546771E-02  0.1106768E+00
          2   -1    0    0  502    0 -0.00000000000E+00  0.00000000000E+00  0.52098871523E+03  0.52098871523E+03  0.00000000000E+00 0. -1.
         21   -1    0    0  501  502  0.00000000000E+00 -0.00000000000E+00 -0.12143455326E+03  0.12143455326E+03  0.00000000000E+00 0. -1.
         23    2    1    2    0    0 -0.16093046502E+03 -0.41605685178E+02  0.71754994894E+02  0.20609779270E+03  0.98477780502E+02 0.  0.
         23    2    1    2    0    0 -0.18301146851E+02  0.20840992197E+02  0.17773453171E+03  0.20164582615E+03  0.91116389908E+02 0.  0.
        -11    1    4    4    0    0 -0.15351727303E+02 -0.17732213722E+02  0.41699496389E+01  0.23822162258E+02  0.00000000000E+00 0. -1.
         11    1    4    4    0    0 -0.29494195475E+01  0.38573205918E+02  0.17356458207E+03  0.17782366389E+03  0.00000000000E+00 0.  1.
        -11    1    3    3    0    0 -0.38869518287E+02 -0.11050373748E+02 -0.24870970734E+02  0.47450135901E+02  0.00000000000E+00 0.  1.
         11    1    3    3    0    0 -0.12206094673E+03 -0.30555311431E+02  0.96625965627E+02  0.15864765680E+03  0.00000000000E+00 0. -1.
          2    1    1    2  501    0  0.17923161187E+03  0.20764692982E+02  0.15006463536E+03  0.23467964964E+03  0.00000000000E+00 0. -1.
<scales pt_clust_5="13000.00000" pt_clust_6="13000.00000" pt_clust_7="13000.00000" pt_clust_8="13000.00000" pt_clust_9="13000.00000"></scales>
<clustering>
<clus scale="   91.116">  5  6 -1 -1</clus>
<clus scale="   98.478">  7  8 -1 -1</clus>
<clus scale="  180.431">  5  9 -1 -1</clus>
<clus scale="  193.203">  1  7  2 -1</clus>
<clus scale="  287.972">  2  5  1 -1</clus>
</clustering>
</event>
<event>
 9    1  0.3312826E-006  0.3103433E+03  0.7546771E-02  0.1113901E+00
         21   -1    0    0  501  502  0.00000000000E+00  0.00000000000E+00  0.14242331021E+03  0.14242331021E+03  0.00000000000E+00 0.  1.
         -4   -1    0    0    0  501 -0.00000000000E+00 -0.00000000000E+00 -0.34982617802E+03  0.34982617802E+03  0.00000000000E+00 0.  1.
         23    2    1    2    0    0 -0.80302839578E+02 -0.36513234176E+02 -0.10283715745E+03  0.16476367780E+03  0.93754073266E+02 0.  0.
         23    2    1    2    0    0  0.55686795373E+01  0.86684570554E+02 -0.17270516837E+03  0.21459053414E+03  0.93149327404E+02 0.  0.
        -11    1    3    3    0    0  0.12989951043E+02 -0.18858544538E+02  0.23991846485E+01  0.23024760958E+02  0.00000000000E+00 0. -1.
         11    1    3    3    0    0 -0.93292790621E+02 -0.17654689638E+02 -0.10523634210E+03  0.14173891684E+03  0.00000000000E+00 0.  1.
        -13    1    4    4    0    0 -0.48128307188E+01  0.10540033310E+03 -0.14996576516E+03  0.18336336678E+03  0.00000000000E+00 0.  1.
         13    1    4    4    0    0  0.10381510256E+02 -0.18715762544E+02 -0.22739403207E+02  0.31227167355E+02  0.00000000000E+00 0. -1.
         -4    1    1    2    0  502  0.74734160041E+02 -0.50171336378E+02  0.68139458016E+02  0.11289527630E+03  0.00000000000E+00 0.  1.
<scales pt_clust_5="13000.00000" pt_clust_6="13000.00000" pt_clust_7="13000.00000" pt_clust_8="13000.00000" pt_clust_9="13000.00000"></scales>
<clustering>
<clus scale="   93.149">  7  8 -1 -1</clus>
<clus scale="   90.013">  7  9 -1 -1</clus>
<clus scale="   93.754">  5  6 -1 -1</clus>
<clus scale="  128.731">  2  5  1 -1</clus>
<clus scale="  310.343">  1  5  2 -1</clus>
</clustering>
</event>
<event>
 9    1  0.3312826E-006  0.2210764E+03  0.7546771E-02  0.1153720E+00
         21   -1    0    0  501  502  0.00000000000E+00  0.00000000000E+00  0.59032599218E+02  0.59032599218E+02  0.00000000000E+00 0.  1.
          1   -1    0    0  502    0 -0.00000000000E+00 -0.00000000000E+00 -0.54915247334E+03  0.54915247334E+03  0.00000000000E+00 0. -1.
         23    2    1    2    0    0 -0.91529156956E+02  0.47832564756E+02 -0.14188371267E+03  0.19570091541E+03  0.86615931250E+02 0.  0.
         23    2    1    2    0    0 -0.26399425450E+02 -0.32642962637E+02 -0.19476254268E+03  0.21833981338E+03  0.89315919069E+02 0.  0.
        -11    1    3    3    0    0 -0.29464794221E+02  0.22230564478E+02 -0.11928021861E+03  0.12486049274E+03  0.00000000000E+00 0. -1.
         11    1    3    3    0    0 -0.62064362735E+02  0.25602000279E+02 -0.22603494059E+02  0.70840422667E+02  0.00000000000E+00 0.  1.
        -11    1    4    4    0    0 -0.30627083047E+02 -0.58608524064E+02 -0.99189280098E+02  0.11921195660E+03  0.00000000000E+00 0.  1.
         11    1    4    4    0    0  0.42276575966E+01  0.25965561427E+02 -0.95573262584E+02  0.99127856781E+02  0.00000000000E+00 0. -1.
          1    1    1    2  501    0  0.11792858241E+03 -0.15189602119E+02 -0.15347361876E+03  0.19414434377E+03  0.00000000000E+00 0. -1.
<scales pt_clust_5="13000.00000" pt_clust_6="13000.00000" pt_clust_7="13000.00000" pt_clust_8="13000.00000" pt_clust_9="13000.00000"></scales>
<clustering>
<clus scale="   86.616">  5  6 -1 -1</clus>
<clus scale="   89.316">  7  8 -1 -1</clus>
<clus scale="  118.903">  7  9 -1 -1</clus>
<clus scale="  134.788">  2  5  1 -1</clus>
<clus scale="  221.076">  1  5  2 -1</clus>
</clustering>
</event>
<event>
 9    1  0.3312826E-006  0.3562453E+03  0.7546771E-02  0.1101044E+00
          1   -1    0    0  502    0 -0.00000000000E+00  0.00000000000E+00  0.64109123039E+03  0.64109123039E+03  0.00000000000E+00 0. -1.
         21   -1    0    0  501  502  0.00000000000E+00 -0.00000000000E+00 -0.89736988488E+02  0.89736988488E+02  0.00000000000E+00 0. -1.
         23    2    1    2    0    0  0.28871781539E+02  0.69202533935E+02  0.93830977690E+02  0.15096766688E+03  0.91457168102E+02 0.  0.
         23    2    1    2    0    0 -0.13260211980E+03 -0.46472093567E+01  0.42174332523E+03  0.45255156943E+03  0.96594885403E+02 0.  0.
        -11    1    3    3    0    0  0.61062947608E+02  0.53705549411E+02  0.74790850985E+02  0.11048366847E+03  0.00000000000E+00 0. -1.
         11    1    3    3    0    0 -0.32191166069E+02  0.15496984524E+02  0.19040126704E+02  0.40483998409E+02  0.00000000000E+00 0.  1.
        -13    1    4    4    0    0 -0.33931035304E+02  0.41792417255E+02  0.11436589442E+03  0.12640205339E+03  0.00000000000E+00 0.  1.
         13    1    4    4    0    0 -0.98671084501E+02 -0.46439626612E+02  0.30737743081E+03  0.32614951604E+03  0.00000000000E+00 0. -1.
          1    1    1    2  501    0  0.10373033827E+03 -0.64555324579E+02  0.35779938981E+02  0.12730898257E+03  0.00000000000E+00 0. -1.
<scales pt_clust_5="13000.00000" pt_clust_6="13000.00000" pt_clust_7="13000.00000" pt_clust_8="13000.00000" pt_clust_9="13000.00000"></scales>
<clustering>
<clus scale="   91.457">  5  6 -1 -1</clus>
<clus scale="   96.595">  7  8 -1 -1</clus>
<clus scale="  118.267">  1  5  2 -1</clus>
<clus scale="  120.844">  7  9 -1 -1</clus>
<clus scale="  356.245">  2  5  1 -1</clus>
</clustering>
</event>
<event>
 9    1  0.3312826E-006  0.6048923E+03  0.7546771E-02  0.1043767E+00
         21   -1    0    0  501  502  0.00000000000E+00  0.00000000000E+00  0.55807035697E+02  0.55807035697E+02  0.00000000000E+00 0. -1.
          3   -1    0    0  502    0 -0.00000000000E+00 -0.00000000000E+00 -0.26258066313E+04  0.26258066313E+04  0.00000000000E+00 0. -1.
         23    2    1    2    0    0  0.66903311015E+02  0.26436735261E+02 -0.16379769182E+03  0.20054487470E+03  0.90628962953E+02 0.  0.
         23    2    1    2    0    0 -0.14631213434E+03 -0.27060483527E+03 -0.16949997996E+04  0.17249390050E+04  0.88068341183E+02 0.  0.
        -13    1    3    3    0    0  0.28316536299E+02 -0.25103919164E+02 -0.19579614994E+02  0.42607444287E+02  0.00000000000E+00 0.  1.
         13    1    3    3    0    0  0.38586774716E+02  0.51540654425E+02 -0.14421807682E+03  0.15793743041E+03  0.00000000000E+00 0. -1.
        -13    1    4    4    0    0 -0.62672112331E+02 -0.20241163969E+03 -0.11497980137E+04  0.11691594150E+04  0.00000000000E+00 0. -1.
         13    1    4    4    0    0 -0.83640022005E+02 -0.68193195585E+02 -0.54520178591E+03  0.55577958992E+03  0.00000000000E+00 0.  1.
          3    1    1    2  501    0  0.79408823322E+02  0.24416810001E+03 -0.71120210421E+03  0.75612978735E+03  0.00000000000E+00 0. -1.
<scales pt_clust_5="13000.00000" pt_clust_6="13000.00000" pt_clust_7="13000.00000" pt_clust_8="13000.00000" pt_clust_9="13000.00000"></scales>
<clustering>
<clus scale="   88.068">  7  8 -1 -1</clus>
<clus scale="   90.629">  5  6 -1 -1</clus>
<clus scale="  115.709">  2  5  1 -1</clus>
<clus scale="  271.029">  7  9 -1 -1</clus>
<clus scale="  604.892">  1  5  2 -1</clus>
</clustering>
</event>
<event>
 9    1  0.3312826E-006  0.4308318E+03  0.7546771E-02  0.1074227E+00
         21   -1    0    0  501  502  0.00000000000E+00  0.00000000000E+00  0.90863488355E+02  0.90863488355E+02  0.00000000000E+00 0.  1.
          2   -1    0    0  502    0 -0.00000000000E+00 -0.00000000000E+00 -0.12752186248E+04  0.12752186248E+04  0.00000000000E+00 0.  1.
         23    2    1    2    0    0 -0.80310120318E+02  0.56603050847E+02 -0.71943439991E+03  0.73223089336E+03  0.94459539626E+02 0.  0.
         23    2    1    2    0    0  0.71637817268E+02 -0.21231692102E+03 -0.39703730575E+03  0.46376248298E+03  0.85009215093E+02 0.  0.
        -11    1    3    3    0    0 -0.76348070614E+02 -0.27995725888E+01 -0.43052138475E+03  0.43724767378E+03  0.00000000000E+00 0.  1.
         11    1    3    3    0    0 -0.39620497041E+01  0.59402623436E+02 -0.28891301516E+03  0.29498321958E+03  0.00000000000E+00 0. -1.
        -13    1    4    4    0    0  0.17671667088E+02 -0.76220763440E+02 -0.68151067956E+02  0.10376155676E+03  0.00000000000E+00 0. -1.
         13    1    4    4    0    0  0.53966150180E+02 -0.13609615758E+03 -0.32888623779E+03  0.36000092623E+03  0.00000000000E+00 0.  1.
          2    1    1    2  501    0  0.86723030500E+01  0.15571387017E+03 -0.67883430736E+02  0.17008873676E+03  0.00000000000E+00 0.  1.
<scales pt_clust_5="13000.00000" pt_clust_6="13000.00000" pt_clust_7="13000.00000" pt_clust_8="13000.00000" pt_clust_9="13000.00000"></scales>
<clustering>
<clus scale="   85.009">  7  8 -1 -1</clus>
<clus scale="   94.460">  5  6 -1 -1</clus>
<clus scale="  136.295">  2  5  1 -1</clus>
<clus scale="  168.199">  7  9 -1 -1</clus>
<clus scale="  430.832">  1  5  2 -1</clus>
</clustering>
</event>
<event>
 9    1  0.3312826E-006  0.2212368E+03  0.7546771E-02  0.1161280E+00
          1   -1    0    0  502    0 -0.00000000000E+00  0.00000000000E+00  0.63103583284E+03  0.63103583284E+03  0.00000000000E+00 0. -1.
         21   -1    0    0  501  502  0.00000000000E+00 -0.00000000000E+00 -0.48543932898E+02  0.48543932898E+02  0.00000000000E+00 0.  1.
         23    2    1    2    0    0  0.63288750913E+02 -0.51821148683E+01  0.10823597544E+03  0.15625919047E+03  0.93110621952E+02 0.  0.
         23    2    1    2    0    0 -0.28482400148E+02  0.29448134548E+02  0.47028880701E+03  0.48070532229E+03  0.90706147170E+02 0.  0.
        -11    1    3    3    0    0 -0.45361273928E+01 -0.22969869684E+02 -0.41644789366E+01  0.23780964022E+02  0.00000000000E+00 0.  1.
         11    1    3    3    0    0  0.67824878306E+02  0.17787754815E+02  0.11240045438E+03  0.13247822645E+03  0.00000000000E+00 0. -1.
        -13    1    4    4    0    0  0.90462906313E+01  0.53933022023E+02  0.26462425195E+03  0.27021584143E+03  0.00000000000E+00 0. -1.
         13    1    4    4    0    0 -0.37528690779E+02 -0.24484887475E+02  0.20566455506E+03  0.21048948086E+03  0.00000000000E+00 0.  1.
          1    1    1    2  501    0 -0.34806350765E+02 -0.24266019680E+02  0.39671174854E+01  0.42615252971E+02  0.00000000000E+00 0. -1.
<scales pt_clust_5="13000.00000" pt_clust_6="13000.00000" pt_clust_7="13000.00000" pt_clust_8="13000.00000" pt_clust_9="13000.00000"></scales>
<clustering>
<clus scale="   90.706">  7  8 -1 -1</clus>
<clus scale="   42.430">  7  9 -1 -1</clus>
<clus scale="   93.111">  5  6 -1 -1</clus>
<clus scale="  112.703">  1  5  2 -1</clus>
<clus scale="  221.237">  2  5  1 -1</clus>
</clustering>
</event>
<event>
 9    1  0.3312826E-006  0.1512823E+03  0.7546771E-02  0.1209858E+00
         21   -1    0    0  501  502  0.00000000000E+00  0.00000000000E+00  0.43854268557E+02  0.43854268557E+02  0.00000000000E+00 0. -1.
          2   -1    0    0  502    0 -0.00000000000E+00 -0.00000000000E+00 -0.46368848912E+03  0.46368848912E+03  0.00000000000E+00 0. -1.
         23    2    1    2    0    0  0.14312059618E+02 -0.58020073582E+02 -0.10842777851E+03  0.16133427098E+03  0.10344563718E+03 0.  0.
         23    2    1    2    0    0 -0.46997018425E+02  0.58616666535E+02 -0.24880602172E+03  0.27558642866E+03  0.91645021034E+02 0.  0.
        -11    1    4    4    0    0 -0.46882953062E+02  0.82275112681E+02 -0.20444578186E+03  0.22531152473E+03  0.00000000000E+00 0. -1.
         11    1    4    4    0    0 -0.11406536323E+00 -0.23658446146E+02 -0.44360239856E+02  0.50274903929E+02  0.00000000000E+00 0.  1.
        -11    1    3    3    0    0  0.37081033774E+02 -0.57887156190E+02 -0.11805581794E+03  0.13661296450E+03  0.00000000000E+00 0.  1.
         11    1    3    3    0    0 -0.22768974155E+02 -0.13291739152E+00  0.96280394339E+01  0.24721306488E+02  0.00000000000E+00 0. -1.
          2    1    1    2  501    0  0.32684958807E+02 -0.59659295340E+00 -0.62600420328E+02  0.70622058032E+02  0.00000000000E+00 0. -1.
<scales pt_clust_5="13000.00000" pt_clust_6="13000.00000" pt_clust_7="13000.00000" pt_clust_8="13000.00000" pt_clust_9="13000.00000"></scales>
<clustering>
<clus scale="   91.645">  5  6 -1 -1</clus>
<clus scale="   32.690">  5  9 -1 -1</clus>
<clus scale="  103.446">  7  8 -1 -1</clus>
<clus scale="  119.466">  2  7  1 -1</clus>
<clus scale="  151.282">  1  5  2 -1</clus>
</clustering>
</event>
<event>
 9    1  0.3312826E-006  0.2101173E+03  0.7546771E-02  0.1162612E+00
          2   -1    0    0  502    0 -0.00000000000E+00  0.00000000000E+00  0.45409026378E+03  0.45409026378E+03  0.00000000000E+00 0. -1.
         21   -1    0    0  501  502  0.00000000000E+00 -0.00000000000E+00 -0.64298105887E+02  0.64298105887E+02  0.00000000000E+00 0. -1.
         23    2    1    2    0    0  0.89443004093E+02 -0.43197653271E+01  0.18706663631E+03  0.22641762247E+03  0.90842181768E+02 0.  0.
         23    2    1    2    0    0 -0.96237167119E+02 -0.26327711928E+02  0.21482536654E+03  0.25832799521E+03  0.10309546184E+03 0.  0.
        -11    1    3    3    0    0  0.33874454627E+02 -0.43794050860E+02  0.11253492437E+03  0.12541733042E+03  0.00000000000E+00 0. -1.
         11    1    3    3    0    0  0.55568549466E+02  0.39474285533E+02  0.74531711943E+02  0.10100029205E+03  0.00000000000E+00 0.  1.
        -13    1    4    4    0    0 -0.39554598551E+02 -0.43913035345E+02  0.18014086057E+03  0.18958810771E+03  0.00000000000E+00 0. -1.
         13    1    4    4    0    0 -0.56682568568E+02  0.17585323417E+02  0.34684505973E+02  0.68739887502E+02  0.00000000000E+00 0.  1.
          2    1    1    2  501    0  0.67941630261E+01  0.30647477255E+02 -0.12099844959E+02  0.33642751988E+02  0.00000000000E+00 0. -1.
<scales pt_clust_5="13000.00000" pt_clust_6="13000.00000" pt_clust_7="13000.00000" pt_clust_8="13000.00000" pt_clust_9="13000.00000"></scales>
<clustering>
<clus scale="   90.842">  5  6 -1 -1</clus>
<clus scale="  103.095">  7  8 -1 -1</clus>
<clus scale="   31.392">  7  9 -1 -1</clus>
<clus scale="  127.558">  1  5  2 -1</clus>
<clus scale="  210.117">  2  5  1 -1</clus>
</clustering>
</event>
<event>
 9    1  0.3312826E-006  0.2038865E+03  0.7546771E-02  0.1179388E+00
         21   -1    0    0  501  502  0.00000000000E+00  0.00000000000E+00  0.38908786388E+02  0.38908786388E+02  0.00000000000E+00 0.  1.
          2   -1    0    0  502    0 -0.00000000000E+00 -0.00000000000E+00 -0.57909883917E+03  0.57909883917E+03  0.00000000000E+00 0. -1.
         23    2    1    2    0    0  0.83211024196E+01 -0.28274428234E+02 -0.19780323107E+03  0.21951239032E+03  0.90503520623E+02 0.  0.
         23    2    1    2    0    0  0.63162625544E+02  0.66532763510E+02 -0.20835883691E+03  0.24185193250E+03  0.81626138281E+02 0.  0.
        -11    1    3    3    0    0  0.29153212194E+02  0.20965783134E+02 -0.44670192884E+02  0.57314046934E+02  0.00000000000E+00 0.  1.
         11    1    3    3    0    0 -0.20832109775E+02 -0.49240211368E+02 -0.15313303819E+03  0.16219834339E+03  0.00000000000E+00 0. -1.
        -13    1    4    4    0    0  0.34139414833E+01  0.62591716627E+02 -0.11400141657E+03  0.13009881232E+03  0.00000000000E+00 0.  1.
         13    1    4    4    0    0  0.59748684061E+02  0.39410468827E+01 -0.94357420335E+02  0.11175312018E+03  0.00000000000E+00 0. -1.
          2    1    1    2  501    0 -0.71483727963E+02 -0.38258335276E+02 -0.13402798480E+03  0.15664330273E+03  0.00000000000E+00 0. -1.
<scales pt_clust_5="13000.00000" pt_clust_6="13000.00000" pt_clust_7="13000.00000" pt_clust_8="13000.00000" pt_clust_9="13000.00000"></scales>
<clustering>
<clus scale="   81.626">  7  8 -1 -1</clus>
<clus scale="   81.078">  7  9 -1 -1</clus>
<clus scale="   90.504">  5  6 -1 -1</clus>
<clus scale="   95.182">  2  5  1 -1</clus>
<clus scale="  203.887">  1  5  2 -1</clus>
</clustering>
</event>
<event>
 9    1  0.3312826E-006  0.6465311E+03  0.7546771E-02  0.1039123E+00
          2   -1    0    0  502    0 -0.00000000000E+00  0.00000000000E+00  0.15104357522E+04  0.15104357522E+04  0.00000000000E+00 0. -1.
         21   -1    0    0  501  502  0.00000000000E+00 -0.00000000000E+00 -0.99477998030E+02  0.99477998030E+02  0.00000000000E+00 0. -1.
         23    2    1    2    0    0  0.25437067411E+02 -0.49462002835E+02  0.36034841757E+03  0.37630828194E+03  0.93077424142E+02 0.  0.
         23    2    1    2    0    0 -0.20549914723E+03  0.21724604070E+03  0.26275112958E+03  0.40819987689E+03  0.90350659607E+02 0.  0.
        -11    1    3    3    0    0  0.53004357483E+02 -0.50110034312E+02  0.31414352396E+03  0.32250059085E+03  0.00000000000E+00 0. -1.
         11    1    3    3    0    0 -0.27567290072E+02  0.64803147683E+00  0.46204893611E+02  0.53807691088E+02  0.00000000000E+00 0.  1.
        -13    1    4    4    0    0 -0.50443962145E+02  0.84938782371E+02  0.13628268694E+03  0.16832159940E+03  0.00000000000E+00 0.  1.
         13    1    4    4    0    0 -0.15505518508E+03  0.13230725832E+03  0.12646844264E+03  0.23987827749E+03  0.00000000000E+00 0. -1.
          2    1    1    2  501    0  0.18006207981E+03 -0.16778403786E+03  0.78785820703E+03  0.82540559141E+03  0.00000000000E+00 0. -1.
<scales pt_clust_5="13000.00000" pt_clust_6="13000.00000" pt_clust_7="13000.00000" pt_clust_8="13000.00000" pt_clust_9="13000.00000"></scales>
<clustering>
<clus scale="   90.351">  7  8 -1 -1</clus>
<clus scale="   93.077">  5  6 -1 -1</clus>
<clus scale="  108.429">  1  5  2 -1</clus>
<clus scale="  283.389">  7  9 -1 -1</clus>
<clus scale="  646.531">  2  5  1 -1</clus>
</clustering>
</event>
<event>
 9    1  0.3312826E-006  0.1674874E+03  0.7546771E-02  0.1200424E+00
         21   -1    0    0  501  502  0.00000000000E+00  0.00000000000E+00  0.40556847148E+03  0.40556847148E+03  0.00000000000E+00 0.  1.
         -4   -1    0    0    0  501 -0.00000000000E+00 -0.00000000000E+00 -0.57525518037E+02  0.57525518037E+02  0.00000000000E+00 0.  1.
         23    2    1    2    0    0  0.27209250661E+02 -0.51668943729E+02  0.45057822360E+02  0.11689747825E+03  0.90690627945E+02 0.  0.
         23    2    1    2    0    0  0.40529111620E+02  0.28859276581E+01  0.15526355728E+03  0.17652055025E+03  0.73496904520E+02 0.  0.
        -13    1    3    3    0    0  0.48326185678E+02 -0.64319612285E+01  0.45910885538E+02  0.66967154324E+02  0.00000000000E+00 0.  1.
         13    1    3    3    0    0 -0.21116935017E+02 -0.45236982500E+02 -0.85306317833E+00  0.49930323922E+02  0.00000000000E+00 0. -1.
        -13    1    4    4    0    0  0.52005258818E+02 -0.22043234963E+02  0.10152872962E+03  0.11618319194E+03  0.00000000000E+00 0. -1.
         13    1    4    4    0    0 -0.11476147198E+02  0.24929162621E+02  0.53734827657E+02  0.60337358302E+02  0.00000000000E+00 0.  1.
         -4    1    1    2    0  502 -0.67738362281E+02  0.48783016071E+02  0.14772157381E+03  0.16967596102E+03  0.00000000000E+00 0.  1.
<scales pt_clust_5="13000.00000" pt_clust_6="13000.00000" pt_clust_7="13000.00000" pt_clust_8="13000.00000" pt_clust_9="13000.00000"></scales>
<clustering>
<clus scale="   73.497">  7  8 -1 -1</clus>
<clus scale="   83.476">  7  9 -1 -1</clus>
<clus scale="   90.691">  5  6 -1 -1</clus>
<clus scale="  107.865">  2  5  1 -1</clus>
<clus scale="  167.487">  1  5  2 -1</clus>
</clustering>
</event>
<event>
 9    1  0.3312826E-006  0.3080321E+03  0.7546771E-02  0.1098851E+00
         -4   -1    0    0    0  501 -0.00000000000E+00  0.00000000000E+00  0.11824646025E+03  0.11824646025E+03  0.00000000000E+00 0.  1.
         21   -1    0    0  501  502  0.00000000000E+00 -0.00000000000E+00 -0.10582409611E+04  0.10582409611E+04  0.00000000000E+00 0.  1.
         23    2    1    2    0    0 -0.14892819764E+03 -0.87007713435E+02 -0.68054353492E+01  0.19377404404E+03  0.88046101244E+02 0.  0.
         23    2    1    2    0    0 -0.36176196835E+02 -0.99317958419E+01 -0.34259043168E+03  0.35624099039E+03  0.90178054814E+02 0.  0.
        -11    1    4    4    0    0  0.29917315806E+02 -0.27089997447E+01 -0.82910209129E+02  0.88184393418E+02  0.00000000000E+00 0. -1.
         11    1    4    4    0    0 -0.66093512641E+02 -0.72227960972E+01 -0.25968022255E+03  0.26805659698E+03  0.00000000000E+00 0.  1.
        -11    1    3    3    0    0 -0.15088997492E+03 -0.60437296366E+02 -0.20476761312E+02  0.16382841352E+03  0.00000000000E+00 0.  1.
         11    1    3    3    0    0  0.19617772852E+01 -0.26570417068E+02  0.13671325963E+02  0.29945630514E+02  0.00000000000E+00 0. -1.
         -4    1    1    2    0  502  0.18510439447E+03  0.96939509277E+02 -0.59059863379E+03  0.62647238690E+03  0.00000000000E+00 0.  1.
<scales pt_clust_5="13000.00000" pt_clust_6="13000.00000" pt_clust_7="13000.00000" pt_clust_8="13000.00000" pt_clust_9="13000.00000"></scales>
<clustering>
<clus scale="   88.046">  7  8 -1 -1</clus>
<clus scale="   90.178">  5  6 -1 -1</clus>
<clus scale="  193.655">  1  7  2 -1</clus>
<clus scale="   84.344">  5  9 -1 -1</clus>
<clus scale="  308.032">  2  5  1 -1</clus>
</clustering>
</event>
<event>
 9    1  0.3312826E-006  0.2944943E+03  0.7546771E-02  0.1126378E+00
         -2   -1    0    0    0  501 -0.00000000000E+00  0.00000000000E+00  0.19638585985E+03  0.19638585985E+03  0.00000000000E+00 0.  1.
         21   -1    0    0  501  502  0.00000000000E+00 -0.00000000000E+00 -0.51366136517E+03  0.51366136517E+03  0.00000000000E+00 0.  1.
         23    2    1    2    0    0  0.52198807902E+02 -0.85900144993E+00  0.13253106271E+03  0.17241087689E+03  0.97136885153E+02 0.  0.
         23    2    1    2    0    0  0.87887978602E+02  0.61018359275E+02 -0.23678324724E+03  0.27567758937E+03  0.92110206600E+02 0.  0.
        -11    1    4    4    0    0  0.72750023114E+02  0.25203038792E+01 -0.17363710503E+03  0.18827841629E+03  0.00000000000E+00 0.  1.
         11    1    4    4    0    0  0.15137955489E+02  0.58498055396E+02 -0.63146142203E+02  0.87399173089E+02  0.00000000000E+00 0. -1.
        -13    1    3    3    0    0  0.70986744461E+02  0.15313954807E+02  0.55241138579E+02  0.91242635278E+02  0.00000000000E+00 0.  1.
         13    1    3    3    0    0 -0.18787936558E+02 -0.16172956257E+02  0.77289924132E+02  0.81168241613E+02  0.00000000000E+00 0. -1.
         -2    1    1    2    0  502 -0.14008678650E+03 -0.60159357825E+02 -0.21302332079E+03  0.26195875875E+03  0.00000000000E+00 0.  1.
<scales pt_clust_5="13000.00000" pt_clust_6="13000.00000" pt_clust_7="13000.00000" pt_clust_8="13000.00000" pt_clust_9="13000.00000"></scales>
<clustering>
<clus scale="   92.110">  5  6 -1 -1</clus>
<clus scale="   97.137">  7  8 -1 -1</clus>
<clus scale="  110.277">  1  7  2 -1</clus>
<clus scale="  126.486">  5  9 -1 -1</clus>
<clus scale="  294.494">  2  5  1 -1</clus>
</clustering>
</event>
<event>
 9    1  0.3312826E-006  0.1644196E+03  0.7546771E-02  0.1203982E+00
         21   -1    0    0  501  502  0.00000000000E+00  0.00000000000E+00  0.71056712861E+02  0.71056712861E+02  0.00000000000E+00 0.  1.
          2   -1    0    0  502    0 -0.00000000000E+00 -0.00000000000E+00 -0.40440237068E+03  0.40440237068E+03  0.00000000000E+00 0. -1.
         23    2    1    2    0    0 -0.17420579978E+02  0.41442198450E+02 -0.28523752752E+03  0.30414590076E+03  0.95516225951E+02 0.  0.
         23    2    1    2    0    0  0.20842028671E+02  0.19790667125E+02 -0.18299068444E+02  0.10312410517E+03  0.97332751405E+02 0.  0.
        -11    1    4    4    0    0  0.56678780965E+02  0.81188319572E+01 -0.28669392869E+02  0.64033848326E+02  0.00000000000E+00 0.  1.
         11    1    4    4    0    0 -0.35836752294E+02  0.11671835168E+02  0.10370324425E+02  0.39090256840E+02  0.00000000000E+00 0. -1.
        -13    1    3    3    0    0 -0.15044071340E+02 -0.29256570082E+02 -0.65409253686E+02  0.73216401464E+02  0.00000000000E+00 0.  1.
         13    1    3    3    0    0 -0.23765086372E+01  0.70698768532E+02 -0.21982827384E+03  0.23092949929E+03  0.00000000000E+00 0. -1.
          2    1    1    2  501    0 -0.34214486930E+01 -0.61232865575E+02 -0.29809061850E+02  0.68189077616E+02  0.00000000000E+00 0. -1.
<scales pt_clust_5="13000.00000" pt_clust_6="13000.00000" pt_clust_7="13000.00000" pt_clust_8="13000.00000" pt_clust_9="13000.00000"></scales>
<clustering>
<clus scale="   95.516">  7  8 -1 -1</clus>
<clus scale="   97.333">  5  6 -1 -1</clus>
<clus scale="   61.328">  5  9 -1 -1</clus>
<clus scale="  105.566">  2  7  1 -1</clus>
<clus scale="  164.420">  1  5  2 -1</clus>
</clustering>
</event>
<event>
 9    1  0.3312826E-006  0.3219330E+03  0.7546771E-02  0.1122068E+00
         -1   -1    0    0    0  501 -0.00000000000E+00  0.00000000000E+00  0.31159146320E+03  0.31159146320E+03  0.00000000000E+00 0.  1.
         21   -1    0    0  501  502  0.00000000000E+00 -0.00000000000E+00 -0.14774576160E+03  0.14774576160E+03  0.00000000000E+00 0.  1.
         23    2    1    2    0    0 -0.63075627746E+01 -0.12231993948E+02  0.87703885020E+02  0.12852242786E+03  0.92933503056E+02 0.  0.
         23    2    1    2    0    0  0.52414108291E+02 -0.94697947343E+02  0.13871332045E+03  0.19862168449E+03  0.92164246314E+02 0.  0.
        -13    1    4    4    0    0  0.13215940879E+02 -0.15863490211E+02  0.10057810433E+03  0.10267553986E+03  0.00000000000E+00 0.  1.
         13    1    4    4    0    0  0.39198167411E+02 -0.78834457132E+02  0.38135216121E+02  0.95946144625E+02  0.00000000000E+00 0. -1.
        -13    1    3    3    0    0  0.38316194672E+02 -0.27064244040E+02  0.42762235192E+02  0.63476080835E+02  0.00000000000E+00 0. -1.
         13    1    3    3    0    0 -0.44623757446E+02  0.14832250092E+02  0.44941649828E+02  0.65046347021E+02  0.00000000000E+00 0.  1.
         -1    1    1    2    0  502 -0.46106545516E+02  0.10692994129E+03 -0.62571503881E+02  0.13219311246E+03  0.00000000000E+00 0.  1.
<scales pt_clust_5="13000.00000" pt_clust_6="13000.00000" pt_clust_7="13000.00000" pt_clust_8="13000.00000" pt_clust_9="13000.00000"></scales>
<clustering>
<clus scale="   92.164">  5  6 -1 -1</clus>
<clus scale="   92.934">  7  8 -1 -1</clus>
<clus scale="   93.947">  1  7  2 -1</clus>
<clus scale="  114.967">  5  9 -1 -1</clus>
<clus scale="  321.933">  2  5  1 -1</clus>
</clustering>
</event>
<event>
 9    1  0.3312826E-006  0.2968529E+03  0.7546771E-02  0.1132257E+00
         21   -1    0    0  501  502  0.00000000000E+00  0.00000000000E+00  0.36831521037E+03  0.36831521037E+03  0.00000000000E+00 0. -1.
          4   -1    0    0  502    0 -0.00000000000E+00 -0.00000000000E+00 -0.19697843309E+03  0.19697843309E+03  0.00000000000E+00 0. -1.
         23    2    1    2    0    0  0.13841240172E+02 -0.11949065929E+01 -0.11827473978E+03  0.15056903349E+03  0.92136377413E+02 0.  0.
         23    2    1    2    0    0  0.87787905093E+02  0.36035965816E+02  0.27851062444E+03  0.30671714545E+03  0.86613695679E+02 0.  0.
        -11    1    4    4    0    0  0.19418372510E+02 -0.26785569183E+02  0.48861790933E+02  0.59008597006E+02  0.00000000000E+00 0.  1.
         11    1    4    4    0    0  0.68369532583E+02  0.62821535000E+02  0.22964883350E+03  0.24770854845E+03  0.00000000000E+00 0. -1.
        -13    1    3    3    0    0 -0.26068734029E+01 -0.22278114396E+02 -0.12157414452E+03  0.12362597941E+03  0.00000000000E+00 0. -1.
         13    1    3    3    0    0  0.16448113575E+02  0.21083207803E+02  0.32994047325E+01  0.26943054077E+02  0.00000000000E+00 0.  1.
          4    1    1    2  501    0 -0.10162914527E+03 -0.34841059224E+02  0.11100892624E+02  0.10800746452E+03  0.00000000000E+00 0. -1.
<scales pt_clust_5="13000.00000" pt_clust_6="13000.00000" pt_clust_7="13000.00000" pt_clust_8="13000.00000" pt_clust_9="13000.00000"></scales>
<clustering>
<clus scale="   86.614">  5  6 -1 -1</clus>
<clus scale="   92.136">  7  8 -1 -1</clus>
<clus scale="   93.178">  2  7  1 -1</clus>
<clus scale="   97.691">  5  9 -1 -1</clus>
<clus scale="  296.853">  1  5  2 -1</clus>
</clustering>
</event>
<event>
 9    1  0.3312826E-006  0.1631698E+03  0.7546771E-02  0.1187382E+00
         21   -1    0    0  501  502  0.00000000000E+00  0.00000000000E+00  0.25154554186E+02  0.25154554186E+02  0.00000000000E+00 0. -1.
          2   -1    0    0  502    0 -0.00000000000E+00 -0.00000000000E+00 -0.10174101109E+04  0.10174101109E+04  0.00000000000E+00 0.  1.
         23    2    1    2    0    0 -0.63006857242E+02 -0.10836243980E+03 -0.53382370241E+03  0.55595995784E+03  0.91713941423E+02 0.  0.
         23    2    1    2    0    0  0.27187124802E+02  0.33725645053E+02 -0.24436763053E+03  0.25708957427E+03  0.67104034605E+02 0.  0.
        -11    1    4    4    0    0  0.30568539826E+02 -0.11255384697E+02 -0.13305508772E+03  0.13698458191E+03  0.00000000000E+00 0. -1.
         11    1    4    4    0    0 -0.33814150237E+01  0.44981029750E+02 -0.11131254281E+03  0.12010499237E+03  0.00000000000E+00 0.  1.
        -13    1    3    3    0    0 -0.16370007953E+02  0.15618823415E+02 -0.67751386763E+02  0.71429512203E+02  0.00000000000E+00 0.  1.
         13    1    3    3    0    0 -0.46636849289E+02 -0.12398126321E+03 -0.46607231565E+03  0.48453044564E+03  0.00000000000E+00 0. -1.
          2    1    1    2  501    0  0.35819732439E+02  0.74636794743E+02 -0.21406422375E+03  0.22951513294E+03  0.00000000000E+00 0.  1.
<scales pt_clust_5="13000.00000" pt_clust_6="13000.00000" pt_clust_7="13000.00000" pt_clust_8="13000.00000" pt_clust_9="13000.00000"></scales>
<clustering>
<clus scale="   67.104">  5  6 -1 -1</clus>
<clus scale="   82.787">  5  9 -1 -1</clus>
<clus scale="   91.714">  7  8 -1 -1</clus>
<clus scale="  155.318">  2  7  1 -1</clus>
<clus scale="  163.170">  1  5  2 -1</clus>
</clustering>
</event>
<event>
 9    1  0.3312826E-006  0.2028891E+03  0.7546771E-02  0.1166571E+00
          1   -1    0    0  502    0 -0.00000000000E+00  0.00000000000E+00  0.17953425292E+03  0.17953425292E+03  0.00000000000E+00 0. -1.
         21   -1    0    0  501  502  0.00000000000E+00 -0.00000000000E+00 -0.18986863386E+03  0.18986863386E+03  0.00000000000E+00 0. -1.
         23    2    1    2    0    0 -0.30283817981E+02  0.84940187771E+02  0.74793144319E+02  0.14937858725E+03  0.92671477610E+02 0.  0.
         23    2    1    2    0    0 -0.46617084499E+02 -0.59691146792E+02 -0.34780393436E+02  0.12470328109E+03  0.92763392423E+02 0.  0.
        -11    1    4    4    0    0 -0.32771625439E+01  0.20384862943E+02  0.10332677556E+02  0.23087803209E+02  0.00000000000E+00 0.  1.
         11    1    4    4    0    0 -0.43339921955E+02 -0.80076009735E+02 -0.45113070991E+02  0.10161547788E+03  0.00000000000E+00 0. -1.
        -13    1    3    3    0    0 -0.62356400906E+02  0.40844041904E+02  0.47640274493E+02  0.88465542709E+02  0.00000000000E+00 0. -1.
         13    1    3    3    0    0  0.32072582925E+02  0.44096145867E+02  0.27152869826E+02  0.60913044544E+02  0.00000000000E+00 0.  1.
          1    1    1    2  501    0  0.76900902480E+02 -0.25249040979E+02 -0.50347131828E+02  0.95321018437E+02  0.00000000000E+00 0. -1.
<scales pt_clust_5="13000.00000" pt_clust_6="13000.00000" pt_clust_7="13000.00000" pt_clust_8="13000.00000" pt_clust_9="13000.00000"></scales>
<clustering>
<clus scale="   92.671">  7  8 -1 -1</clus>
<clus scale="   92.763">  5  6 -1 -1</clus>
<clus scale="   80.940">  5  9 -1 -1</clus>
<clus scale="  129.306">  1  7  2 -1</clus>
<clus scale="  202.889">  2  5  1 -1</clus>
</clustering>
</event>
<event>
 9    1  0.3312826E-006  0.3697358E+03  0.7546771E-02  0.1102302E+00
          1   -1    0    0  502    0 -0.00000000000E+00  0.00000000000E+00  0.10041016862E+03  0.10041016862E+03  0.00000000000E+00 0. -1.
         21   -1    0    0  501  502  0.00000000000E+00 -0.00000000000E+00 -0.59846673142E+03  0.59846673142E+03  0.00000000000E+00 0. -1.
         23    2    1    2    0    0  0.42140851200E+02  0.31055763978E+02 -0.39322714828E+02  0.10968988852E+03  0.88007294729E+02 0.  0.
         23    2    1    2    0    0  0.10180827044E+01 -0.12452937948E+03 -0.48384616820E+02  0.16611904786E+03  0.98721142984E+02 0.  0.
        -11    1    4    4    0    0 -0.42221696167E+02 -0.10022822784E+03 -0.26714321465E+02  0.11199117936E+03  0.00000000000E+00 0. -1.
         11    1    4    4    0    0  0.43239778871E+02 -0.24301151639E+02 -0.21670295355E+02  0.54127868502E+02  0.00000000000E+00 0.  1.
        -13    1    3    3    0    0  0.44522185450E+02  0.66345090152E+01 -0.61771735058E+02  0.76432904950E+02  0.00000000000E+00 0.  1.
         13    1    3    3    0    0 -0.23813342502E+01  0.24421254963E+02  0.22449020229E+02  0.33256983568E+02  0.00000000000E+00 0. -1.
          1    1    1    2  501    0 -0.43158933904E+02  0.93473615501E+02 -0.41034923115E+03  0.42306796366E+03  0.00000000000E+00 0. -1.
<scales pt_clust_5="13000.00000" pt_clust_6="13000.00000" pt_clust_7="13000.00000" pt_clust_8="13000.00000" pt_clust_9="13000.00000"></scales>
<clustering>
<clus scale="   88.007">  7  8 -1 -1</clus>
<clus scale="   98.721">  5  6 -1 -1</clus>
<clus scale="  102.399">  1  7  2 -1</clus>
<clus scale="  104.103">  5  9 -1 -1</clus>
<clus scale="  369.736">  2  5  1 -1</clus>
</clustering>
</event>
<event>
 9    1  0.3312826E-006  0.1577194E+03  0.7546771E-02  0.1204227E+00
         21   -1    0    0  501  502  0.00000000000E+00  0.00000000000E+00  0.38662657357E+02  0.38662657357E+02  0.00000000000E+00 0. -1.
          3   -1    0    0  502    0 -0.00000000000E+00 -0.00000000000E+00 -0.49544132483E+03  0.49544132483E+03  0.00000000000E+00 0. -1.
         23    2    1    2    0    0  0.35438573155E+02 -0.66177357511E+02 -0.20398589510E+03  0.23614492409E+03  0.92297587525E+02 0.  0.
         23    2    1    2    0    0 -0.22761727902E+02  0.64335456517E+01 -0.18213032762E+03  0.20456095019E+03  0.90079072690E+02 0.  0.
        -11    1    4    4    0    0 -0.48982122152E+02 -0.22088588898E+02 -0.93643435475E+02  0.10796410078E+03  0.00000000000E+00 0.  1.
         11    1    4    4    0    0  0.26220394251E+02  0.28522134550E+02 -0.88486892146E+02  0.96596849408E+02  0.00000000000E+00 0. -1.
        -13    1    3    3    0    0 -0.18005992784E+02  0.12832504363E+02 -0.54539941757E+02  0.58851458701E+02  0.00000000000E+00 0.  1.
         13    1    3    3    0    0  0.53444565939E+02 -0.79009861874E+02 -0.14944595334E+03  0.17729346539E+03  0.00000000000E+00 0. -1.
          3    1    1    2  501    0 -0.12676845253E+02  0.59743811859E+02 -0.70662444754E+02  0.93398107901E+02  0.00000000000E+00 0. -1.
<scales pt_clust_5="13000.00000" pt_clust_6="13000.00000" pt_clust_7="13000.00000" pt_clust_8="13000.00000" pt_clust_9="13000.00000"></scales>
<clustering>
<clus scale="   90.079">  5  6 -1 -1</clus>
<clus scale="   61.074">  5  9 -1 -1</clus>
<clus scale="   92.298">  7  8 -1 -1</clus>
<clus scale="  118.971">  2  7  1 -1</clus>
<clus scale="  157.719">  1  5  2 -1</clus>
</clustering>
</event>
<event>
 9    1  0.3312826E-006  0.5366004E+03  0.7546771E-02  0.1028215E+00
         -2   -1    0    0    0  501 -0.00000000000E+00  0.00000000000E+00  0.49068949501E+03  0.49068949501E+03  0.00000000000E+00 0.  1.
         21   -1    0    0  501  502  0.00000000000E+00 -0.00000000000E+00 -0.36421591754E+03  0.36421591754E+03  0.00000000000E+00 0.  1.
         23    2    1    2    0    0  0.16571150325E+03  0.18169345712E+03 -0.89576056738E+02  0.27644412277E+03  0.89020606629E+02 0.  0.
         23    2    1    2    0    0  0.13129659841E+02 -0.75754761170E+02  0.32315701523E+03  0.34462553548E+03  0.91788514548E+02 0.  0.
        -11    1    4    4    0    0  0.50695372387E+02 -0.30045453686E+02  0.13285195153E+03  0.14533544335E+03  0.00000000000E+00 0. -1.
         11    1    4    4    0    0 -0.37565712546E+02 -0.45709307484E+02  0.19030506371E+03  0.19929009213E+03  0.00000000000E+00 0.  1.
        -11    1    3    3    0    0  0.42304621527E+02  0.73393372949E+02 -0.72257822624E+02  0.11134388679E+03  0.00000000000E+00 0. -1.
         11    1    3    3    0    0  0.12340688172E+03  0.10830008417E+03 -0.17318234114E+02  0.16510023598E+03  0.00000000000E+00 0.  1.
         -2    1    1    2    0  502 -0.17884116309E+03 -0.10593869595E+03 -0.10710738103E+03  0.23383575429E+03  0.00000000000E+00 0.  1.
<scales pt_clust_5="13000.00000" pt_clust_6="13000.00000" pt_clust_7="13000.00000" pt_clust_8="13000.00000" pt_clust_9="13000.00000"></scales>
<clustering>
<clus scale="   89.021">  7  8 -1 -1</clus>
<clus scale="   91.789">  5  6 -1 -1</clus>
<clus scale="  207.863">  5  9 -1 -1</clus>
<clus scale="  261.529">  1  7  2 -1</clus>
<clus scale="  536.600">  2  5  1 -1</clus>
</clustering>
</event>
<event>
 9    1  0.3312826E-006  0.1202338E+03  0.7546771E-02  0.1252187E+00
         21   -1    0    0  501  502  0.00000000000E+00  0.00000000000E+00  0.35511890457E+02  0.35511890457E+02  0.00000000000E+00 0.  1.
          1   -1    0    0  502    0 -0.00000000000E+00 -0.00000000000E+00 -0.43418080705E+03  0.43418080705E+03  0.00000000000E+00 0. -1.
         23    2    1    2    0    0  0.23014696431E+02  0.29300517292E+02 -0.29374952062E+03  0.31011748798E+03  0.92173092172E+02 0.  0.
         23    2    1    2    0    0 -0.28369606795E+02 -0.88567018312E+01 -0.10013969775E+03  0.13790794919E+03  0.90040921958E+02 0.  0.
        -11    1    3    3    0    0 -0.86447550767E+01  0.56794100477E+02 -0.16548228310E+03  0.17517045316E+03  0.00000000000E+00 0.  1.
         11    1    3    3    0    0  0.31659451508E+02 -0.27493583185E+02 -0.12826723752E+03  0.13494703482E+03  0.00000000000E+00 0. -1.
        -13    1    4    4    0    0  0.13192739645E+02 -0.40487913548E+02 -0.45748820157E+02  0.62500192548E+02  0.00000000000E+00 0. -1.
         13    1    4    4    0    0 -0.41562346440E+02  0.31631211717E+02 -0.54390877598E+02  0.75407756644E+02  0.00000000000E+00 0.  1.
          1    1    1    2  501    0  0.53549103631E+01 -0.20443815461E+02 -0.47796982237E+01  0.21667260341E+02  0.00000000000E+00 0. -1.
<scales pt_clust_5="13000.00000" pt_clust_6="13000.00000" pt_clust_7="13000.00000" pt_clust_8="13000.00000" pt_clust_9="13000.00000"></scales>
<clustering>
<clus scale="   90.041">  7  8 -1 -1</clus>
<clus scale="   21.134">  7  9 -1 -1</clus>
<clus scale="   92.173">  5  6 -1 -1</clus>
<clus scale="   99.419">  2  5  1 -1</clus>
<clus scale="  120.234">  1  5  2 -1</clus>
</clustering>
</event>
<event>
 9    1  0.3312826E-006  0.3455375E+03  0.7546771E-02  0.1080186E+00
          2   -1    0    0  502    0 -0.00000000000E+00  0.00000000000E+00  0.11339723410E+04  0.11339723410E+04  0.00000000000E+00 0. -1.
         21   -1    0    0  501  502  0.00000000000E+00 -0.00000000000E+00 -0.10465031131E+03  0.10465031131E+03  0.00000000000E+00 0. -1.
         23    2    1    2    0    0 -0.91129678536E+02  0.18033526971E+03  0.78204989759E+03  0.81372307704E+03  0.98578780576E+02 0.  0.
         23    2    1    2    0    0 -0.26936665891E+02 -0.23488928824E+02  0.19851868780E+03  0.22261923848E+03  0.94193111135E+02 0.  0.
        -11    1    4    4    0    0 -0.47382667976E+02  0.19493974520E+02  0.81209968553E+02  0.96021826995E+02  0.00000000000E+00 0. -1.
         11    1    4    4    0    0  0.20446002085E+02 -0.42982903344E+02  0.11730871925E+03  0.12659741148E+03  0.00000000000E+00 0.  1.
        -11    1    3    3    0    0 -0.43596019862E+02  0.95340602332E+01  0.11067078634E+03  0.11932951941E+03  0.00000000000E+00 0.  1.
         11    1    3    3    0    0 -0.47533658674E+02  0.17080120948E+03  0.67137911125E+03  0.69439355764E+03  0.00000000000E+00 0. -1.
          2    1    1    2  501    0  0.11806634443E+03 -0.15684634089E+03  0.48753444346E+02  0.20228033684E+03  0.00000000000E+00 0. -1.
<scales pt_clust_5="13000.00000" pt_clust_6="13000.00000" pt_clust_7="13000.00000" pt_clust_8="13000.00000" pt_clust_9="13000.00000"></scales>
<clustering>
<clus scale="   94.193">  5  6 -1 -1</clus>
<clus scale="   98.579">  7  8 -1 -1</clus>
<clus scale="  196.317">  5  9 -1 -1</clus>
<clus scale="  224.818">  1  7  2 -1</clus>
<clus scale="  345.537">  2  5  1 -1</clus>
</clustering>
</event>
<event>
 9    1  0.3312826E-006  0.6093973E+03  0.7546771E-02  0.1027199E+00
          2   -1    0    0  502    0 -0.00000000000E+00  0.00000000000E+00  0.98663134932E+03  0.98663134932E+03  0.00000000000E+00 0. -1.
         21   -1    0    0  501  502  0.00000000000E+00 -0.00000000000E+00 -0.37765715745E+03  0.37765715745E+03  0.00000000000E+00 0.  1.
         23    2    1    2    0    0 -0.14308607953E+03  0.69705819230E+02  0.72148712305E+03  0.74459166430E+03  0.92415098464E+02 0.  0.
         23    2    1    2    0    0  0.18384552041E+03 -0.12859306321E+03 -0.31930830148E+03  0.40085131543E+03  0.91589488511E+02 0.  0.
        -11    1    4    4    0    0  0.19124936817E+03 -0.10964882274E+03 -0.27794007520E+03  0.35475325306E+03  0.00000000000E+00 0.  1.
         11    1    4    4    0    0 -0.74038477603E+01 -0.18944240469E+02 -0.41368226278E+02  0.46098062367E+02  0.00000000000E+00 0. -1.
        -11    1    3    3    0    0 -0.10876492223E+03  0.34951429220E+02  0.63561198631E+03  0.64579718786E+03  0.00000000000E+00 0. -1.
         11    1    3    3    0    0 -0.34321157307E+02  0.34754390009E+02  0.85875136738E+02  0.98794476433E+02  0.00000000000E+00 0.  1.
          2    1    1    2  501    0 -0.40759440878E+02  0.58887243981E+02  0.20679537031E+03  0.21884552704E+03  0.00000000000E+00 0. -1.
<scales pt_clust_5="13000.00000" pt_clust_6="13000.00000" pt_clust_7="13000.00000" pt_clust_8="13000.00000" pt_clust_9="13000.00000"></scales>
<clustering>
<clus scale="   91.589">  5  6 -1 -1</clus>
<clus scale="   71.617">  5  9 -1 -1</clus>
<clus scale="   92.415">  7  8 -1 -1</clus>
<clus scale="  184.046">  1  7  2 -1</clus>
<clus scale="  609.397">  2  5  1 -1</clus>
</clustering>
</event>
<event>
 9    1  0.3312826E-006  0.1918745E+03  0.7546771E-02  0.1168126E+00
          2   -1    0    0  502    0 -0.00000000000E+00  0.00000000000E+00  0.25756711824E+03  0.25756711824E+03  0.00000000000E+00 0. -1.
         21   -1    0    0  501  502  0.00000000000E+00 -0.00000000000E+00 -0.12807528231E+03  0.12807528231E+03  0.00000000000E+00 0. -1.
         23    2    1    2    0    0 -0.49111795376E+02 -0.10509810142E+03 -0.10868147655E+02  0.14790990917E+03  0.91113364717E+02 0.  0.
         23    2    1    2    0    0  0.64951928256E+01  0.14697916895E+02  0.62983343846E+02  0.11133821717E+03  0.90394030279E+02 0.  0.
        -13    1    4    4    0    0 -0.30013525715E+02  0.29061676889E+02  0.60756309126E+01  0.42217367047E+02  0.00000000000E+00 0.  1.
         13    1    4    4    0    0  0.36508718540E+02 -0.14363759994E+02  0.56907712933E+02  0.69120850124E+02  0.00000000000E+00 0. -1.
        -13    1    3    3    0    0  0.12145357316E+02 -0.16555188186E+02 -0.32161669090E+02  0.38157003536E+02  0.00000000000E+00 0.  1.
         13    1    3    3    0    0 -0.61257152692E+02 -0.88542913233E+02  0.21293521435E+02  0.10975290563E+03  0.00000000000E+00 0. -1.
          2    1    1    2  501    0  0.42616602550E+02  0.90400184524E+02  0.77376639740E+02  0.12639427421E+03  0.00000000000E+00 0. -1.
<scales pt_clust_5="13000.00000" pt_clust_6="13000.00000" pt_clust_7="13000.00000" pt_clust_8="13000.00000" pt_clust_9="13000.00000"></scales>
<clustering>
<clus scale="   90.394">  5  6 -1 -1</clus>
<clus scale="   91.113">  7  8 -1 -1</clus>
<clus scale="   99.942">  5  9 -1 -1</clus>
<clus scale="  147.510">  1  7  2 -1</clus>
<clus scale="  191.874">  2  5  1 -1</clus>
</clustering>
</event>
<event>
 9    1  0.3382952E-006  0.4088050E+03  0.7546771E-02  0.1051536E+00
          1   -1    0    0  502    0 -0.00000000000E+00  0.00000000000E+00  0.10017974426E+04  0.10017974426E+04  0.00000000000E+00 0. -1.
         21   -1    0    0  501  502  0.00000000000E+00 -0.00000000000E+00 -0.12806136223E+03  0.12806136223E+03  0.00000000000E+00 0. -1.
         23    2    1    2    0    0  0.17234231199E+03  0.22811827350E+03  0.45200021918E+03  0.54250657707E+03  0.90936070009E+02 0.  0.
         23    2    1    2    0    0  0.22266552766E+02 -0.22474048642E+02  0.21892296860E+03  0.23907758491E+03  0.90719034337E+02 0.  0.
        -11    1    4    4    0    0 -0.31958461092E+02 -0.78810668206E+01  0.12839999290E+03  0.13255192426E+03  0.00000000000E+00 0.  1.
         11    1    4    4    0    0  0.54225013858E+02 -0.14592981821E+02  0.90522975707E+02  0.10652566065E+03  0.00000000000E+00 0. -1.
        -11    1    3    3    0    0  0.19212768580E+02  0.73939285319E+02  0.73199204923E+02  0.10580298668E+03  0.00000000000E+00 0.  1.
         11    1    3    3    0    0  0.15312954341E+03  0.15417898818E+03  0.37880101426E+03  0.43670359039E+03  0.00000000000E+00 0. -1.
          1    1    1    2  501    0 -0.19460886475E+03 -0.20564422485E+03  0.20281289260E+03  0.34827464286E+03  0.00000000000E+00 0. -1.
<scales pt_clust_5="13000.00000" pt_clust_6="13000.00000" pt_clust_7="13000.00000" pt_clust_8="13000.00000" pt_clust_9="13000.00000"></scales>
<clustering>
<clus scale="   90.719">  5  6 -1 -1</clus>
<clus scale="   90.936">  7  8 -1 -1</clus>
<clus scale="  283.129">  5  9 -1 -1</clus>
<clus scale="  300.015">  1  7  2 -1</clus>
<clus scale="  408.805">  2  5  1 -1</clus>
</clustering>
</event>
<event>
 9    1  0.3312826E-006  0.2663854E+03  0.7546771E-02  0.1141058E+00
          1   -1    0    0  502    0 -0.00000000000E+00  0.00000000000E+00  0.48401436122E+03  0.48401436122E+03  0.00000000000E+00 0. -1.
         21   -1    0    0  501  502  0.00000000000E+00 -0.00000000000E+00 -0.86811836510E+02  0.86811836510E+02  0.00000000000E+00 0. -1.
         23    2    1    2    0    0  0.41075744460E+02  0.29146466822E+02  0.23973279708E+03  0.26137849019E+03  0.91160121920E+02 0.  0.
         23    2    1    2    0    0 -0.10936096926E+03 -0.75798275559E+02  0.40209058798E+02  0.16595789034E+03  0.90664506727E+02 0.  0.
        -11    1    3    3    0    0  0.42585115663E+02  0.53544672053E+02  0.11134066870E+03  0.13068002329E+03  0.00000000000E+00 0. -1.
         11    1    3    3    0    0 -0.15093712029E+01 -0.24398205232E+02  0.12839212838E+03  0.13069846690E+03  0.00000000000E+00 0.  1.
        -13    1    4    4    0    0 -0.16754976228E+02  0.12836848657E+02  0.30915714448E+02  0.37433879196E+02  0.00000000000E+00 0.  1.
         13    1    4    4    0    0 -0.92605993035E+02 -0.88635124216E+02  0.92933443504E+01  0.12852401114E+03  0.00000000000E+00 0. -1.
          1    1    1    2  501    0  0.68285224803E+02  0.46651808737E+02  0.11726066883E+03  0.14348981719E+03  0.00000000000E+00 0. -1.
<scales pt_clust_5="13000.00000" pt_clust_6="13000.00000" pt_clust_7="13000.00000" pt_clust_8="13000.00000" pt_clust_9="13000.00000"></scales>
<clustering>
<clus scale="   90.665">  7  8 -1 -1</clus>
<clus scale="   82.700">  7  9 -1 -1</clus>
<clus scale="   91.160">  5  6 -1 -1</clus>
<clus scale="  104.148">  1  5  2 -1</clus>
<clus scale="  266.385">  2  5  1 -1</clus>
</clustering>
</event>
<event>
 9    1  0.3312826E-006  0.7961989E+03  0.7546771E-02  0.9934163E-01
          1   -1    0    0  502    0 -0.00000000000E+00  0.00000000000E+00  0.60732693494E+03  0.60732693494E+03  0.00000000000E+00 0. -1.
         21   -1    0    0  501  502  0.00000000000E+00 -0.00000000000E+00 -0.48746496098E+03  0.48746496098E+03  0.00000000000E+00 0. -1.
         23    2    1    2    0    0 -0.13931422179E+03  0.16410371550E+03  0.18141145788E+03  0.29621755445E+03  0.92175054556E+02 0.  0.
         23    2    1    2    0    0  0.48683787668E+02  0.27258875368E+03  0.12345068320E+03  0.31572938701E+03  0.88148935487E+02 0.  0.
        -11    1    4    4    0    0  0.33598557896E+02  0.78177199418E+02  0.28302889647E+00  0.85091819271E+02  0.00000000000E+00 0.  1.
         11    1    4    4    0    0  0.15085229772E+02  0.19441155426E+03  0.12316765430E+03  0.23063756774E+03  0.00000000000E+00 0. -1.
        -11    1    3    3    0    0 -0.86841950341E+02  0.32953628827E+02  0.69790814132E+02  0.11618185628E+03  0.00000000000E+00 0. -1.
         11    1    3    3    0    0 -0.52472271444E+02  0.13115008667E+03  0.11162064375E+03  0.18003569817E+03  0.00000000000E+00 0.  1.
          1    1    1    2  501    0  0.90630434117E+02 -0.43669246917E+03 -0.18500016712E+03  0.48284495447E+03  0.00000000000E+00 0. -1.
<scales pt_clust_5="13000.00000" pt_clust_6="13000.00000" pt_clust_7="13000.00000" pt_clust_8="13000.00000" pt_clust_9="13000.00000"></scales>
<clustering>
<clus scale="   88.149">  5  6 -1 -1</clus>
<clus scale="   92.175">  7  8 -1 -1</clus>
<clus scale="  234.168">  1  7  2 -1</clus>
<clus scale="  371.963">  5  9 -1 -1</clus>
<clus scale="  796.199">  2  5  1 -1</clus>
</clustering>
</event>
<event>
 9    1  0.3312826E-006  0.2245615E+03  0.7546771E-02  0.1159212E+00
         21   -1    0    0  501  502  0.00000000000E+00  0.00000000000E+00  0.29003853385E+03  0.29003853385E+03  0.00000000000E+00 0.  1.
         -1   -1    0    0    0  501 -0.00000000000E+00 -0.00000000000E+00 -0.12869296644E+03  0.12869296644E+03  0.00000000000E+00 0.  1.
         23    2    1    2    0    0 -0.62694391804E+02 -0.12301803347E+02 -0.37136009900E+02  0.11902697398E+03  0.93308178496E+02 0.  0.
         23    2    1    2    0    0 -0.54474290677E+02 -0.29029391069E+00  0.73288885437E+02  0.12777351932E+03  0.89371577669E+02 0.  0.
        -11    1    4    4    0    0 -0.50350358636E+02 -0.26896714854E+02  0.81609794391E+02  0.99592923570E+02  0.00000000000E+00 0.  1.
         11    1    4    4    0    0 -0.41239320411E+01  0.26606420943E+02 -0.83209089541E+01  0.28180595748E+02  0.00000000000E+00 0. -1.
        -11    1    3    3    0    0 -0.28462110612E+02 -0.20426889152E+02 -0.65203848523E+02  0.74019533930E+02  0.00000000000E+00 0.  1.
         11    1    3    3    0    0 -0.34232281191E+02  0.81250858052E+01  0.28067838623E+02  0.45007440050E+02  0.00000000000E+00 0. -1.
         -1    1    1    2    0  502  0.11716868248E+03  0.12592097257E+02  0.12519269187E+03  0.17193100699E+03  0.00000000000E+00 0.  1.
<scales pt_clust_5="13000.00000" pt_clust_6="13000.00000" pt_clust_7="13000.00000" pt_clust_8="13000.00000" pt_clust_9="13000.00000"></scales>
<clustering>
<clus scale="   89.372">  5  6 -1 -1</clus>
<clus scale="   93.308">  7  8 -1 -1</clus>
<clus scale="  113.086">  2  7  1 -1</clus>
<clus scale="   88.491">  5  9 -1 -1</clus>
<clus scale="  224.561">  1  5  2 -1</clus>
</clustering>
</event>
<event>
 9    1  0.3312826E-006  0.1702401E+03  0.7546771E-02  0.1201562E+00
         -3   -1    0    0    0  501 -0.00000000000E+00  0.00000000000E+00  0.50277125106E+03  0.50277125106E+03  0.00000000000E+00 0.  1.
         21   -1    0    0  501  502  0.00000000000E+00 -0.00000000000E+00 -0.36508707456E+02  0.36508707456E+02  0.00000000000E+00 0. -1.
         23    2    1    2    0    0  0.75005589073E+01 -0.33846012483E+02  0.18901346285E+03  0.21393590360E+03  0.94024841236E+02 0.  0.
         23    2    1    2    0    0  0.40660307026E+02  0.13274201138E+02  0.24236211709E+03  0.26241736214E+03  0.91071461867E+02 0.  0.
        -13    1    3    3    0    0 -0.24324961425E+02  0.18812219492E+02  0.10747474184E+03  0.11178740307E+03  0.00000000000E+00 0. -1.
         13    1    3    3    0    0  0.31825520332E+02 -0.52658231975E+02  0.81538721001E+02  0.10214850054E+03  0.00000000000E+00 0.  1.
        -13    1    4    4    0    0 -0.32473569665E+01 -0.33784801754E+02  0.11204832468E+03  0.11707598055E+03  0.00000000000E+00 0.  1.
         13    1    4    4    0    0  0.43907663993E+02  0.47059002892E+02  0.13031379241E+03  0.14534138159E+03  0.00000000000E+00 0. -1.
         -3    1    1    2    0  502 -0.48160865934E+02  0.20571811345E+02  0.34886963665E+02  0.62926692772E+02  0.00000000000E+00 0.  1.
<scales pt_clust_5="13000.00000" pt_clust_6="13000.00000" pt_clust_7="13000.00000" pt_clust_8="13000.00000" pt_clust_9="13000.00000"></scales>
<clustering>
<clus scale="   91.071">  7  8 -1 -1</clus>
<clus scale="   52.371">  7  9 -1 -1</clus>
<clus scale="   94.025">  5  6 -1 -1</clus>
<clus scale="  100.212">  1  5  2 -1</clus>
<clus scale="  170.240">  2  5  1 -1</clus>
</clustering>
</event>
<event>
 9    1  0.3312826E-006  0.1685494E+03  0.7546771E-02  0.1192019E+00
         21   -1    0    0  501  502  0.00000000000E+00  0.00000000000E+00  0.57218232844E+03  0.57218232844E+03  0.00000000000E+00 0.  1.
          1   -1    0    0  502    0 -0.00000000000E+00 -0.00000000000E+00 -0.46587964656E+02  0.46587964656E+02  0.00000000000E+00 0. -1.
         23    2    1    2    0    0  0.59776746473E+02  0.67833919800E+02  0.36276703118E+03  0.38441660525E+03  0.89451145273E+02 0.  0.
         23    2    1    2    0    0 -0.22800317305E+02 -0.37753985647E+02  0.36531750501E+02  0.99362455491E+02  0.81197973282E+02 0.  0.
        -13    1    3    3    0    0  0.69398758640E+02  0.11887093832E+02  0.19868601126E+03  0.21079284090E+03  0.00000000000E+00 0. -1.
         13    1    3    3    0    0 -0.96220121673E+01  0.55946825968E+02  0.16408101991E+03  0.17362376436E+03  0.00000000000E+00 0.  1.
        -13    1    4    4    0    0 -0.35347609431E+02  0.89152593593E+01 -0.34820228464E+01  0.36620483681E+02  0.00000000000E+00 0.  1.
         13    1    4    4    0    0  0.12547292125E+02 -0.46669245007E+02  0.40013773347E+02  0.62741971810E+02  0.00000000000E+00 0. -1.
          1    1    1    2  501    0 -0.36976429167E+02 -0.30079934153E+02  0.12629558210E+03  0.13499123235E+03  0.00000000000E+00 0. -1.
<scales pt_clust_5="13000.00000" pt_clust_6="13000.00000" pt_clust_7="13000.00000" pt_clust_8="13000.00000" pt_clust_9="13000.00000"></scales>
<clustering>
<clus scale="   81.198">  7  8 -1 -1</clus>
<clus scale="   47.666">  7  9 -1 -1</clus>
<clus scale="   89.451">  5  6 -1 -1</clus>
<clus scale="  127.186">  2  5  1 -1</clus>
<clus scale="  168.549">  1  5  2 -1</clus>
</clustering>
</event>
<event>
 9    1  0.3312826E-006  0.1817167E+03  0.7546771E-02  0.1196628E+00
         21   -1    0    0  501  502  0.00000000000E+00  0.00000000000E+00  0.10553543258E+03  0.10553543258E+03  0.00000000000E+00 0. -1.
          1   -1    0    0  502    0 -0.00000000000E+00 -0.00000000000E+00 -0.18445139638E+03  0.18445139638E+03  0.00000000000E+00 0. -1.
         23    2    1    2    0    0  0.50134743665E+01  0.10311269560E+02 -0.54321713729E+02  0.10661332700E+03  0.91017007789E+02 0.  0.
         23    2    1    2    0    0 -0.52111651896E+02  0.41501243022E+02 -0.35783352807E+02  0.11246531620E+03  0.83246751138E+02 0.  0.
        -11    1    4    4    0    0 -0.55337405751E+02  0.26760996664E+01  0.55329717613E+01  0.55677677405E+02  0.00000000000E+00 0.  1.
         11    1    4    4    0    0  0.32257538558E+01  0.38825143355E+02 -0.41316324568E+02  0.56787638799E+02  0.00000000000E+00 0. -1.
        -13    1    3    3    0    0 -0.40055820578E+02  0.20231940142E+02 -0.20155778293E+02  0.49194060238E+02  0.00000000000E+00 0. -1.
         13    1    3    3    0    0  0.45069294944E+02 -0.99206705826E+01 -0.34165935436E+02  0.57419266765E+02  0.00000000000E+00 0.  1.
          1    1    1    2  501    0  0.47098177529E+02 -0.51812512581E+02  0.11189102744E+02  0.70908185753E+02  0.00000000000E+00 0. -1.
<scales pt_clust_5="13000.00000" pt_clust_6="13000.00000" pt_clust_7="13000.00000" pt_clust_8="13000.00000" pt_clust_9="13000.00000"></scales>
<clustering>
<clus scale="   83.247">  5  6 -1 -1</clus>
<clus scale="   70.020">  5  9 -1 -1</clus>
<clus scale="   91.017">  7  8 -1 -1</clus>
<clus scale="   91.736">  2  7  1 -1</clus>
<clus scale="  181.717">  1  5  2 -1</clus>
</clustering>
</event>
<event>
 9    1  0.3312826E-006  0.1577958E+03  0.7546771E-02  0.1198455E+00
         21   -1    0    0  501  502  0.00000000000E+00  0.00000000000E+00  0.70864487868E+03  0.70864487868E+03  0.00000000000E+00 0. -1.
          2   -1    0    0  502    0 -0.00000000000E+00 -0.00000000000E+00 -0.45747794308E+03  0.45747794308E+03  0.00000000000E+00 0. -1.
         23    2    1    2    0    0 -0.16639764962E+02  0.99349076085E+02 -0.43846542336E+03  0.45866800606E+03  0.89315685072E+02 0.  0.
         23    2    1    2    0    0  0.14329639272E+02 -0.36349178113E+02  0.42224890144E+03  0.43273998687E+03  0.86273751262E+02 0.  0.
        -11    1    4    4    0    0 -0.20040755925E+02 -0.51212892446E+02  0.20305593911E+03  0.21037135417E+03  0.00000000000E+00 0.  1.
         11    1    4    4    0    0  0.34370395197E+02  0.14863714334E+02  0.21919296234E+03  0.22236863270E+03  0.00000000000E+00 0. -1.
        -13    1    3    3    0    0 -0.28454567090E+02 -0.48686354776E+01 -0.74718670987E+02  0.80101471858E+02  0.00000000000E+00 0.  1.
         13    1    3    3    0    0  0.11814802128E+02  0.10421771156E+03 -0.36374675237E+03  0.37856653420E+03  0.00000000000E+00 0. -1.
          2    1    1    2  501    0  0.23101256903E+01 -0.62999897972E+02  0.26738345752E+03  0.27471482883E+03  0.00000000000E+00 0. -1.
<scales pt_clust_5="13000.00000" pt_clust_6="13000.00000" pt_clust_7="13000.00000" pt_clust_8="13000.00000" pt_clust_9="13000.00000"></scales>
<clustering>
<clus scale="   86.274">  5  6 -1 -1</clus>
<clus scale="   63.042">  5  9 -1 -1</clus>
<clus scale="   89.316">  7  8 -1 -1</clus>
<clus scale="  134.627">  2  7  1 -1</clus>
<clus scale="  157.796">  1  5  2 -1</clus>
</clustering>
</event>
<event>
 9    1  0.3312826E-006  0.3187340E+03  0.7546771E-02  0.1119960E+00
         21   -1    0    0  501  502  0.00000000000E+00  0.00000000000E+00  0.13957116631E+03  0.13957116631E+03  0.00000000000E+00 0.  1.
         -1   -1    0    0    0  501 -0.00000000000E+00 -0.00000000000E+00 -0.41103417512E+03  0.41103417512E+03  0.00000000000E+00 0.  1.
         23    2    1    2    0    0 -0.21834949649E+02 -0.37816843988E+02 -0.19915667124E+03  0.22377268334E+03  0.92216893221E+02 0.  0.
         23    2    1    2    0    0  0.96019577011E+01 -0.61527341395E+02 -0.15962592951E+03  0.19400335259E+03  0.90989296689E+02 0.  0.
        -11    1    4    4    0    0 -0.39038670341E+02 -0.41194331396E+02 -0.94258699775E+02  0.11002587516E+03  0.00000000000E+00 0.  1.
         11    1    4    4    0    0  0.48640628042E+02 -0.20333009999E+02 -0.65367229740E+02  0.83977477432E+02  0.00000000000E+00 0. -1.
        -13    1    3    3    0    0  0.10989109050E+02  0.19590302053E+02 -0.12407554660E+02  0.25661018391E+02  0.00000000000E+00 0.  1.
         13    1    3    3    0    0 -0.32824058699E+02 -0.57407146041E+02 -0.18674911658E+03  0.19811166495E+03  0.00000000000E+00 0. -1.
         -1    1    1    2    0  502  0.12232991948E+02  0.99344185383E+02  0.87319591945E+02  0.13282930550E+03  0.00000000000E+00 0.  1.
<scales pt_clust_5="13000.00000" pt_clust_6="13000.00000" pt_clust_7="13000.00000" pt_clust_8="13000.00000" pt_clust_9="13000.00000"></scales>
<clustering>
<clus scale="   90.989">  5  6 -1 -1</clus>
<clus scale="   92.217">  7  8 -1 -1</clus>
<clus scale="  100.095">  5  9 -1 -1</clus>
<clus scale="  102.033">  2  7  1 -1</clus>
<clus scale="  318.734">  1  5  2 -1</clus>
</clustering>
</event>
<event>
 9    1  0.3312826E-006  0.2976131E+03  0.7546771E-02  0.1105394E+00
          2   -1    0    0  502    0 -0.00000000000E+00  0.00000000000E+00  0.12627038574E+04  0.12627038574E+04  0.00000000000E+00 0. -1.
         21   -1    0    0  501  502  0.00000000000E+00 -0.00000000000E+00 -0.45412023559E+02  0.45412023559E+02  0.00000000000E+00 0.  1.
         23    2    1    2    0    0  0.15348712798E+03  0.29907352480E+02  0.46220398803E+03  0.49649328395E+03  0.91762226832E+02 0.  0.
         23    2    1    2    0    0  0.30053346778E+02 -0.33625781481E+02  0.38206234568E+03  0.39587152204E+03  0.93320571922E+02 0.  0.
        -11    1    3    3    0    0  0.92319252076E+02 -0.27329453350E+02  0.27606851240E+03  0.29237572892E+03  0.00000000000E+00 0.  1.
         11    1    3    3    0    0  0.61167875899E+02  0.57236805830E+02  0.18613547563E+03  0.20411755503E+03  0.00000000000E+00 0. -1.
        -13    1    4    4    0    0  0.33487635008E+02 -0.63190809973E+02  0.30472361256E+03  0.31300316327E+03  0.00000000000E+00 0.  1.
         13    1    4    4    0    0 -0.34342882297E+01  0.29565028491E+02  0.77338733122E+02  0.82868358776E+02  0.00000000000E+00 0. -1.
          2    1    1    2  501    0 -0.18354047475E+03  0.37184290011E+01  0.37302550013E+03  0.41575107497E+03  0.00000000000E+00 0. -1.
<scales pt_clust_5="13000.00000" pt_clust_6="13000.00000" pt_clust_7="13000.00000" pt_clust_8="13000.00000" pt_clust_9="13000.00000"></scales>
<clustering>
<clus scale="   91.762">  5  6 -1 -1</clus>
<clus scale="   93.321">  7  8 -1 -1</clus>
<clus scale="  181.309">  1  5  2 -1</clus>
<clus scale="  107.912">  7  9 -1 -1</clus>
<clus scale="  297.613">  2  5  1 -1</clus>
</clustering>
</event>
<event>
 9    1  0.3312826E-006  0.3957473E+03  0.7546771E-02  0.1097837E+00
         21   -1    0    0  501  502  0.00000000000E+00  0.00000000000E+00  0.67852642921E+03  0.67852642921E+03  0.00000000000E+00 0. -1.
          1   -1    0    0  502    0 -0.00000000000E+00 -0.00000000000E+00 -0.88869755723E+02  0.88869755723E+02  0.00000000000E+00 0. -1.
         23    2    1    2    0    0  0.91572780172E+01 -0.15022979831E+02  0.89628269592E+02  0.12970949106E+03  0.92096578094E+02 0.  0.
         23    2    1    2    0    0  0.10264515678E+03 -0.11784792798E+03  0.11256617861E+03  0.21309107615E+03  0.91172911704E+02 0.  0.
        -13    1    3    3    0    0  0.49581894695E+02 -0.19096008749E+02  0.50548516243E+02  0.73336037022E+02  0.00000000000E+00 0. -1.
         13    1    3    3    0    0 -0.40424616678E+02  0.40730289181E+01  0.39079753349E+02  0.56373454036E+02  0.00000000000E+00 0.  1.
        -13    1    4    4    0    0  0.80721225212E+02 -0.13205943211E+03  0.97651878240E+02  0.18300682810E+03  0.00000000000E+00 0. -1.
         13    1    4    4    0    0  0.21923931571E+02  0.14211504129E+02  0.14914300367E+02  0.30084248047E+02  0.00000000000E+00 0.  1.
          1    1    1    2  501    0 -0.11180243480E+03  0.13287090781E+03  0.38746222528E+03  0.42459561772E+03  0.00000000000E+00 0. -1.
<scales pt_clust_5="13000.00000" pt_clust_6="13000.00000" pt_clust_7="13000.00000" pt_clust_8="13000.00000" pt_clust_9="13000.00000"></scales>
<clustering>
<clus scale="   91.173">  7  8 -1 -1</clus>
<clus scale="   92.097">  5  6 -1 -1</clus>
<clus scale="   93.762">  2  5  1 -1</clus>
<clus scale="  168.961">  7  9 -1 -1</clus>
<clus scale="  395.747">  1  5  2 -1</clus>
</clustering>
</event>
<event>
 9    1  0.3312826E-006  0.4220916E+03  0.7546771E-02  0.1071398E+00
          2   -1    0    0  502    0 -0.00000000000E+00  0.00000000000E+00  0.37973424841E+03  0.37973424841E+03  0.00000000000E+00 0. -1.
         21   -1    0    0  501  502  0.00000000000E+00 -0.00000000000E+00 -0.23796984150E+03  0.23796984150E+03  0.00000000000E+00 0. -1.
         23    2    1    2    0    0 -0.12727576409E+03 -0.23512745963E+02  0.11592858673E+03  0.19482249827E+03  0.88115828667E+02 0.  0.
         23    2    1    2    0    0  0.17814075497E+03  0.16854562926E+03 -0.21996126020E+02  0.26191675197E+03  0.89301722695E+02 0.  0.
        -11    1    4    4    0    0  0.12000193709E+03  0.12035158934E+03  0.26729352566E+02  0.17204484372E+03  0.00000000000E+00 0. -1.
         11    1    4    4    0    0  0.58138817882E+02  0.48194039921E+02 -0.48725478586E+02  0.89871908248E+02  0.00000000000E+00 0.  1.
        -13    1    3    3    0    0 -0.32815042930E+02 -0.46273147626E+02  0.60605335627E+02  0.83012275840E+02  0.00000000000E+00 0.  1.
         13    1    3    3    0    0 -0.94460721164E+02  0.22760401664E+02  0.55323251103E+02  0.11181022243E+03  0.00000000000E+00 0. -1.
          2    1    1    2  501    0 -0.50864990876E+02 -0.14503288330E+03  0.47831946204E+02  0.16096483968E+03  0.00000000000E+00 0. -1.
<scales pt_clust_5="13000.00000" pt_clust_6="13000.00000" pt_clust_7="13000.00000" pt_clust_8="13000.00000" pt_clust_9="13000.00000"></scales>
<clustering>
<clus scale="   88.116">  7  8 -1 -1</clus>
<clus scale="   89.302">  5  6 -1 -1</clus>
<clus scale="  153.694">  5  9 -1 -1</clus>
<clus scale="  156.577">  1  7  2 -1</clus>
<clus scale="  422.092">  2  5  1 -1</clus>
</clustering>
</event>
<event>
 9    1  0.3312826E-006  0.2131967E+03  0.7546771E-02  0.1166848E+00
         21   -1    0    0  501  502  0.00000000000E+00  0.00000000000E+00  0.16123076994E+03  0.16123076994E+03  0.00000000000E+00 0. -1.
          1   -1    0    0  502    0 -0.00000000000E+00 -0.00000000000E+00 -0.19168957154E+03  0.19168957154E+03  0.00000000000E+00 0. -1.
         23    2    1    2    0    0 -0.41932607640E+02  0.45621914563E+02 -0.76781391599E+02  0.13474930401E+03  0.91773036143E+02 0.  0.
         23    2    1    2    0    0  0.17311958577E+02 -0.24343330753E+02 -0.67914372382E+02  0.99389565587E+02  0.66133366085E+02 0.  0.
        -11    1    4    4    0    0 -0.22866645559E+01 -0.44108844134E+02 -0.35517306199E+02  0.56677138295E+02  0.00000000000E+00 0.  1.
         11    1    4    4    0    0  0.19598623133E+02  0.19765513382E+02 -0.32397066183E+02  0.42712427292E+02  0.00000000000E+00 0. -1.
        -13    1    3    3    0    0 -0.28966214482E+02 -0.17681982713E+02  0.59202543598E+00  0.33941782337E+02  0.00000000000E+00 0.  1.
         13    1    3    3    0    0 -0.12966393157E+02  0.63303897276E+02 -0.77373417035E+02  0.10080752167E+03  0.00000000000E+00 0. -1.
          1    1    1    2  501    0  0.24620649063E+02 -0.21278583810E+02  0.11423696238E+03  0.11878147188E+03  0.00000000000E+00 0. -1.
<scales pt_clust_5="13000.00000" pt_clust_6="13000.00000" pt_clust_7="13000.00000" pt_clust_8="13000.00000" pt_clust_9="13000.00000"></scales>
<clustering>
<clus scale="   66.133">  5  6 -1 -1</clus>
<clus scale="   32.542">  5  9 -1 -1</clus>
<clus scale="   91.773">  7  8 -1 -1</clus>
<clus scale="  110.734">  2  7  1 -1</clus>
<clus scale="  213.197">  1  5  2 -1</clus>
</clustering>
</event>
<event>
 9    1  0.3312826E-006  0.5125664E+03  0.7546771E-02  0.1060446E+00
         21   -1    0    0  501  502  0.00000000000E+00  0.00000000000E+00  0.44104717224E+03  0.44104717224E+03  0.00000000000E+00 0. -1.
          2   -1    0    0  502    0 -0.00000000000E+00 -0.00000000000E+00 -0.23030923426E+03  0.23030923426E+03  0.00000000000E+00 0. -1.
         23    2    1    2    0    0  0.13445561204E+02 -0.73239708522E+02  0.78363100147E+02  0.14197245904E+03  0.92035675912E+02 0.  0.
         23    2    1    2    0    0  0.12823269046E+03  0.13457344437E+03 -0.11571882436E+03  0.23717679599E+03  0.91150158587E+02 0.  0.
        -13    1    3    3    0    0 -0.26009497970E+02 -0.69299707193E+02  0.69083992620E+02  0.10124989599E+03  0.00000000000E+00 0.  1.
         13    1    3    3    0    0  0.39455059174E+02 -0.39400013293E+01  0.92791075275E+01  0.40722563050E+02  0.00000000000E+00 0. -1.
        -13    1    4    4    0    0  0.10610235528E+03  0.45844587064E+02 -0.64188092858E+02  0.13221023872E+03  0.00000000000E+00 0.  1.
         13    1    4    4    0    0  0.22130335181E+02  0.88728857307E+02 -0.51530731507E+02  0.10496655726E+03  0.00000000000E+00 0. -1.
          2    1    1    2  501    0 -0.14167825166E+03 -0.61333735850E+02  0.24809366220E+03  0.29220715148E+03  0.00000000000E+00 0. -1.
<scales pt_clust_5="13000.00000" pt_clust_6="13000.00000" pt_clust_7="13000.00000" pt_clust_8="13000.00000" pt_clust_9="13000.00000"></scales>
<clustering>
<clus scale="   91.150">  7  8 -1 -1</clus>
<clus scale="   92.036">  5  6 -1 -1</clus>
<clus scale="  118.387">  2  5  1 -1</clus>
<clus scale="  156.454">  7  9 -1 -1</clus>
<clus scale="  512.566">  1  5  2 -1</clus>
</clustering>
</event>
<event>
 9    1  0.3312826E-006  0.1166111E+03  0.7546771E-02  0.1258659E+00
          3   -1    0    0  502    0 -0.00000000000E+00  0.00000000000E+00  0.82520006519E+02  0.82520006519E+02  0.00000000000E+00 0. -1.
         21   -1    0    0  501  502  0.00000000000E+00 -0.00000000000E+00 -0.13744504702E+03  0.13744504702E+03  0.00000000000E+00 0. -1.
         23    2    1    2    0    0 -0.28645129728E+02  0.95385418545E+01 -0.32431024318E+02  0.10120429294E+03  0.90989067112E+02 0.  0.
         23    2    1    2    0    0  0.84864462202E+01 -0.11968422806E+02 -0.29842680100E+02  0.97167249921E+02  0.91299649439E+02 0.  0.
        -13    1    3    3    0    0 -0.58197774017E+02  0.23074825217E+02 -0.27291141519E+02  0.68295203819E+02  0.00000000000E+00 0. -1.
         13    1    3    3    0    0  0.29552644289E+02 -0.13536283362E+02 -0.51398827987E+01  0.32909089123E+02  0.00000000000E+00 0.  1.
        -13    1    4    4    0    0 -0.24969731630E+01 -0.50777625378E+02 -0.24653579239E+02  0.56501337004E+02  0.00000000000E+00 0. -1.
         13    1    4    4    0    0  0.10983419383E+02  0.38809202571E+02 -0.51891008607E+01  0.40665912916E+02  0.00000000000E+00 0.  1.
          3    1    1    2  501    0  0.20158683508E+02  0.24298809518E+01  0.73486639116E+01  0.21593510680E+02  0.00000000000E+00 0. -1.
<scales pt_clust_5="13000.00000" pt_clust_6="13000.00000" pt_clust_7="13000.00000" pt_clust_8="13000.00000" pt_clust_9="13000.00000"></scales>
<clustering>
<clus scale="   90.989">  5  6 -1 -1</clus>
<clus scale="   91.300">  7  8 -1 -1</clus>
<clus scale="   20.305">  7  9 -1 -1</clus>
<clus scale="   95.867">  1  5  2 -1</clus>
<clus scale="  116.611">  2  5  1 -1</clus>
</clustering>
</event>
<event>
 9    1  0.3312826E-006  0.3038005E+03  0.7546771E-02  0.1107330E+00
         21   -1    0    0  501  502  0.00000000000E+00  0.00000000000E+00  0.88154959587E+03  0.88154959587E+03  0.00000000000E+00 0.  1.
         -4   -1    0    0    0  501 -0.00000000000E+00 -0.00000000000E+00 -0.79679373622E+02  0.79679373622E+02  0.00000000000E+00 0.  1.
         23    2    1    2    0    0 -0.11370707969E+03 -0.69996610996E+02  0.86056684433E+02  0.18361483130E+03  0.92085980563E+02 0.  0.
         23    2    1    2    0    0  0.94095262781E+02 -0.12515492704E+02  0.12590549839E+03  0.18164067770E+03  0.90169757885E+02 0.  0.
        -13    1    4    4    0    0  0.74961034512E+02 -0.48973314094E+02  0.90944795593E+02  0.12762640022E+03  0.00000000000E+00 0.  1.
         13    1    4    4    0    0  0.19134228269E+02  0.36457821390E+02  0.34960702796E+02  0.54014277482E+02  0.00000000000E+00 0. -1.
        -13    1    3    3    0    0 -0.58481296326E+02 -0.18452273451E+01  0.75118960077E+02  0.95217251835E+02  0.00000000000E+00 0.  1.
         13    1    3    3    0    0 -0.55225783367E+02 -0.68151383651E+02  0.10937724356E+02  0.88397579470E+02  0.00000000000E+00 0. -1.
         -4    1    1    2    0  502  0.19611816912E+02  0.82512103700E+02  0.58990803942E+03  0.59597346048E+03  0.00000000000E+00 0.  1.
<scales pt_clust_5="13000.00000" pt_clust_6="13000.00000" pt_clust_7="13000.00000" pt_clust_8="13000.00000" pt_clust_9="13000.00000"></scales>
<clustering>
<clus scale="   90.170">  5  6 -1 -1</clus>
<clus scale="   84.811">  5  9 -1 -1</clus>
<clus scale="   92.086">  7  8 -1 -1</clus>
<clus scale="  162.199">  2  7  1 -1</clus>
<clus scale="  303.800">  1  5  2 -1</clus>
</clustering>
</event>
<event>
 9    1  0.3312826E-006  0.2060711E+03  0.7546771E-02  0.1159094E+00
         21   -1    0    0  501  502  0.00000000000E+00  0.00000000000E+00  0.30250909418E+02  0.30250909418E+02  0.00000000000E+00 0. -1.
          1   -1    0    0  502    0 -0.00000000000E+00 -0.00000000000E+00 -0.10434448140E+04  0.10434448140E+04  0.00000000000E+00 0. -1.
         23    2    1    2    0    0 -0.10847582995E+03  0.39914029336E+02 -0.48552766219E+03  0.50721804658E+03  0.90404096189E+02 0.  0.
         23    2    1    2    0    0  0.11849322639E+03  0.11367525438E+02 -0.43338772677E+03  0.45868813838E+03  0.91651629774E+02 0.  0.
        -11    1    3    3    0    0 -0.10014030635E+03  0.89803517746E+01 -0.44128600050E+03  0.45259480986E+03  0.00000000000E+00 0. -1.
         11    1    3    3    0    0 -0.83355235997E+01  0.30933677561E+02 -0.44241661684E+02  0.54623236719E+02  0.00000000000E+00 0.  1.
        -13    1    4    4    0    0  0.89792430218E+02 -0.27059354554E+02 -0.20666432649E+03  0.22694720320E+03  0.00000000000E+00 0.  1.
         13    1    4    4    0    0  0.28700796170E+02  0.38426879991E+02 -0.22672340028E+03  0.23174093518E+03  0.00000000000E+00 0. -1.
          1    1    1    2  501    0 -0.10017396438E+02 -0.51281554774E+02 -0.94278515591E+02  0.10778953842E+03  0.00000000000E+00 0. -1.
<scales pt_clust_5="13000.00000" pt_clust_6="13000.00000" pt_clust_7="13000.00000" pt_clust_8="13000.00000" pt_clust_9="13000.00000"></scales>
<clustering>
<clus scale="   90.404">  5  6 -1 -1</clus>
<clus scale="   91.652">  7  8 -1 -1</clus>
<clus scale="   52.251">  7  9 -1 -1</clus>
<clus scale="  146.741">  2  5  1 -1</clus>
<clus scale="  206.071">  1  5  2 -1</clus>
</clustering>
</event>
<event>
 9    1  0.3312826E-006  0.4462408E+03  0.7546771E-02  0.1029598E+00
         21   -1    0    0  501  502  0.00000000000E+00  0.00000000000E+00  0.72710992246E+02  0.72710992246E+02  0.00000000000E+00 0. -1.
          1   -1    0    0  502    0 -0.00000000000E+00 -0.00000000000E+00 -0.26787180891E+04  0.26787180891E+04  0.00000000000E+00 0. -1.
         23    2    1    2    0    0  0.20348415316E+03  0.37453906146E+03 -0.12886158064E+04  0.13605118671E+04  0.93683162304E+02 0.  0.
         23    2    1    2    0    0 -0.10648144166E+03 -0.16736815424E+03 -0.60697819552E+03  0.64458211772E+03  0.87824712787E+02 0.  0.
        -13    1    3    3    0    0  0.12888736100E+03  0.19151868525E+03 -0.82117165726E+03  0.85300307696E+03  0.00000000000E+00 0. -1.
         13    1    3    3    0    0  0.74596792167E+02  0.18302037621E+03 -0.46744414911E+03  0.50750879012E+03  0.00000000000E+00 0.  1.
        -13    1    4    4    0    0 -0.10659538132E+03 -0.90121262325E+02 -0.40038782810E+03  0.42402220476E+03  0.00000000000E+00 0.  1.
         13    1    4    4    0    0  0.11393965896E+00 -0.77246891920E+02 -0.20659036742E+03  0.22055991296E+03  0.00000000000E+00 0. -1.
          1    1    1    2  501    0 -0.97002711507E+02 -0.20717090721E+03 -0.71041309499E+03  0.74633509657E+03  0.00000000000E+00 0. -1.
<scales pt_clust_5="13000.00000" pt_clust_6="13000.00000" pt_clust_7="13000.00000" pt_clust_8="13000.00000" pt_clust_9="13000.00000"></scales>
<clustering>
<clus scale="   87.825">  7  8 -1 -1</clus>
<clus scale="   93.683">  5  6 -1 -1</clus>
<clus scale="  228.756">  7  9 -1 -1</clus>
<clus scale="  436.419">  2  5  1 -1</clus>
<clus scale="  446.241">  1  5  2 -1</clus>
</clustering>
</event>
<event>
 9    1  0.3312826E-006  0.1617280E+03  0.7546771E-02  0.1207083E+00
         21   -1    0    0  501  502  0.00000000000E+00  0.00000000000E+00  0.33373928330E+02  0.33373928330E+02  0.00000000000E+00 0.  1.
          1   -1    0    0  502    0 -0.00000000000E+00 -0.00000000000E+00 -0.61881880737E+03  0.61881880737E+03  0.00000000000E+00 0. -1.
         23    2    1    2    0    0 -0.49198824651E+02 -0.14352340845E+02 -0.36054594886E+03  0.37518102561E+03  0.90226973257E+02 0.  0.
         23    2    1    2    0    0  0.28247194116E+02 -0.18054327442E+02 -0.21614502031E+03  0.23744159625E+03  0.92390362652E+02 0.  0.
        -11    1    3    3    0    0 -0.41660406020E+02  0.34562769026E+02 -0.17850189350E+03  0.18652908732E+03  0.00000000000E+00 0.  1.
         11    1    3    3    0    0 -0.75384186311E+01 -0.48915109871E+02 -0.18204405536E+03  0.18865193829E+03  0.00000000000E+00 0. -1.
        -13    1    4    4    0    0  0.65143937897E+01 -0.40160719721E+02 -0.19666424982E+03  0.20082865307E+03  0.00000000000E+00 0. -1.
         13    1    4    4    0    0  0.21732800326E+02  0.22106392279E+02 -0.19480770482E+02  0.36612943178E+02  0.00000000000E+00 0.  1.
          1    1    1    2  501    0  0.20951630536E+02  0.32406668287E+02 -0.87539098754E+01  0.39570113844E+02  0.00000000000E+00 0. -1.
<scales pt_clust_5="13000.00000" pt_clust_6="13000.00000" pt_clust_7="13000.00000" pt_clust_8="13000.00000" pt_clust_9="13000.00000"></scales>
<clustering>
<clus scale="   90.227">  5  6 -1 -1</clus>
<clus scale="   92.390">  7  8 -1 -1</clus>
<clus scale="   38.590">  7  9 -1 -1</clus>
<clus scale="  103.766">  2  5  1 -1</clus>
<clus scale="  161.728">  1  5  2 -1</clus>
</clustering>
</event>
<event>
 9    1  0.3312826E-006  0.3559249E+03  0.7546771E-02  0.1110859E+00
         -1   -1    0    0    0  501 -0.00000000000E+00  0.00000000000E+00  0.18780331305E+03  0.18780331305E+03  0.00000000000E+00 0.  1.
         21   -1    0    0  501  502  0.00000000000E+00 -0.00000000000E+00 -0.27806011262E+03  0.27806011262E+03  0.00000000000E+00 0.  1.
         23    2    1    2    0    0  0.14639363304E+02 -0.10984450264E+02  0.17829517946E+02  0.93888710666E+02  0.90345056172E+02 0.  0.
         23    2    1    2    0    0  0.11367734028E+03  0.81289783781E+02  0.47245991891E+02  0.15858272198E+03  0.58187020191E+02 0.  0.
        -13    1    4    4    0    0  0.64159157924E+02  0.62426605123E+02  0.30308523787E+01  0.89569328673E+02  0.00000000000E+00 0.  1.
         13    1    4    4    0    0  0.49518182357E+02  0.18863178658E+02  0.44215139513E+02  0.69013393303E+02  0.00000000000E+00 0. -1.
        -13    1    3    3    0    0  0.52990217365E+02 -0.41559989489E+01  0.12136041201E+02  0.54520812170E+02  0.00000000000E+00 0. -1.
         13    1    3    3    0    0 -0.38350854061E+02 -0.68284513147E+01  0.56934767457E+01  0.39367898496E+02  0.00000000000E+00 0.  1.
         -1    1    1    2    0  502 -0.12831670359E+03 -0.70305333518E+02 -0.15533230941E+03  0.21339199303E+03  0.00000000000E+00 0.  1.
<scales pt_clust_5="13000.00000" pt_clust_6="13000.00000" pt_clust_7="13000.00000" pt_clust_8="13000.00000" pt_clust_9="13000.00000"></scales>
<clustering>
<clus scale="   58.187">  5  6 -1 -1</clus>
<clus scale="   90.345">  7  8 -1 -1</clus>
<clus scale="   92.180">  1  7  2 -1</clus>
<clus scale="  144.698">  5  9 -1 -1</clus>
<clus scale="  355.925">  2  5  1 -1</clus>
</clustering>
</event>
<event>
 9    1  0.3312826E-006  0.2082570E+03  0.7546771E-02  0.1169404E+00
         -1   -1    0    0    0  501 -0.00000000000E+00  0.00000000000E+00  0.98915617848E+02  0.98915617848E+02  0.00000000000E+00 0.  1.
         21   -1    0    0  501  502  0.00000000000E+00 -0.00000000000E+00 -0.32605934515E+03  0.32605934515E+03  0.00000000000E+00 0.  1.
         23    2    1    2    0    0 -0.64867788668E+02  0.14143491348E+02  0.62089036405E+01  0.11220601746E+03  0.90242847447E+02 0.  0.
         23    2    1    2    0    0  0.12052404105E+03 -0.17378324961E+02 -0.16618026258E+03  0.22547513333E+03  0.91624807955E+02 0.  0.
        -11    1    3    3    0    0  0.12121275846E+02  0.24113929329E+02 -0.16107363106E+02  0.31430145753E+02  0.00000000000E+00 0.  1.
         11    1    3    3    0    0 -0.76989064515E+02 -0.99704379805E+01  0.22316266747E+02  0.80775871706E+02  0.00000000000E+00 0. -1.
        -13    1    4    4    0    0  0.85045770049E+02 -0.11611782393E+02 -0.16886816116E+03  0.18943091708E+03  0.00000000000E+00 0.  1.
         13    1    4    4    0    0  0.35478270999E+02 -0.57665425688E+01  0.26878985833E+01  0.36044216250E+02  0.00000000000E+00 0. -1.
         -1    1    1    2    0  502 -0.55656252380E+02  0.32348336133E+01 -0.67172368365E+02  0.87293812205E+02  0.00000000000E+00 0.  1.
<scales pt_clust_5="13000.00000" pt_clust_6="13000.00000" pt_clust_7="13000.00000" pt_clust_8="13000.00000" pt_clust_9="13000.00000"></scales>
<clustering>
<clus scale="   90.243">  5  6 -1 -1</clus>
<clus scale="   91.625">  7  8 -1 -1</clus>
<clus scale="   55.750">  7  9 -1 -1</clus>
<clus scale="  112.034">  1  5  2 -1</clus>
<clus scale="  208.257">  2  5  1 -1</clus>
</clustering>
</event>
<event>
 9    1  0.3312826E-006  0.1646593E+03  0.7546771E-02  0.1202694E+00
         21   -1    0    0  501  502  0.00000000000E+00  0.00000000000E+00  0.35609550239E+02  0.35609550239E+02  0.00000000000E+00 0.  1.
          1   -1    0    0  502    0 -0.00000000000E+00 -0.00000000000E+00 -0.58885452239E+03  0.58885452239E+03  0.00000000000E+00 0. -1.
         23    2    1    2    0    0  0.20791742736E+02 -0.55696736838E+02 -0.12270730708E+03  0.16351355624E+03  0.90250633267E+02 0.  0.
         23    2    1    2    0    0 -0.58965529960E+02  0.50942107182E+02 -0.36682441915E+03  0.38652456499E+03  0.93643221065E+02 0.  0.
        -11    1    3    3    0    0 -0.30758766461E+00 -0.69745147731E+02 -0.48115642852E+02  0.84732492760E+02  0.00000000000E+00 0.  1.
         11    1    3    3    0    0  0.21099330400E+02  0.14048410893E+02 -0.74591664223E+02  0.78781063483E+02  0.00000000000E+00 0. -1.
        -11    1    4    4    0    0 -0.38348010731E+02  0.58583343878E+02 -0.35443801471E+03  0.36128781377E+03  0.00000000000E+00 0.  1.
         11    1    4    4    0    0 -0.20617519230E+02 -0.76412366955E+01 -0.12386404441E+02  0.25236751225E+02  0.00000000000E+00 0. -1.
          1    1    1    2  501    0  0.38173787225E+02  0.47546296563E+01 -0.63713245922E+02  0.74425951389E+02  0.00000000000E+00 0. -1.
<scales pt_clust_5="13000.00000" pt_clust_6="13000.00000" pt_clust_7="13000.00000" pt_clust_8="13000.00000" pt_clust_9="13000.00000"></scales>
<clustering>
<clus scale="   90.251">  5  6 -1 -1</clus>
<clus scale="   93.643">  7  8 -1 -1</clus>
<clus scale="   38.469">  7  9 -1 -1</clus>
<clus scale="  108.072">  2  5  1 -1</clus>
<clus scale="  164.659">  1  5  2 -1</clus>
</clustering>
</event>
<event>
 9    1  0.3312826E-006  0.2994563E+03  0.7546771E-02  0.1128014E+00
          1   -1    0    0  502    0 -0.00000000000E+00  0.00000000000E+00  0.67618999196E+03  0.67618999196E+03  0.00000000000E+00 0. -1.
         21   -1    0    0  501  502  0.00000000000E+00 -0.00000000000E+00 -0.62384293051E+02  0.62384293051E+02  0.00000000000E+00 0. -1.
         23    2    1    2    0    0  0.34553931749E+02  0.11496036558E+02  0.23514062225E+03  0.25581002684E+03  0.93922971350E+02 0.  0.
         23    2    1    2    0    0  0.28895415958E+02  0.11937621940E+03  0.18693477307E+03  0.24211123737E+03  0.92669385754E+02 0.  0.
        -11    1    3    3    0    0 -0.20377657090E+01 -0.38127081750E+02  0.73841489396E+02  0.83128770038E+02  0.00000000000E+00 0.  1.
         11    1    3    3    0    0  0.36591697458E+02  0.49623118308E+02  0.16129913285E+03  0.17268125681E+03  0.00000000000E+00 0. -1.
        -13    1    4    4    0    0  0.48480857119E+02  0.46506876487E+02  0.43483923859E+02  0.80025837714E+02  0.00000000000E+00 0.  1.
         13    1    4    4    0    0 -0.19585441161E+02  0.72869342911E+02  0.14345084921E+03  0.16208539966E+03  0.00000000000E+00 0. -1.
          1    1    1    2  501    0 -0.63449347707E+02 -0.13087225596E+03  0.19173030359E+03  0.24065302079E+03  0.00000000000E+00 0. -1.
<scales pt_clust_5="13000.00000" pt_clust_6="13000.00000" pt_clust_7="13000.00000" pt_clust_8="13000.00000" pt_clust_9="13000.00000"></scales>
<clustering>
<clus scale="   92.669">  7  8 -1 -1</clus>
<clus scale="   93.923">  5  6 -1 -1</clus>
<clus scale="  100.736">  1  5  2 -1</clus>
<clus scale="  133.328">  7  9 -1 -1</clus>
<clus scale="  299.456">  2  5  1 -1</clus>
</clustering>
</event>
<event>
 9    1  0.3312826E-006  0.3033591E+03  0.7546771E-02  0.1102621E+00
         21   -1    0    0  501  502  0.00000000000E+00  0.00000000000E+00  0.14387603248E+04  0.14387603248E+04  0.00000000000E+00 0. -1.
          1   -1    0    0  502    0 -0.00000000000E+00 -0.00000000000E+00 -0.58055635533E+02  0.58055635533E+02  0.00000000000E+00 0. -1.
         23    2    1    2    0    0  0.47469305776E+02  0.15321694321E+03  0.17609893145E+03  0.25459947909E+03  0.89896020038E+02 0.  0.
         23    2    1    2    0    0 -0.48468632184E+02  0.61390246690E+01  0.19811596111E+03  0.22318898700E+03  0.90423967729E+02 0.  0.
        -11    1    4    4    0    0 -0.65932158651E+02 -0.21905411968E+02  0.12659650313E+03  0.14440765639E+03  0.00000000000E+00 0.  1.
         11    1    4    4    0    0  0.17463526467E+02  0.28044436637E+02  0.71519457980E+02  0.78781330610E+02  0.00000000000E+00 0. -1.
        -13    1    3    3    0    0  0.12826382133E+02  0.14831655843E+03  0.14394407354E+03  0.20708021125E+03  0.00000000000E+00 0.  1.
         13    1    3    3    0    0  0.34642923643E+02  0.49003847849E+01  0.32154857908E+02  0.47519267846E+02  0.00000000000E+00 0. -1.
          1    1    1    2  501    0  0.99932640847E+00 -0.15935596788E+03  0.10064897967E+04  0.10190274943E+04  0.00000000000E+00 0. -1.
<scales pt_clust_5="13000.00000" pt_clust_6="13000.00000" pt_clust_7="13000.00000" pt_clust_8="13000.00000" pt_clust_9="13000.00000"></scales>
<clustering>
<clus scale="   89.896">  7  8 -1 -1</clus>
<clus scale="   90.424">  5  6 -1 -1</clus>
<clus scale="  159.359">  5  9 -1 -1</clus>
<clus scale="  183.875">  2  7  1 -1</clus>
<clus scale="  303.359">  1  5  2 -1</clus>
</clustering>
</event>
<event>
 9    1  0.3312826E-006  0.3758220E+03  0.7546771E-02  0.1099737E+00
          1   -1    0    0  502    0 -0.00000000000E+00  0.00000000000E+00  0.61952107314E+03  0.61952107314E+03  0.00000000000E+00 0. -1.
         21   -1    0    0  501  502  0.00000000000E+00 -0.00000000000E+00 -0.99315403656E+02  0.99315403656E+02  0.00000000000E+00 0. -1.
         23    2    1    2    0    0 -0.40523921616E+02  0.32710764736E+02  0.19824551488E+03  0.22396225259E+03  0.90253111093E+02 0.  0.
         23    2    1    2    0    0  0.18638489338E+02  0.12377318123E+03  0.29720866696E+03  0.33494038279E+03  0.90470296952E+02 0.  0.
        -11    1    4    4    0    0  0.40757226270E+02  0.15374546832E+02  0.92720857086E+02  0.10244357238E+03  0.00000000000E+00 0.  1.
         11    1    4    4    0    0 -0.22118736932E+02  0.10839863440E+03  0.20448780987E+03  0.23249681040E+03  0.00000000000E+00 0. -1.
        -13    1    3    3    0    0  0.12386623544E+02  0.29340288890E+02  0.19099972902E+02  0.37136100493E+02  0.00000000000E+00 0. -1.
         13    1    3    3    0    0 -0.52910545160E+02  0.33704758462E+01  0.17914554197E+03  0.18682615209E+03  0.00000000000E+00 0.  1.
          1    1    1    2  501    0  0.21885432279E+02 -0.15648394597E+03  0.24751487652E+02  0.15993384142E+03  0.00000000000E+00 0. -1.
<scales pt_clust_5="13000.00000" pt_clust_6="13000.00000" pt_clust_7="13000.00000" pt_clust_8="13000.00000" pt_clust_9="13000.00000"></scales>
<clustering>
<clus scale="   90.253">  7  8 -1 -1</clus>
<clus scale="   90.470">  5  6 -1 -1</clus>
<clus scale="  104.201">  1  7  2 -1</clus>
<clus scale="  149.630">  5  9 -1 -1</clus>
<clus scale="  375.822">  2  5  1 -1</clus>
</clustering>
</event>
<event>
 9    1  0.3312826E-006  0.2822540E+03  0.7546771E-02  0.1135647E+00
         21   -1    0    0  501  502  0.00000000000E+00  0.00000000000E+00  0.63151711872E+03  0.63151711872E+03  0.00000000000E+00 0.  1.
         -2   -1    0    0    0  501 -0.00000000000E+00 -0.00000000000E+00 -0.82569649388E+02  0.82569649388E+02  0.00000000000E+00 0.  1.
         23    2    1    2    0    0  0.21394502204E+01  0.42262248875E+02  0.34087402689E+01  0.99855670627E+02  0.90381748816E+02 0.  0.
         23    2    1    2    0    0  0.11123165159E+03 -0.55218538694E+02  0.25087593554E+03  0.29824528442E+03  0.10290746967E+03 0.  0.
        -11    1    4    4    0    0  0.73419861659E+02 -0.52140443717E+02  0.24347364903E+03  0.25959298860E+03  0.00000000000E+00 0. -1.
         11    1    4    4    0    0  0.37811789928E+02 -0.30780949779E+01  0.74022865043E+01  0.38652295815E+02  0.00000000000E+00 0.  1.
        -13    1    3    3    0    0  0.38664514816E+02  0.24487574090E+02 -0.23184897917E+02  0.51304244290E+02  0.00000000000E+00 0.  1.
         13    1    3    3    0    0 -0.36525064595E+02  0.17774674785E+02  0.26593638186E+02  0.48551426337E+02  0.00000000000E+00 0. -1.
         -2    1    1    2    0  502 -0.11337110181E+03  0.12956289820E+02  0.29466279352E+03  0.31598581306E+03  0.00000000000E+00 0.  1.
<scales pt_clust_5="13000.00000" pt_clust_6="13000.00000" pt_clust_7="13000.00000" pt_clust_8="13000.00000" pt_clust_9="13000.00000"></scales>
<clustering>
<clus scale="   90.382">  7  8 -1 -1</clus>
<clus scale="   99.797">  2  7  1 -1</clus>
<clus scale="  102.907">  5  6 -1 -1</clus>
<clus scale="  115.684">  5  9 -1 -1</clus>
<clus scale="  282.254">  1  5  2 -1</clus>
</clustering>
</event>
<event>
 9    1  0.3312826E-006  0.1824956E+03  0.7546771E-02  0.1194805E+00
          1   -1    0    0  502    0 -0.00000000000E+00  0.00000000000E+00  0.10228547694E+04  0.10228547694E+04  0.00000000000E+00 0. -1.
         21   -1    0    0  501  502  0.00000000000E+00 -0.00000000000E+00 -0.20306978131E+02  0.20306978131E+02  0.00000000000E+00 0. -1.
         23    2    1    2    0    0  0.19129329346E+01 -0.67276197419E+01  0.21509932605E+03  0.23484266058E+03  0.93991675061E+02 0.  0.
         23    2    1    2    0    0 -0.38392261995E+02 -0.46479311897E+02  0.60329593310E+03  0.61319380897E+03  0.91686270745E+02 0.  0.
        -13    1    4    4    0    0  0.28001265027E+02 -0.30037839523E+02  0.24734652683E+03  0.25073222166E+03  0.00000000000E+00 0. -1.
         13    1    4    4    0    0 -0.66393527022E+02 -0.16441472374E+02  0.35594940628E+03  0.36246158731E+03  0.00000000000E+00 0.  1.
        -13    1    3    3    0    0 -0.21026663670E+02  0.32989792683E+02  0.49972022703E+02  0.63463769660E+02  0.00000000000E+00 0. -1.
         13    1    3    3    0    0  0.22939596605E+02 -0.39717412425E+02  0.16512730334E+03  0.17137889092E+03  0.00000000000E+00 0.  1.
          1    1    1    2  501    0  0.36479329060E+02  0.53206931639E+02  0.18415253210E+03  0.19512527797E+03  0.00000000000E+00 0. -1.
<scales pt_clust_5="13000.00000" pt_clust_6="13000.00000" pt_clust_7="13000.00000" pt_clust_8="13000.00000" pt_clust_9="13000.00000"></scales>
<clustering>
<clus scale="   91.686">  5  6 -1 -1</clus>
<clus scale="   64.511">  5  9 -1 -1</clus>
<clus scale="   93.992">  7  8 -1 -1</clus>
<clus scale="   94.252">  1  7  2 -1</clus>
<clus scale="  182.496">  2  5  1 -1</clus>
</clustering>
</event>
<event>
 9    1  0.3312826E-006  0.3730520E+03  0.7546771E-02  0.1102536E+00
          1   -1    0    0  502    0 -0.00000000000E+00  0.00000000000E+00  0.59487041734E+02  0.59487041734E+02  0.00000000000E+00 0. -1.
         21   -1    0    0  501  502  0.00000000000E+00 -0.00000000000E+00 -0.10651323753E+04  0.10651323753E+04  0.00000000000E+00 0. -1.
         23    2    1    2    0    0  0.27751192630E+02 -0.23634880250E+02 -0.82477389008E+02  0.12892527247E+03  0.92143746002E+02 0.  0.
         23    2    1    2    0    0 -0.12507768011E+03 -0.12230358234E+03 -0.50442098298E+03  0.54169029231E+03  0.91571023805E+02 0.  0.
        -11    1    4    4    0    0 -0.34448727286E+02  0.11015264598E+02 -0.98524893440E+02  0.10495334913E+03  0.00000000000E+00 0.  1.
         11    1    4    4    0    0 -0.90628952821E+02 -0.13331884694E+03 -0.40589608954E+03  0.43673694319E+03  0.00000000000E+00 0. -1.
        -11    1    3    3    0    0  0.25817360914E+02 -0.54959719309E+02 -0.75296300048E+02  0.96729724863E+02  0.00000000000E+00 0. -1.
         11    1    3    3    0    0  0.19338317162E+01  0.31324839058E+02 -0.71810889596E+01  0.32195547608E+02  0.00000000000E+00 0.  1.
          1    1    1    2  501    0  0.97326487476E+02  0.14593846259E+03 -0.41874696156E+03  0.45400385223E+03  0.00000000000E+00 0. -1.
<scales pt_clust_5="13000.00000" pt_clust_6="13000.00000" pt_clust_7="13000.00000" pt_clust_8="13000.00000" pt_clust_9="13000.00000"></scales>
<clustering>
<clus scale="   91.571">  5  6 -1 -1</clus>
<clus scale="   92.144">  7  8 -1 -1</clus>
<clus scale="   99.092">  1  7  2 -1</clus>
<clus scale="  174.233">  5  9 -1 -1</clus>
<clus scale="  373.052">  2  5  1 -1</clus>
</clustering>
</event>
<event>
 9    1  0.3312826E-006  0.2482073E+03  0.7546771E-02  0.1153716E+00
         21   -1    0    0  501  502  0.00000000000E+00  0.00000000000E+00  0.40490070515E+02  0.40490070515E+02  0.00000000000E+00 0.  1.
         -4   -1    0    0    0  501 -0.00000000000E+00 -0.00000000000E+00 -0.98771512112E+03  0.98771512112E+03  0.00000000000E+00 0.  1.
         23    2    1    2    0    0 -0.19618282871E+02  0.98449908139E+01 -0.74664583863E+02  0.12102900882E+03  0.92689913295E+02 0.  0.
         23    2    1    2    0    0 -0.36628130244E+02 -0.96899626581E+02 -0.59915334476E+03  0.61478325720E+03  0.90788574387E+02 0.  0.
        -13    1    3    3    0    0 -0.14782995752E+02 -0.34913859657E+02 -0.64590671635E+02  0.74896391247E+02  0.00000000000E+00 0.  1.
         13    1    3    3    0    0 -0.48352871187E+01  0.44758850470E+02 -0.10073912227E+02  0.46132617577E+02  0.00000000000E+00 0. -1.
        -13    1    4    4    0    0 -0.21650750537E+02  0.50728642338E+00 -0.29102789037E+02  0.36276502975E+02  0.00000000000E+00 0. -1.
         13    1    4    4    0    0 -0.14977379707E+02 -0.97406913005E+02 -0.57005055573E+03  0.57850675423E+03  0.00000000000E+00 0.  1.
         -4    1    1    2    0  502  0.56246413115E+02  0.87054635767E+02 -0.27340712198E+03  0.29239292561E+03  0.00000000000E+00 0.  1.
<scales pt_clust_5="13000.00000" pt_clust_6="13000.00000" pt_clust_7="13000.00000" pt_clust_8="13000.00000" pt_clust_9="13000.00000"></scales>
<clustering>
<clus scale="   90.789">  7  8 -1 -1</clus>
<clus scale="   92.690">  5  6 -1 -1</clus>
<clus scale="   95.254">  2  5  1 -1</clus>
<clus scale="  103.122">  7  9 -1 -1</clus>
<clus scale="  248.207">  1  5  2 -1</clus>
</clustering>
</event>
<event>
 9    1  0.3312826E-006  0.3154718E+03  0.7546771E-02  0.1115887E+00
          1   -1    0    0  502    0 -0.00000000000E+00  0.00000000000E+00  0.10511300259E+03  0.10511300259E+03  0.00000000000E+00 0. -1.
         21   -1    0    0  501  502  0.00000000000E+00 -0.00000000000E+00 -0.69705332142E+03  0.69705332142E+03  0.00000000000E+00 0. -1.
         23    2    1    2    0    0 -0.69004902242E+02  0.22819168511E+02  0.15601519757E+02  0.11760112058E+03  0.91127521407E+02 0.  0.
         23    2    1    2    0    0 -0.38552506332E+02  0.35199290573E+02 -0.53100961767E+02  0.11681576606E+03  0.90005140181E+02 0.  0.
        -13    1    3    3    0    0 -0.59252854359E+02  0.54944034045E+02  0.54923452434E+00  0.80808720355E+02  0.00000000000E+00 0.  1.
         13    1    3    3    0    0 -0.97520478829E+01 -0.32124865534E+02  0.15052285232E+02  0.36792400224E+02  0.00000000000E+00 0. -1.
        -13    1    4    4    0    0  0.20690440269E+02  0.34570708995E+01  0.11217362406E+02  0.23788124707E+02  0.00000000000E+00 0.  1.
         13    1    4    4    0    0 -0.59242946602E+02  0.31742219673E+02 -0.64318324173E+02  0.93027641356E+02  0.00000000000E+00 0. -1.
          1    1    1    2  501    0  0.10755740857E+03 -0.58018459084E+02 -0.55444087682E+03  0.56774943736E+03  0.00000000000E+00 0. -1.
<scales pt_clust_5="13000.00000" pt_clust_6="13000.00000" pt_clust_7="13000.00000" pt_clust_8="13000.00000" pt_clust_9="13000.00000"></scales>
<clustering>
<clus scale="   90.005">  7  8 -1 -1</clus>
<clus scale="   91.128">  5  6 -1 -1</clus>
<clus scale="  116.562">  1  5  2 -1</clus>
<clus scale="  109.864">  7  9 -1 -1</clus>
<clus scale="  315.472">  2  5  1 -1</clus>
</clustering>
</event>
<event>
 9    1  0.3312826E-006  0.9299687E+03  0.7546771E-02  0.1004137E+00
         21   -1    0    0  501  502  0.00000000000E+00  0.00000000000E+00  0.17228779185E+03  0.17228779185E+03  0.00000000000E+00 0. -1.
          1   -1    0    0  502    0 -0.00000000000E+00 -0.00000000000E+00 -0.16037627162E+04  0.16037627162E+04  0.00000000000E+00 0. -1.
         23    2    1    2    0    0 -0.51290707791E+02  0.80715873835E+01 -0.65394645028E+02  0.12347156756E+03  0.90955380091E+02 0.  0.
         23    2    1    2    0    0 -0.20340810967E+03  0.32696440564E+03 -0.10620400579E+04  0.11333862398E+04  0.91404060406E+02 0.  0.
        -13    1    3    3    0    0 -0.52401765083E+02 -0.32808081769E+02 -0.50906833517E+02  0.80086334114E+02  0.00000000000E+00 0. -1.
         13    1    3    3    0    0  0.11110572913E+01  0.40879669153E+02 -0.14487811511E+02  0.43385233441E+02  0.00000000000E+00 0.  1.
        -13    1    4    4    0    0 -0.11425590388E+03  0.16270438558E+03 -0.41968611922E+03  0.46439591657E+03  0.00000000000E+00 0.  1.
         13    1    4    4    0    0 -0.89152205788E+02  0.16426002006E+03 -0.64235393868E+03  0.66899032319E+03  0.00000000000E+00 0. -1.
          1    1    1    2  501    0  0.25469881746E+03 -0.33503599302E+03 -0.30404022137E+03  0.51919270069E+03  0.00000000000E+00 0. -1.
<scales pt_clust_5="13000.00000" pt_clust_6="13000.00000" pt_clust_7="13000.00000" pt_clust_8="13000.00000" pt_clust_9="13000.00000"></scales>
<clustering>
<clus scale="   90.955">  5  6 -1 -1</clus>
<clus scale="   91.404">  7  8 -1 -1</clus>
<clus scale="  104.732">  2  5  1 -1</clus>
<clus scale="  410.757">  7  9 -1 -1</clus>
<clus scale="  929.969">  1  5  2 -1</clus>
</clustering>
</event>
<event>
 9    1  0.3312826E-006  0.1953551E+03  0.7546771E-02  0.1176770E+00
          3   -1    0    0  502    0 -0.00000000000E+00  0.00000000000E+00  0.50561337348E+02  0.50561337348E+02  0.00000000000E+00 0. -1.
         21   -1    0    0  501  502  0.00000000000E+00 -0.00000000000E+00 -0.53321940659E+03  0.53321940659E+03  0.00000000000E+00 0. -1.
         23    2    1    2    0    0 -0.51991102841E+02 -0.43684248061E+02 -0.92391734289E+02  0.14735043546E+03  0.92544745733E+02 0.  0.
         23    2    1    2    0    0  0.25245375691E+02  0.77266745482E+02 -0.14805723532E+03  0.19044582523E+03  0.87984023918E+02 0.  0.
        -11    1    3    3    0    0 -0.67360395290E+02 -0.19563410478E+02 -0.25559717536E+02  0.74655535921E+02  0.00000000000E+00 0. -1.
         11    1    3    3    0    0  0.15369292449E+02 -0.24120837583E+02 -0.66832016753E+02  0.72694899541E+02  0.00000000000E+00 0.  1.
        -13    1    4    4    0    0 -0.24327439550E+02 -0.15933844582E+01 -0.47402681752E+02  0.53304572284E+02  0.00000000000E+00 0.  1.
         13    1    4    4    0    0  0.49572815241E+02  0.78860129940E+02 -0.10065455357E+03  0.13714125294E+03  0.00000000000E+00 0. -1.
          3    1    1    2  501    0  0.26745727150E+02 -0.33582497421E+02 -0.24220909963E+03  0.24598448325E+03  0.00000000000E+00 0. -1.
<scales pt_clust_5="13000.00000" pt_clust_6="13000.00000" pt_clust_7="13000.00000" pt_clust_8="13000.00000" pt_clust_9="13000.00000"></scales>
<clustering>
<clus scale="   87.984">  7  8 -1 -1</clus>
<clus scale="   42.932">  7  9 -1 -1</clus>
<clus scale="   92.545">  5  6 -1 -1</clus>
<clus scale="  114.786">  1  5  2 -1</clus>
<clus scale="  195.355">  2  5  1 -1</clus>
</clustering>
</event>
<event>
 9    1  0.3312826E-006  0.7269363E+03  0.7546771E-02  0.9840714E-01
          1   -1    0    0  502    0 -0.00000000000E+00  0.00000000000E+00  0.10713602398E+04  0.10713602398E+04  0.00000000000E+00 0. -1.
         21   -1    0    0  501  502  0.00000000000E+00 -0.00000000000E+00 -0.30802783803E+03  0.30802783803E+03  0.00000000000E+00 0. -1.
         23    2    1    2    0    0  0.36528222799E+02  0.40456248107E+03  0.34710841235E+03  0.54172541776E+03  0.89314423065E+02 0.  0.
         23    2    1    2    0    0 -0.28360770000E+03 -0.37319242378E+03  0.27704337508E+03  0.55234951290E+03  0.92903390997E+02 0.  0.
        -11    1    4    4    0    0 -0.40680318454E+02 -0.30124549400E+02  0.62407894319E+02  0.80356219793E+02  0.00000000000E+00 0.  1.
         11    1    4    4    0    0 -0.24292738155E+03 -0.34306787438E+03  0.21463548076E+03  0.47199329311E+03  0.00000000000E+00 0. -1.
        -13    1    3    3    0    0  0.19024835842E+02  0.40924140825E+02  0.11489721893E+02  0.46569769060E+02  0.00000000000E+00 0.  1.
         13    1    3    3    0    0  0.17503386957E+02  0.36363834025E+03  0.33561869046E+03  0.49515564870E+03  0.00000000000E+00 0. -1.
          1    1    1    2  501    0  0.24707947720E+03 -0.31370057297E+02  0.13918061436E+03  0.28531314720E+03  0.00000000000E+00 0. -1.
<scales pt_clust_5="13000.00000" pt_clust_6="13000.00000" pt_clust_7="13000.00000" pt_clust_8="13000.00000" pt_clust_9="13000.00000"></scales>
<clustering>
<clus scale="   89.314">  7  8 -1 -1</clus>
<clus scale="   92.903">  5  6 -1 -1</clus>
<clus scale="  249.063">  5  9 -1 -1</clus>
<clus scale="  415.911">  1  7  2 -1</clus>
<clus scale="  726.936">  2  5  1 -1</clus>
</clustering>
</event>
<event>
 9    1  0.3312826E-006  0.5123075E+03  0.7546771E-02  0.1064554E+00
         21   -1    0    0  501  502  0.00000000000E+00  0.00000000000E+00  0.55083052310E+03  0.55083052310E+03  0.00000000000E+00 0.  1.
          2   -1    0    0  502    0 -0.00000000000E+00 -0.00000000000E+00 -0.21039831725E+03  0.21039831725E+03  0.00000000000E+00 0. -1.
         23    2    1    2    0    0 -0.52826885528E+02  0.15585701779E+02 -0.50126774456E+02  0.11702756946E+03  0.90272723246E+02 0.  0.
         23    2    1    2    0    0  0.23065871119E+03 -0.74216676335E+02  0.62507755314E+02  0.26647206152E+03  0.91589213352E+02 0.  0.
        -11    1    3    3    0    0 -0.32546709780E+02 -0.24974603389E+02  0.95054602113E+01  0.42111434383E+02  0.00000000000E+00 0.  1.
         11    1    3    3    0    0 -0.20280175747E+02  0.40560305169E+02 -0.59632234667E+02  0.74916135078E+02  0.00000000000E+00 0. -1.
        -13    1    4    4    0    0  0.21835484081E+02  0.19855023628E+02  0.20026559472E+01  0.29580753188E+02  0.00000000000E+00 0. -1.
         13    1    4    4    0    0  0.20882322711E+03 -0.94071699963E+02  0.60505099367E+02  0.23689130833E+03  0.00000000000E+00 0.  1.
          2    1    1    2  501    0 -0.17783182566E+03  0.58630974556E+02  0.32805122499E+03  0.37772920937E+03  0.00000000000E+00 0. -1.
<scales pt_clust_5="13000.00000" pt_clust_6="13000.00000" pt_clust_7="13000.00000" pt_clust_8="13000.00000" pt_clust_9="13000.00000"></scales>
<clustering>
<clus scale="   90.273">  5  6 -1 -1</clus>
<clus scale="   91.589">  7  8 -1 -1</clus>
<clus scale="  105.749">  2  5  1 -1</clus>
<clus scale="  198.030">  7  9 -1 -1</clus>
<clus scale="  512.307">  1  5  2 -1</clus>
</clustering>
</event>
<event>
 9    1  0.3312826E-006  0.2379022E+03  0.7546771E-02  0.1144758E+00
         21   -1    0    0  501  502  0.00000000000E+00  0.00000000000E+00  0.48481590216E+03  0.48481590216E+03  0.00000000000E+00 0.  1.
         -3   -1    0    0    0  501 -0.00000000000E+00 -0.00000000000E+00 -0.17276606256E+03  0.17276606256E+03  0.00000000000E+00 0.  1.
         23    2    1    2    0    0  0.33727818093E+02  0.98154581109E+02 -0.10992889764E+03  0.17316117670E+03  0.84430699815E+02 0.  0.
         23    2    1    2    0    0  0.45886483875E+01 -0.58335826651E+02  0.41417333663E+03  0.42861210511E+03  0.93512884184E+02 0.  0.
        -11    1    4    4    0    0  0.19795537387E+02 -0.74134643535E+02  0.38229759010E+03  0.38992211538E+03  0.00000000000E+00 0.  1.
         11    1    4    4    0    0 -0.15206889000E+02  0.15798816884E+02  0.31875746529E+02  0.38689989723E+02  0.00000000000E+00 0. -1.
        -13    1    3    3    0    0 -0.99559883200E+01  0.86939902032E+02 -0.61331748251E+02  0.10686089843E+03  0.00000000000E+00 0. -1.
         13    1    3    3    0    0  0.43683806413E+02  0.11214679077E+02 -0.48597149394E+02  0.66300278270E+02  0.00000000000E+00 0.  1.
         -3    1    1    2    0  502 -0.38316466481E+02 -0.39818754458E+02  0.78054006258E+01  0.55808682918E+02  0.00000000000E+00 0.  1.
<scales pt_clust_5="13000.00000" pt_clust_6="13000.00000" pt_clust_7="13000.00000" pt_clust_8="13000.00000" pt_clust_9="13000.00000"></scales>
<clustering>
<clus scale="   84.431">  7  8 -1 -1</clus>
<clus scale="   93.513">  5  6 -1 -1</clus>
<clus scale="   55.260">  5  9 -1 -1</clus>
<clus scale="  133.792">  2  7  1 -1</clus>
<clus scale="  237.902">  1  5  2 -1</clus>
</clustering>
</event>
<event>
 9    1  0.3312826E-006  0.2259201E+03  0.7546771E-02  0.1157777E+00
         21   -1    0    0  501  502  0.00000000000E+00  0.00000000000E+00  0.78477504124E+02  0.78477504124E+02  0.00000000000E+00 0. -1.
         -4   -1    0    0    0  501 -0.00000000000E+00 -0.00000000000E+00 -0.43863861374E+03  0.43863861374E+03  0.00000000000E+00 0.  1.
         23    2    1    2    0    0  0.55916874720E+02 -0.20906735913E+02 -0.22823362171E+03  0.25549663736E+03  0.98102788644E+02 0.  0.
         23    2    1    2    0    0 -0.11419562871E+03 -0.28262758254E+02 -0.10137552329E+03  0.17947646580E+03  0.89974329291E+02 0.  0.
        -11    1    4    4    0    0  0.81976658533E+01 -0.22502796119E+02 -0.74238780714E+01  0.25073721787E+02  0.00000000000E+00 0.  1.
         11    1    4    4    0    0 -0.12239329456E+03 -0.57599621343E+01 -0.93951645221E+02  0.15440274401E+03  0.00000000000E+00 0. -1.
        -11    1    3    3    0    0  0.64058016817E+02  0.22751717879E+02 -0.16272136449E+03  0.17634997206E+03  0.00000000000E+00 0.  1.
         11    1    3    3    0    0 -0.81411420969E+01 -0.43658453792E+02 -0.65512257225E+02  0.79146665305E+02  0.00000000000E+00 0. -1.
         -4    1    1    2    0  502  0.58278753990E+02  0.49169494166E+02 -0.30551964616E+02  0.82143014707E+02  0.00000000000E+00 0.  1.
<scales pt_clust_5="13000.00000" pt_clust_6="13000.00000" pt_clust_7="13000.00000" pt_clust_8="13000.00000" pt_clust_9="13000.00000"></scales>
<clustering>
<clus scale="   89.974">  5  6 -1 -1</clus>
<clus scale="   76.250">  5  9 -1 -1</clus>
<clus scale="   98.103">  7  8 -1 -1</clus>
<clus scale="  114.839">  2  7  1 -1</clus>
<clus scale="  225.920">  1  5  2 -1</clus>
</clustering>
</event>
<event>
 9    1  0.3312826E-006  0.2041168E+03  0.7546771E-02  0.1178326E+00
         -1   -1    0    0    0  501 -0.00000000000E+00  0.00000000000E+00  0.94775340153E+02  0.94775340153E+02  0.00000000000E+00 0.  1.
         21   -1    0    0  501  502  0.00000000000E+00 -0.00000000000E+00 -0.24468978341E+03  0.24468978341E+03  0.00000000000E+00 0.  1.
         23    2    1    2    0    0  0.32168822357E+02  0.15774021302E+02 -0.25607726236E+02  0.10047594302E+03  0.90310611797E+02 0.  0.
         23    2    1    2    0    0 -0.82395101092E+02  0.42469863355E+02 -0.79041872519E+02  0.14974829684E+03  0.87087845410E+02 0.  0.
        -11    1    3    3    0    0 -0.12437372790E+02  0.32791991587E+02 -0.37428294378E+02  0.51292106354E+02  0.00000000000E+00 0.  1.
         11    1    3    3    0    0  0.44606195147E+02 -0.17017970285E+02  0.11820568142E+02  0.49183836667E+02  0.00000000000E+00 0. -1.
        -13    1    4    4    0    0 -0.60839034551E+02  0.29275922156E+01 -0.84733575589E+02  0.10435390627E+03  0.00000000000E+00 0.  1.
         13    1    4    4    0    0 -0.21556066540E+02  0.39542271140E+02  0.56917030708E+01  0.45394390572E+02  0.00000000000E+00 0. -1.
         -1    1    1    2    0  502  0.50226278734E+02 -0.58243884657E+02 -0.45264844498E+02  0.89240883696E+02  0.00000000000E+00 0.  1.
<scales pt_clust_5="13000.00000" pt_clust_6="13000.00000" pt_clust_7="13000.00000" pt_clust_8="13000.00000" pt_clust_9="13000.00000"></scales>
<clustering>
<clus scale="   87.088">  7  8 -1 -1</clus>
<clus scale="   76.909">  7  9 -1 -1</clus>
<clus scale="   90.311">  5  6 -1 -1</clus>
<clus scale="   97.158">  1  5  2 -1</clus>
<clus scale="  204.117">  2  5  1 -1</clus>
</clustering>
</event>
<event>
 9    1  0.3312826E-006  0.3670037E+03  0.7546771E-02  0.1086364E+00
          3   -1    0    0  502    0 -0.00000000000E+00  0.00000000000E+00  0.69347044882E+03  0.69347044882E+03  0.00000000000E+00 0. -1.
         21   -1    0    0  501  502  0.00000000000E+00 -0.00000000000E+00 -0.11268654077E+03  0.11268654077E+03  0.00000000000E+00 0.  1.
         23    2    1    2    0    0  0.87607676358E+02 -0.81918730314E+02  0.62007725763E+02  0.17068830829E+03  0.10442105726E+03 0.  0.
         23    2    1    2    0    0  0.55279250341E+02 -0.89472521408E+02  0.25218368534E+03  0.28781483850E+03  0.90441376060E+02 0.  0.
        -11    1    4    4    0    0 -0.13832735284E+02 -0.26445674459E+02  0.13301554868E+03  0.13632261168E+03  0.00000000000E+00 0. -1.
         11    1    4    4    0    0  0.69111985625E+02 -0.63026846949E+02  0.11916813666E+03  0.15149222682E+03  0.00000000000E+00 0.  1.
        -13    1    3    3    0    0  0.92061630230E+02 -0.10203714136E+03  0.47181554290E+02  0.14530320383E+03  0.00000000000E+00 0.  1.
         13    1    3    3    0    0 -0.44539538719E+01  0.20118411046E+02  0.14826171473E+02  0.25385104464E+02  0.00000000000E+00 0. -1.
          3    1    1    2  501    0 -0.14288692670E+03  0.17139125172E+03  0.26659249694E+03  0.34765384280E+03  0.00000000000E+00 0. -1.
<scales pt_clust_5="13000.00000" pt_clust_6="13000.00000" pt_clust_7="13000.00000" pt_clust_8="13000.00000" pt_clust_9="13000.00000"></scales>
<clustering>
<clus scale="   90.441">  5  6 -1 -1</clus>
<clus scale="  104.421">  7  8 -1 -1</clus>
<clus scale="  159.027">  1  7  2 -1</clus>
<clus scale="  159.997">  5  9 -1 -1</clus>
<clus scale="  367.004">  2  5  1 -1</clus>
</clustering>
</event>
<event>
 9    1  0.3312826E-006  0.7255634E+03  0.7546771E-02  0.9980781E-01
         21   -1    0    0  501  502  0.00000000000E+00  0.00000000000E+00  0.20700003335E+03  0.20700003335E+03  0.00000000000E+00 0. -1.
          1   -1    0    0  502    0 -0.00000000000E+00 -0.00000000000E+00 -0.12023236606E+04  0.12023236606E+04  0.00000000000E+00 0. -1.
         23    2    1    2    0    0  0.13258361748E+03 -0.21495931842E+03 -0.20513584458E+03  0.33655205362E+03  0.86027006592E+02 0.  0.
         23    2    1    2    0    0 -0.17068499703E+03  0.40560872969E+03 -0.74973268411E+03  0.87418783403E+03  0.91942708976E+02 0.  0.
        -11    1    4    4    0    0 -0.15742237450E+03  0.35714466533E+03 -0.59576565991E+03  0.71222948373E+03  0.00000000000E+00 0. -1.
         11    1    4    4    0    0 -0.13262622529E+02  0.48464064354E+02 -0.15396702421E+03  0.16195835030E+03  0.00000000000E+00 0.  1.
        -11    1    3    3    0    0  0.49880208923E+01 -0.45736488374E+02 -0.72151948120E+01  0.46570009205E+02  0.00000000000E+00 0.  1.
         11    1    3    3    0    0  0.12759559658E+03 -0.16922283005E+03 -0.19792064977E+03  0.28998204441E+03  0.00000000000E+00 0. -1.
          1    1    1    2  501    0  0.38101379548E+02 -0.19064941126E+03 -0.40455098590E+02  0.19858380634E+03  0.00000000000E+00 0. -1.
<scales pt_clust_5="13000.00000" pt_clust_6="13000.00000" pt_clust_7="13000.00000" pt_clust_8="13000.00000" pt_clust_9="13000.00000"></scales>
<clustering>
<clus scale="   86.027">  7  8 -1 -1</clus>
<clus scale="   91.943">  5  6 -1 -1</clus>
<clus scale="  194.420">  5  9 -1 -1</clus>
<clus scale="  266.808">  2  7  1 -1</clus>
<clus scale="  725.563">  1  5  2 -1</clus>
</clustering>
</event>
<event>
 9    1  0.3312826E-006  0.2586767E+03  0.7546771E-02  0.1145611E+00
         21   -1    0    0  501  502  0.00000000000E+00  0.00000000000E+00  0.12699005435E+03  0.12699005435E+03  0.00000000000E+00 0. -1.
          1   -1    0    0  502    0 -0.00000000000E+00 -0.00000000000E+00 -0.42393583998E+03  0.42393583998E+03  0.00000000000E+00 0. -1.
         23    2    1    2    0    0  0.40950569299E+02 -0.18628302644E+02 -0.27266696598E+03  0.29111233281E+03  0.91515863063E+02 0.  0.
         23    2    1    2    0    0 -0.80667908197E+02  0.10487492205E+03 -0.34390941977E+02  0.16432428785E+03  0.91179350741E+02 0.  0.
        -11    1    3    3    0    0 -0.23251519860E+02  0.15518039833E+02 -0.98101103430E+02  0.10200622153E+03  0.00000000000E+00 0.  1.
         11    1    3    3    0    0  0.64202089158E+02 -0.34146342477E+02 -0.17456586255E+03  0.18910611128E+03  0.00000000000E+00 0. -1.
        -13    1    4    4    0    0  0.39391387057E+00  0.56329840664E+02 -0.40901232621E+02  0.69614057110E+02  0.00000000000E+00 0. -1.
         13    1    4    4    0    0 -0.81061822067E+02  0.48545081381E+02  0.65102906442E+01  0.94710230743E+02  0.00000000000E+00 0.  1.
          1    1    1    2  501    0  0.39717338898E+02 -0.86246619401E+02  0.10112122337E+02  0.95489273666E+02  0.00000000000E+00 0. -1.
<scales pt_clust_5="13000.00000" pt_clust_6="13000.00000" pt_clust_7="13000.00000" pt_clust_8="13000.00000" pt_clust_9="13000.00000"></scales>
<clustering>
<clus scale="   91.179">  7  8 -1 -1</clus>
<clus scale="   91.516">  5  6 -1 -1</clus>
<clus scale="   94.952">  7  9 -1 -1</clus>
<clus scale="  101.976">  2  5  1 -1</clus>
<clus scale="  258.677">  1  5  2 -1</clus>
</clustering>
</event>
<event>
 9    1  0.3312826E-006  0.2598560E+03  0.7546771E-02  0.1142818E+00
         21   -1    0    0  501  502  0.00000000000E+00  0.00000000000E+00  0.56848967129E+02  0.56848967129E+02  0.00000000000E+00 0. -1.
          2   -1    0    0  502    0 -0.00000000000E+00 -0.00000000000E+00 -0.65577023297E+03  0.65577023297E+03  0.00000000000E+00 0. -1.
         23    2    1    2    0    0  0.50503483581E+02 -0.16954367036E+02 -0.28788223474E+03  0.30731630787E+03  0.93429543467E+02 0.  0.
         23    2    1    2    0    0  0.15345630012E+02 -0.57302652402E+02 -0.28229822332E+03  0.30197697714E+03  0.89323711859E+02 0.  0.
        -11    1    3    3    0    0  0.13854415536E+02 -0.51913882509E+02 -0.18496491723E+03  0.19261105014E+03  0.00000000000E+00 0. -1.
         11    1    3    3    0    0  0.36649068045E+02  0.34959515473E+02 -0.10291731750E+03  0.11470525774E+03  0.00000000000E+00 0.  1.
        -13    1    4    4    0    0 -0.11079888785E+02 -0.67103121656E+02 -0.12624874830E+03  0.14340271727E+03  0.00000000000E+00 0. -1.
         13    1    4    4    0    0  0.26425518797E+02  0.98004692540E+01 -0.15604947501E+03  0.15857425987E+03  0.00000000000E+00 0.  1.
          2    1    1    2  501    0 -0.65849113593E+02  0.74257019438E+02 -0.28740807790E+02  0.10332591509E+03  0.00000000000E+00 0. -1.
<scales pt_clust_5="13000.00000" pt_clust_6="13000.00000" pt_clust_7="13000.00000" pt_clust_8="13000.00000" pt_clust_9="13000.00000"></scales>
<clustering>
<clus scale="   89.324">  7  8 -1 -1</clus>
<clus scale="   93.430">  5  6 -1 -1</clus>
<clus scale="   99.248">  7  9 -1 -1</clus>
<clus scale="  107.551">  2  5  1 -1</clus>
<clus scale="  259.856">  1  5  2 -1</clus>
</clustering>
</event>
<event>
 9    1  0.3312826E-006  0.2896963E+03  0.7546771E-02  0.1112124E+00
         21   -1    0    0  501  502  0.00000000000E+00  0.00000000000E+00  0.53022888705E+03  0.53022888705E+03  0.00000000000E+00 0.  1.
          1   -1    0    0  502    0 -0.00000000000E+00 -0.00000000000E+00 -0.11004271556E+03  0.11004271556E+03  0.00000000000E+00 0. -1.
         23    2    1    2    0    0  0.58024438716E+02 -0.12373705053E+03  0.55668576785E+02  0.17465690571E+03  0.93425644813E+02 0.  0.
         23    2    1    2    0    0 -0.47191823907E+02  0.16997082854E+03  0.36372165972E+03  0.41812215764E+03  0.10684354055E+03 0.  0.
        -13    1    4    4    0    0 -0.12153571086E+02  0.66374607437E+02  0.25552051237E+03  0.26428021123E+03  0.00000000000E+00 0. -1.
         13    1    4    4    0    0 -0.35038252821E+02  0.10359622111E+03  0.10820114735E+03  0.15384194641E+03  0.00000000000E+00 0.  1.
        -13    1    3    3    0    0  0.50185599595E+02 -0.23481309405E+02  0.48845924800E+02  0.73864001162E+02  0.00000000000E+00 0. -1.
         13    1    3    3    0    0  0.78388391203E+01 -0.10025574112E+03  0.68226519845E+01  0.10079290454E+03  0.00000000000E+00 0.  1.
          1    1    1    2  501    0 -0.10832614809E+02 -0.46233778016E+02  0.79593497555E+00  0.47492539264E+02  0.00000000000E+00 0. -1.
<scales pt_clust_5="13000.00000" pt_clust_6="13000.00000" pt_clust_7="13000.00000" pt_clust_8="13000.00000" pt_clust_9="13000.00000"></scales>
<clustering>
<clus scale="   93.426">  7  8 -1 -1</clus>
<clus scale="  106.844">  5  6 -1 -1</clus>
<clus scale="   47.486">  5  9 -1 -1</clus>
<clus scale="  165.548">  2  7  1 -1</clus>
<clus scale="  289.696">  1  5  2 -1</clus>
</clustering>
</event>
<event>
 9    1  0.3312826E-006  0.2190829E+03  0.7546771E-02  0.1148382E+00
         -1   -1    0    0    0  501 -0.00000000000E+00  0.00000000000E+00  0.11506015317E+04  0.11506015317E+04  0.00000000000E+00 0.  1.
         21   -1    0    0  501  502  0.00000000000E+00 -0.00000000000E+00 -0.37958759154E+02  0.37958759154E+02  0.00000000000E+00 0. -1.
         23    2    1    2    0    0 -0.12235895108E+03  0.52706354901E+02  0.73815986300E+03  0.75469998061E+03  0.83321093585E+02 0.  0.
         23    2    1    2    0    0  0.35462870785E+02 -0.34945141408E+02  0.30106657536E+03  0.31872409700E+03  0.92006462255E+02 0.  0.
        -11    1    3    3    0    0 -0.14541051907E+02 -0.21537557896E+02  0.13862780927E+03  0.14104246912E+03  0.00000000000E+00 0.  1.
         11    1    3    3    0    0 -0.10781789917E+03  0.74243912797E+02  0.59953205373E+03  0.61365751150E+03  0.00000000000E+00 0. -1.
        -13    1    4    4    0    0  0.54177081233E+02 -0.19564383638E+02  0.28220380868E+03  0.28802241383E+03  0.00000000000E+00 0. -1.
         13    1    4    4    0    0 -0.18714210448E+02 -0.15380757770E+02  0.18862766681E+02  0.30701683164E+02  0.00000000000E+00 0.  1.
         -1    1    1    2    0  502  0.86896080291E+02 -0.17761213493E+02  0.73416334184E+02  0.11513621324E+03  0.00000000000E+00 0.  1.
<scales pt_clust_5="13000.00000" pt_clust_6="13000.00000" pt_clust_7="13000.00000" pt_clust_8="13000.00000" pt_clust_9="13000.00000"></scales>
<clustering>
<clus scale="   83.321">  5  6 -1 -1</clus>
<clus scale="   92.006">  7  8 -1 -1</clus>
<clus scale="   88.693">  7  9 -1 -1</clus>
<clus scale="  157.137">  1  5  2 -1</clus>
<clus scale="  219.083">  2  5  1 -1</clus>
</clustering>
</event>
<event>
 9    1  0.3312826E-006  0.2017071E+03  0.7546771E-02  0.1179050E+00
         -2   -1    0    0    0  501 -0.00000000000E+00  0.00000000000E+00  0.46647356670E+03  0.46647356670E+03  0.00000000000E+00 0.  1.
         21   -1    0    0  501  502  0.00000000000E+00 -0.00000000000E+00 -0.65853846335E+02  0.65853846335E+02  0.00000000000E+00 0.  1.
         23    2    1    2    0    0  0.43175165966E+01  0.23847659657E+02  0.28070260407E+03  0.29766623725E+03  0.96041059160E+02 0.  0.
         23    2    1    2    0    0 -0.17461396437E+02  0.35470167595E+02  0.13882882299E+03  0.17102927453E+03  0.91730788178E+02 0.  0.
        -11    1    4    4    0    0 -0.22033605593E+02 -0.27572779682E+02  0.63907430894E+02  0.73006148223E+02  0.00000000000E+00 0. -1.
         11    1    4    4    0    0  0.45722091568E+01  0.63042947277E+02  0.74921392094E+02  0.98023126308E+02  0.00000000000E+00 0.  1.
        -11    1    3    3    0    0 -0.36193014168E+02  0.31076831589E+01  0.21308513548E+03  0.21615935541E+03  0.00000000000E+00 0.  1.
         11    1    3    3    0    0  0.40510530765E+02  0.20739976498E+02  0.67617468585E+02  0.81506881831E+02  0.00000000000E+00 0. -1.
         -2    1    1    2    0  502  0.13143879840E+02 -0.59317827252E+02 -0.18911706696E+02  0.63631901255E+02  0.00000000000E+00 0.  1.
<scales pt_clust_5="13000.00000" pt_clust_6="13000.00000" pt_clust_7="13000.00000" pt_clust_8="13000.00000" pt_clust_9="13000.00000"></scales>
<clustering>
<clus scale="   91.731">  5  6 -1 -1</clus>
<clus scale="   60.757">  5  9 -1 -1</clus>
<clus scale="   96.041">  7  8 -1 -1</clus>
<clus scale="   99.052">  1  7  2 -1</clus>
<clus scale="  201.707">  2  5  1 -1</clus>
</clustering>
</event>
<event>
 9    1  0.3312826E-006  0.3143424E+03  0.7546771E-02  0.1121462E+00
         21   -1    0    0  501  502  0.00000000000E+00  0.00000000000E+00  0.12681038928E+03  0.12681038928E+03  0.00000000000E+00 0.  1.
          1   -1    0    0  502    0 -0.00000000000E+00 -0.00000000000E+00 -0.57316891207E+03  0.57316891207E+03  0.00000000000E+00 0. -1.
         23    2    1    2    0    0  0.89493052892E+01  0.43301695111E+02 -0.35956245013E+03  0.37387391204E+03  0.92419801442E+02 0.  0.
         23    2    1    2    0    0 -0.13166268012E+03  0.24973653782E+02 -0.30217388771E+01  0.16258708871E+03  0.92014595531E+02 0.  0.
        -11    1    3    3    0    0 -0.22215763709E+02  0.58939215647E+02 -0.17366549470E+03  0.18473514919E+03  0.00000000000E+00 0.  1.
         11    1    3    3    0    0  0.31165068998E+02 -0.15637520536E+02 -0.18589695543E+03  0.18913876285E+03  0.00000000000E+00 0. -1.
        -11    1    4    4    0    0 -0.91637509782E+02  0.59431964749E+01 -0.44358612213E+02  0.10198255371E+03  0.00000000000E+00 0. -1.
         11    1    4    4    0    0 -0.40025170338E+02  0.19030457307E+02  0.41336873336E+02  0.60604535005E+02  0.00000000000E+00 0.  1.
          1    1    1    2  501    0  0.12271337483E+03 -0.68275348893E+02 -0.83774333783E+02  0.16351830060E+03  0.00000000000E+00 0. -1.
<scales pt_clust_5="13000.00000" pt_clust_6="13000.00000" pt_clust_7="13000.00000" pt_clust_8="13000.00000" pt_clust_9="13000.00000"></scales>
<clustering>
<clus scale="   92.015">  7  8 -1 -1</clus>
<clus scale="   92.420">  5  6 -1 -1</clus>
<clus scale="  102.453">  2  5  1 -1</clus>
<clus scale="  134.891">  7  9 -1 -1</clus>
<clus scale="  314.342">  1  5  2 -1</clus>
</clustering>
</event>
<event>
 9    1  0.3312826E-006  0.1289825E+03  0.7546771E-02  0.1244646E+00
          3   -1    0    0  502    0 -0.00000000000E+00  0.00000000000E+00  0.77336754024E+02  0.77336754024E+02  0.00000000000E+00 0. -1.
         21   -1    0    0  501  502  0.00000000000E+00 -0.00000000000E+00 -0.35587760151E+03  0.35587760151E+03  0.00000000000E+00 0.  1.
         23    2    1    2    0    0  0.18653757069E+02  0.11227874088E+02  0.30365859361E+02  0.98460948281E+02  0.91095801837E+02 0.  0.
         23    2    1    2    0    0 -0.25972970816E+02  0.19594857328E+02 -0.25330811255E+03  0.27076266300E+03  0.89938123987E+02 0.  0.
        -13    1    4    4    0    0 -0.54474025375E+02  0.29253597363E+02 -0.20230780167E+03  0.21154583195E+03  0.00000000000E+00 0.  1.
         13    1    4    4    0    0  0.28501054559E+02 -0.96587400349E+01 -0.51000310875E+02  0.59216831048E+02  0.00000000000E+00 0. -1.
        -13    1    3    3    0    0 -0.20009873227E+02  0.19662690225E+02 -0.19967207236E+02  0.34434078734E+02  0.00000000000E+00 0.  1.
         13    1    3    3    0    0  0.38663630297E+02 -0.84348161364E+01  0.50333066597E+02  0.64026869547E+02  0.00000000000E+00 0. -1.
          3    1    1    2  501    0  0.73192137467E+01 -0.30822731416E+02 -0.55598594302E+02  0.63990744254E+02  0.00000000000E+00 0. -1.
<scales pt_clust_5="13000.00000" pt_clust_6="13000.00000" pt_clust_7="13000.00000" pt_clust_8="13000.00000" pt_clust_9="13000.00000"></scales>
<clustering>
<clus scale="   89.938">  5  6 -1 -1</clus>
<clus scale="   31.680">  5  9 -1 -1</clus>
<clus scale="   91.096">  7  8 -1 -1</clus>
<clus scale="   93.661">  1  7  2 -1</clus>
<clus scale="  128.983">  2  5  1 -1</clus>
</clustering>
</event>
<event>
 9    1  0.3312826E-006  0.1907165E+03  0.7546771E-02  0.1187332E+00
          1   -1    0    0  502    0 -0.00000000000E+00  0.00000000000E+00  0.62943611690E+03  0.62943611690E+03  0.00000000000E+00 0. -1.
         21   -1    0    0  501  502  0.00000000000E+00 -0.00000000000E+00 -0.37310804283E+02  0.37310804283E+02  0.00000000000E+00 0.  1.
         23    2    1    2    0    0  0.26128759503E+02 -0.58697250207E+01  0.31968287743E+03  0.33418466618E+03  0.93622023261E+02 0.  0.
         23    2    1    2    0    0 -0.61193376869E+02 -0.33429168846E+02  0.25231425316E+03  0.27617897591E+03  0.88035252495E+02 0.  0.
        -13    1    4    4    0    0 -0.80632928261E+02 -0.41056626776E+02  0.21767144847E+03  0.23572902919E+03  0.00000000000E+00 0.  1.
         13    1    4    4    0    0  0.19439551391E+02  0.76274579298E+01  0.34642804693E+02  0.40449946721E+02  0.00000000000E+00 0. -1.
        -13    1    3    3    0    0 -0.11702257055E+01 -0.43856821911E+02  0.94406530669E+02  0.10410275351E+03  0.00000000000E+00 0.  1.
         13    1    3    3    0    0  0.27298985209E+02  0.37987096890E+02  0.22527634676E+03  0.23008191266E+03  0.00000000000E+00 0. -1.
          1    1    1    2  501    0  0.35064617366E+02  0.39298893867E+02  0.20128182020E+02  0.56383279096E+02  0.00000000000E+00 0. -1.
<scales pt_clust_5="13000.00000" pt_clust_6="13000.00000" pt_clust_7="13000.00000" pt_clust_8="13000.00000" pt_clust_9="13000.00000"></scales>
<clustering>
<clus scale="   88.035">  5  6 -1 -1</clus>
<clus scale="   52.668">  5  9 -1 -1</clus>
<clus scale="   93.622">  7  8 -1 -1</clus>
<clus scale="   97.377">  1  7  2 -1</clus>
<clus scale="  190.716">  2  5  1 -1</clus>
</clustering>
</event>
<event>
 9    1  0.3312826E-006  0.1342417E+03  0.7546771E-02  0.1232890E+00
          1   -1    0    0  502    0 -0.00000000000E+00  0.00000000000E+00  0.36137387415E+03  0.36137387415E+03  0.00000000000E+00 0. -1.
         21   -1    0    0  501  502  0.00000000000E+00 -0.00000000000E+00 -0.16182795109E+03  0.16182795109E+03  0.00000000000E+00 0.  1.
         23    2    1    2    0    0 -0.52701808710E+02  0.12761198481E+01  0.32362667204E+03  0.34039900491E+03  0.91422921455E+02 0.  0.
         23    2    1    2    0    0  0.15450117758E+02  0.57863904820E+01 -0.67944042291E+02  0.11506141964E+03  0.91381338102E+02 0.  0.
        -13    1    4    4    0    0  0.37547425355E+02  0.37687872640E+02 -0.31507363560E+02  0.61829595288E+02  0.00000000000E+00 0.  1.
         13    1    4    4    0    0 -0.22097307597E+02 -0.31901482158E+02 -0.36436678731E+02  0.53231824352E+02  0.00000000000E+00 0. -1.
        -13    1    3    3    0    0 -0.11030671078E+02  0.27497845345E+02  0.28217232451E+02  0.40914782295E+02  0.00000000000E+00 0.  1.
         13    1    3    3    0    0 -0.41671137633E+02 -0.26221725497E+02  0.29540943958E+03  0.29948422261E+03  0.00000000000E+00 0. -1.
          1    1    1    2  501    0  0.37251690953E+02 -0.70625103301E+01 -0.56136706676E+02  0.67741400690E+02  0.00000000000E+00 0. -1.
<scales pt_clust_5="13000.00000" pt_clust_6="13000.00000" pt_clust_7="13000.00000" pt_clust_8="13000.00000" pt_clust_9="13000.00000"></scales>
<clustering>
<clus scale="   91.381">  5  6 -1 -1</clus>
<clus scale="   37.915">  5  9 -1 -1</clus>
<clus scale="   91.423">  7  8 -1 -1</clus>
<clus scale="  105.533">  1  7  2 -1</clus>
<clus scale="  134.242">  2  5  1 -1</clus>
</clustering>
</event>
<event>
 9    1  0.3312826E-006  0.2219272E+03  0.7546771E-02  0.1162590E+00
         21   -1    0    0  501  502  0.00000000000E+00  0.00000000000E+00  0.47362800458E+02  0.47362800458E+02  0.00000000000E+00 0. -1.
          1   -1    0    0  502    0 -0.00000000000E+00 -0.00000000000E+00 -0.69714461767E+03  0.69714461767E+03  0.00000000000E+00 0. -1.
         23    2    1    2    0    0 -0.76517755196E+01 -0.60497057950E+02 -0.38020578787E+03  0.39533278759E+03  0.89516077464E+02 0.  0.
         23    2    1    2    0    0  0.24361076537E+02 -0.45596623788E+02 -0.87415271975E+02  0.13770923959E+03  0.93004788812E+02 0.  0.
        -13    1    4    4    0    0 -0.29451003720E+02  0.69968516121E+01 -0.33447373774E+02  0.45111466003E+02  0.00000000000E+00 0.  1.
         13    1    4    4    0    0  0.53812080257E+02 -0.52593475400E+02 -0.53967898201E+02  0.92597773583E+02  0.00000000000E+00 0. -1.
        -13    1    3    3    0    0  0.27845884431E+02  0.67967881606E+01 -0.15484575351E+03  0.15747633787E+03  0.00000000000E+00 0.  1.
         13    1    3    3    0    0 -0.35497659950E+02 -0.67293846111E+02 -0.22536003436E+03  0.23785644972E+03  0.00000000000E+00 0. -1.
          1    1    1    2  501    0 -0.16709301018E+02  0.10609368174E+03 -0.18216075736E+03  0.21146539095E+03  0.00000000000E+00 0. -1.
<scales pt_clust_5="13000.00000" pt_clust_6="13000.00000" pt_clust_7="13000.00000" pt_clust_8="13000.00000" pt_clust_9="13000.00000"></scales>
<clustering>
<clus scale="   89.516">  7  8 -1 -1</clus>
<clus scale="   93.005">  5  6 -1 -1</clus>
<clus scale="  107.401">  5  9 -1 -1</clus>
<clus scale="  108.312">  2  7  1 -1</clus>
<clus scale="  221.927">  1  5  2 -1</clus>
</clustering>
</event>
<event>
 9    1  0.3312826E-006  0.8387725E+03  0.7546771E-02  0.9869299E-01
         21   -1    0    0  501  502  0.00000000000E+00  0.00000000000E+00  0.39464407655E+03  0.39464407655E+03  0.00000000000E+00 0.  1.
         -1   -1    0    0    0  501 -0.00000000000E+00 -0.00000000000E+00 -0.84284441455E+03  0.84284441455E+03  0.00000000000E+00 0.  1.
         23    2    1    2    0    0  0.22610030158E+03  0.37551260969E+02 -0.29542756612E+03  0.38491657094E+03  0.91388599864E+02 0.  0.
         23    2    1    2    0    0 -0.44392283385E+03 -0.16060644159E+03 -0.29564405189E+03  0.56447222267E+03  0.91441638517E+02 0.  0.
        -11    1    4    4    0    0 -0.35666963024E+03 -0.15253542713E+03 -0.20643659113E+03  0.43942729527E+03  0.00000000000E+00 0.  1.
         11    1    4    4    0    0 -0.87253203604E+02 -0.80710144580E+01 -0.89207460761E+02  0.12504492740E+03  0.00000000000E+00 0. -1.
        -13    1    3    3    0    0  0.12499455729E+03  0.48291233533E+02 -0.10968245678E+03  0.17316444183E+03  0.00000000000E+00 0.  1.
         13    1    3    3    0    0  0.10110574429E+03 -0.10739972564E+02 -0.18574510934E+03  0.21175212911E+03  0.00000000000E+00 0. -1.
         -1    1    1    2    0  502  0.21782253227E+03  0.12305518062E+03  0.14287128002E+03  0.28809969749E+03  0.00000000000E+00 0.  1.
<scales pt_clust_5="13000.00000" pt_clust_6="13000.00000" pt_clust_7="13000.00000" pt_clust_8="13000.00000" pt_clust_9="13000.00000"></scales>
<clustering>
<clus scale="   91.389">  7  8 -1 -1</clus>
<clus scale="   91.442">  5  6 -1 -1</clus>
<clus scale="  246.745">  2  7  1 -1</clus>
<clus scale="  281.513">  5  9 -1 -1</clus>
<clus scale="  838.773">  1  5  2 -1</clus>
</clustering>
</event>
<event>
 9    1  0.3312826E-006  0.1491970E+03  0.7546771E-02  0.1213075E+00
         21   -1    0    0  501  502  0.00000000000E+00  0.00000000000E+00  0.32245366690E+02  0.32245366690E+02  0.00000000000E+00 0.  1.
          3   -1    0    0  502    0 -0.00000000000E+00 -0.00000000000E+00 -0.56050213748E+03  0.56050213748E+03  0.00000000000E+00 0. -1.
         23    2    1    2    0    0 -0.52061799215E+02  0.52168720916E+02 -0.27871925834E+03  0.30200927274E+03  0.89962044603E+02 0.  0.
         23    2    1    2    0    0  0.40101590282E+02 -0.23119939719E+02 -0.23134088291E+03  0.25443402212E+03  0.95264885210E+02 0.  0.
        -11    1    3    3    0    0 -0.74229090501E+02  0.52171916595E+02 -0.24839637712E+03  0.26444777731E+03  0.00000000000E+00 0.  1.
         11    1    3    3    0    0  0.22167291286E+02 -0.31956782687E-02 -0.30322881222E+02  0.37561495427E+02  0.00000000000E+00 0. -1.
        -13    1    4    4    0    0  0.35454607574E+02  0.29610251792E+02 -0.64060928959E+02  0.78978470664E+02  0.00000000000E+00 0.  1.
         13    1    4    4    0    0  0.46469827080E+01 -0.52730191511E+02 -0.16727995395E+03  0.17545555146E+03  0.00000000000E+00 0. -1.
          3    1    1    2  501    0  0.11960208933E+02 -0.29048781197E+02 -0.18196629539E+02  0.36304209306E+02  0.00000000000E+00 0. -1.
<scales pt_clust_5="13000.00000" pt_clust_6="13000.00000" pt_clust_7="13000.00000" pt_clust_8="13000.00000" pt_clust_9="13000.00000"></scales>
<clustering>
<clus scale="   89.962">  5  6 -1 -1</clus>
<clus scale="   95.265">  7  8 -1 -1</clus>
<clus scale="   31.415">  7  9 -1 -1</clus>
<clus scale="  116.298">  2  5  1 -1</clus>
<clus scale="  149.197">  1  5  2 -1</clus>
</clustering>
</event>
<event>
 9    1  0.3312826E-006  0.1882429E+03  0.7546771E-02  0.1191919E+00
         -4   -1    0    0    0  501 -0.00000000000E+00  0.00000000000E+00  0.74133781352E+02  0.74133781352E+02  0.00000000000E+00 0.  1.
         21   -1    0    0  501  502  0.00000000000E+00 -0.00000000000E+00 -0.26396579491E+03  0.26396579491E+03  0.00000000000E+00 0. -1.
         23    2    1    2    0    0 -0.15790526031E+02 -0.28217093898E+01 -0.59600438062E+02  0.10919862067E+03  0.90082316699E+02 0.  0.
         23    2    1    2    0    0 -0.60663662935E+02  0.16997220306E+00 -0.54926513214E+02  0.12155512603E+03  0.89881132158E+02 0.  0.
        -11    1    3    3    0    0  0.21755533931E+01  0.26341961152E+02 -0.68824050961E+02  0.73725042832E+02  0.00000000000E+00 0. -1.
         11    1    3    3    0    0 -0.17966079424E+02 -0.29163670542E+02  0.92236128995E+01  0.35473577833E+02  0.00000000000E+00 0.  1.
        -13    1    4    4    0    0 -0.87473994573E+00 -0.30758271015E+02  0.53082166344E+01  0.31225207280E+02  0.00000000000E+00 0.  1.
         13    1    4    4    0    0 -0.59788922989E+02  0.30928243218E+02 -0.60234729848E+02  0.90329918746E+02  0.00000000000E+00 0. -1.
         -4    1    1    2    0  502  0.76454188966E+02  0.26517371867E+01 -0.75305062279E+02  0.10734582957E+03  0.00000000000E+00 0.  1.
<scales pt_clust_5="13000.00000" pt_clust_6="13000.00000" pt_clust_7="13000.00000" pt_clust_8="13000.00000" pt_clust_9="13000.00000"></scales>
<clustering>
<clus scale="   89.881">  7  8 -1 -1</clus>
<clus scale="   76.500">  7  9 -1 -1</clus>
<clus scale="   90.082">  5  6 -1 -1</clus>
<clus scale="   91.499">  1  5  2 -1</clus>
<clus scale="  188.243">  2  5  1 -1</clus>
</clustering>
</event>
<event>
 9    1  0.3312826E-006  0.1602202E+03  0.7546771E-02  0.1204199E+00
         -1   -1    0    0    0  501 -0.00000000000E+00  0.00000000000E+00  0.22909898748E+03  0.22909898748E+03  0.00000000000E+00 0.  1.
         21   -1    0    0  501  502  0.00000000000E+00 -0.00000000000E+00 -0.86867165932E+02  0.86867165932E+02  0.00000000000E+00 0. -1.
         23    2    1    2    0    0 -0.53470934850E+00 -0.59608123219E+02  0.97368550454E+02  0.14958342994E+03  0.96649643706E+02 0.  0.
         23    2    1    2    0    0 -0.28481753049E+02  0.63710215839E+02  0.65513281732E+02  0.13053296485E+03  0.88750566022E+02 0.  0.
        -13    1    3    3    0    0  0.41958535999E+02 -0.45289743459E+02  0.29963245567E+02  0.68625619783E+02  0.00000000000E+00 0. -1.
         13    1    3    3    0    0 -0.42493245347E+02 -0.14318379760E+02  0.67405304887E+02  0.80957810161E+02  0.00000000000E+00 0.  1.
        -13    1    4    4    0    0 -0.21708709112E+02 -0.19626127347E+02  0.15772757830E+02  0.33245041969E+02  0.00000000000E+00 0. -1.
         13    1    4    4    0    0 -0.67730439375E+01  0.83336343186E+02  0.49740523902E+02  0.97287922877E+02  0.00000000000E+00 0.  1.
         -1    1    1    2    0  502  0.29016462398E+02 -0.41020926204E+01 -0.20650010638E+02  0.35849758623E+02  0.00000000000E+00 0.  1.
<scales pt_clust_5="13000.00000" pt_clust_6="13000.00000" pt_clust_7="13000.00000" pt_clust_8="13000.00000" pt_clust_9="13000.00000"></scales>
<clustering>
<clus scale="   88.751">  7  8 -1 -1</clus>
<clus scale="   29.305">  7  9 -1 -1</clus>
<clus scale="   96.650">  5  6 -1 -1</clus>
<clus scale="  113.554">  1  5  2 -1</clus>
<clus scale="  160.220">  2  5  1 -1</clus>
</clustering>
</event>
<event>
 9    1  0.3312826E-006  0.1850719E+03  0.7546771E-02  0.1186929E+00
          1   -1    0    0  502    0 -0.00000000000E+00  0.00000000000E+00  0.74089399741E+03  0.74089399741E+03  0.00000000000E+00 0. -1.
         21   -1    0    0  501  502  0.00000000000E+00 -0.00000000000E+00 -0.28899228319E+02  0.28899228319E+02  0.00000000000E+00 0.  1.
         23    2    1    2    0    0 -0.53495209975E+02 -0.19662909307E+02  0.25404245029E+03  0.27585807895E+03  0.91168775794E+02 0.  0.
         23    2    1    2    0    0  0.86902800452E+02 -0.25401620906E+02  0.34153854062E+03  0.36471035529E+03  0.90375491461E+02 0.  0.
        -11    1    3    3    0    0  0.18188232094E+02 -0.28535826855E+02  0.61203307952E+02  0.69935328020E+02  0.00000000000E+00 0.  1.
         11    1    3    3    0    0 -0.71683442070E+02  0.88729175475E+01  0.19283914234E+03  0.20592275093E+03  0.00000000000E+00 0. -1.
        -13    1    4    4    0    0 -0.15381047134E+02 -0.14183095208E+02  0.29666364255E+02  0.36301927893E+02  0.00000000000E+00 0. -1.
         13    1    4    4    0    0  0.10228384759E+03 -0.11218525698E+02  0.31187217636E+03  0.32840842740E+03  0.00000000000E+00 0.  1.
          1    1    1    2  501    0 -0.33407590477E+02  0.45064530213E+02  0.11641377818E+03  0.12922479149E+03  0.00000000000E+00 0. -1.
<scales pt_clust_5="13000.00000" pt_clust_6="13000.00000" pt_clust_7="13000.00000" pt_clust_8="13000.00000" pt_clust_9="13000.00000"></scales>
<clustering>
<clus scale="   90.375">  7  8 -1 -1</clus>
<clus scale="   56.097">  7  9 -1 -1</clus>
<clus scale="   91.169">  5  6 -1 -1</clus>
<clus scale="  107.518">  1  5  2 -1</clus>
<clus scale="  185.072">  2  5  1 -1</clus>
</clustering>
</event>
<event>
 9    1  0.3312826E-006  0.3790113E+03  0.7546771E-02  0.1102715E+00
          1   -1    0    0  502    0 -0.00000000000E+00  0.00000000000E+00  0.70021591257E+03  0.70021591257E+03  0.00000000000E+00 0. -1.
         21   -1    0    0  501  502  0.00000000000E+00 -0.00000000000E+00 -0.11546586459E+03  0.11546586459E+03  0.00000000000E+00 0.  1.
         23    2    1    2    0    0  0.29082253298E+02 -0.37197764934E+01 -0.25374721360E+02  0.97418734724E+02  0.89369565273E+02 0.  0.
         23    2    1    2    0    0 -0.16693656638E+03 -0.64672483528E+02  0.46535597147E+03  0.50698285476E+03  0.91788275515E+02 0.  0.
        -11    1    4    4    0    0 -0.12947000535E+03 -0.83288847016E+02  0.40730382845E+03  0.43542613954E+03  0.00000000000E+00 0.  1.
         11    1    4    4    0    0 -0.37466561026E+02  0.18616363488E+02  0.58052143017E+02  0.71556715223E+02  0.00000000000E+00 0. -1.
        -11    1    3    3    0    0 -0.95740574551E+01  0.28291226666E+02 -0.35317628043E+02  0.46253550491E+02  0.00000000000E+00 0.  1.
         11    1    3    3    0    0  0.38656310753E+02 -0.32011003160E+02  0.99429066830E+01  0.51165184233E+02  0.00000000000E+00 0. -1.
          1    1    1    2  501    0  0.13785431308E+03  0.68392260021E+02  0.14476879787E+03  0.21128018767E+03  0.00000000000E+00 0. -1.
<scales pt_clust_5="13000.00000" pt_clust_6="13000.00000" pt_clust_7="13000.00000" pt_clust_8="13000.00000" pt_clust_9="13000.00000"></scales>
<clustering>
<clus scale="   89.370">  7  8 -1 -1</clus>
<clus scale="   91.788">  5  6 -1 -1</clus>
<clus scale="   94.056">  1  7  2 -1</clus>
<clus scale="  160.486">  5  9 -1 -1</clus>
<clus scale="  379.011">  2  5  1 -1</clus>
</clustering>
</event>
<event>
 9    1  0.3312826E-006  0.1828544E+03  0.7546771E-02  0.1180415E+00
         21   -1    0    0  501  502  0.00000000000E+00  0.00000000000E+00  0.46214629896E+02  0.46214629896E+02  0.00000000000E+00 0.  1.
          1   -1    0    0  502    0 -0.00000000000E+00 -0.00000000000E+00 -0.53263297392E+03  0.53263297392E+03  0.00000000000E+00 0. -1.
         23    2    1    2    0    0  0.68601676291E+02 -0.61921393951E+02 -0.23378309645E+03  0.26698174825E+03  0.89912561368E+02 0.  0.
         23    2    1    2    0    0 -0.20734906681E+02  0.22003649411E+01 -0.19640570184E+03  0.21689432957E+03  0.89627967288E+02 0.  0.
        -13    1    4    4    0    0 -0.21464313249E+02  0.42924963459E+02 -0.13435737524E+03  0.14267155817E+03  0.00000000000E+00 0. -1.
         13    1    4    4    0    0  0.72940656801E+00 -0.40724598518E+02 -0.62048326607E+02  0.74222771393E+02  0.00000000000E+00 0.  1.
        -13    1    3    3    0    0  0.30918805106E+02 -0.68442048385E+02 -0.85287958588E+02  0.11364120017E+03  0.00000000000E+00 0.  1.
         13    1    3    3    0    0  0.37682871185E+02  0.65206544345E+01 -0.14849513786E+03  0.15334054807E+03  0.00000000000E+00 0. -1.
          1    1    1    2  501    0 -0.47866769610E+02  0.59721029010E+02 -0.56229545735E+02  0.94971526009E+02  0.00000000000E+00 0. -1.
<scales pt_clust_5="13000.00000" pt_clust_6="13000.00000" pt_clust_7="13000.00000" pt_clust_8="13000.00000" pt_clust_9="13000.00000"></scales>
<clustering>
<clus scale="   89.628">  5  6 -1 -1</clus>
<clus scale="   76.536">  5  9 -1 -1</clus>
<clus scale="   89.913">  7  8 -1 -1</clus>
<clus scale="  128.937">  2  7  1 -1</clus>
<clus scale="  182.854">  1  5  2 -1</clus>
</clustering>
</event>
<event>
 9    1  0.3312826E-006  0.1321599E+03  0.7546771E-02  0.1241902E+00
          1   -1    0    0  502    0 -0.00000000000E+00  0.00000000000E+00  0.40564476267E+03  0.40564476267E+03  0.00000000000E+00 0. -1.
         21   -1    0    0  501  502  0.00000000000E+00 -0.00000000000E+00 -0.85894943431E+02  0.85894943431E+02  0.00000000000E+00 0.  1.
         23    2    1    2    0    0 -0.27571137273E+02  0.58205711768E+01  0.34493580573E+03  0.35700130353E+03  0.87608070346E+02 0.  0.
         23    2    1    2    0    0 -0.37206702644E+01 -0.25092533875E+02 -0.28622971413E+02  0.97627718070E+02  0.89824374195E+02 0.  0.
        -11    1    4    4    0    0  0.66928713989E+01 -0.58184598592E+02 -0.19890731747E+02  0.61853724628E+02  0.00000000000E+00 0.  1.
         11    1    4    4    0    0 -0.10413541663E+02  0.33092064717E+02 -0.87322396662E+01  0.35773993442E+02  0.00000000000E+00 0. -1.
        -13    1    3    3    0    0  0.94696639574E+01 -0.34030691820E+02  0.17637149099E+03  0.17987402635E+03  0.00000000000E+00 0.  1.
         13    1    3    3    0    0 -0.37040801231E+02  0.39851262997E+02  0.16856431474E+03  0.17712727718E+03  0.00000000000E+00 0. -1.
          1    1    1    2  501    0  0.31291807538E+02  0.19271962698E+02  0.34369849276E+01  0.36910684505E+02  0.00000000000E+00 0. -1.
<scales pt_clust_5="13000.00000" pt_clust_6="13000.00000" pt_clust_7="13000.00000" pt_clust_8="13000.00000" pt_clust_9="13000.00000"></scales>
<clustering>
<clus scale="   87.608">  7  8 -1 -1</clus>
<clus scale="   89.824">  5  6 -1 -1</clus>
<clus scale="   36.750">  5  9 -1 -1</clus>
<clus scale="   92.028">  1  7  2 -1</clus>
<clus scale="  132.160">  2  5  1 -1</clus>
</clustering>
</event>
<event>
 9    1  0.3312826E-006  0.4052251E+03  0.7546771E-02  0.1073609E+00
         21   -1    0    0  501  502  0.00000000000E+00  0.00000000000E+00  0.22240407379E+03  0.22240407379E+03  0.00000000000E+00 0.  1.
         -1   -1    0    0    0  501 -0.00000000000E+00 -0.00000000000E+00 -0.44033246952E+03  0.44033246952E+03  0.00000000000E+00 0.  1.
         23    2    1    2    0    0  0.19733409972E+02  0.13510711778E+03 -0.19556549789E+03  0.25689487717E+03  0.95424175185E+02 0.  0.
         23    2    1    2    0    0  0.98118065099E+02  0.80795523162E+02 -0.28967494660E+02  0.15977959828E+03  0.92386866047E+02 0.  0.
        -11    1    4    4    0    0  0.10304642250E+02  0.67527011068E+02 -0.13608252988E+02  0.69651040373E+02  0.00000000000E+00 0.  1.
         11    1    4    4    0    0  0.87813422850E+02  0.13268512094E+02 -0.15359241672E+02  0.90128557908E+02  0.00000000000E+00 0. -1.
        -11    1    3    3    0    0  0.32766458167E+01  0.14648767107E+03 -0.17402750253E+03  0.22749713366E+03  0.00000000000E+00 0.  1.
         11    1    3    3    0    0  0.16456764155E+02 -0.11380553297E+02 -0.21537995353E+02  0.29397743512E+02  0.00000000000E+00 0. -1.
         -1    1    1    2    0  502 -0.11785147507E+03 -0.21590264094E+03  0.66045968180E+01  0.24606206786E+03  0.00000000000E+00 0.  1.
<scales pt_clust_5="13000.00000" pt_clust_6="13000.00000" pt_clust_7="13000.00000" pt_clust_8="13000.00000" pt_clust_9="13000.00000"></scales>
<clustering>
<clus scale="   92.387">  5  6 -1 -1</clus>
<clus scale="   95.424">  7  8 -1 -1</clus>
<clus scale="  166.581">  2  7  1 -1</clus>
<clus scale="  176.373">  5  9 -1 -1</clus>
<clus scale="  405.225">  1  5  2 -1</clus>
</clustering>
</event>
<event>
 9    1  0.3312826E-006  0.4819295E+03  0.7546771E-02  0.1072777E+00
         21   -1    0    0  501  502  0.00000000000E+00  0.00000000000E+00  0.57099394102E+03  0.57099394102E+03  0.00000000000E+00 0. -1.
          1   -1    0    0  502    0 -0.00000000000E+00 -0.00000000000E+00 -0.15900967081E+03  0.15900967081E+03  0.00000000000E+00 0. -1.
         23    2    1    2    0    0  0.31486755005E+02 -0.33583442814E+01  0.88395238615E+01  0.10168701298E+03  0.96225865598E+02 0.  0.
         23    2    1    2    0    0 -0.22820897024E+02  0.10744216384E+03 -0.58611486696E+02  0.15489568958E+03  0.92156152077E+02 0.  0.
        -11    1    4    4    0    0  0.62009221506E+01  0.65841512423E+02  0.12743066706E+02  0.67349401948E+02  0.00000000000E+00 0. -1.
         11    1    4    4    0    0 -0.29021819174E+02  0.41600651416E+02 -0.71354553403E+02  0.87546287629E+02  0.00000000000E+00 0.  1.
        -13    1    3    3    0    0 -0.26971613054E+02 -0.23288179949E+02 -0.10184571866E+02  0.37061202627E+02  0.00000000000E+00 0. -1.
         13    1    3    3    0    0  0.58458368059E+02  0.19929835667E+02  0.19024095727E+02  0.64625810355E+02  0.00000000000E+00 0.  1.
          1    1    1    2  501    0 -0.86658579817E+01 -0.10408381956E+03  0.46175623304E+03  0.47342090928E+03  0.00000000000E+00 0. -1.
<scales pt_clust_5="13000.00000" pt_clust_6="13000.00000" pt_clust_7="13000.00000" pt_clust_8="13000.00000" pt_clust_9="13000.00000"></scales>
<clustering>
<clus scale="   92.156">  5  6 -1 -1</clus>
<clus scale="   96.226">  7  8 -1 -1</clus>
<clus scale="  101.302">  2  7  1 -1</clus>
<clus scale="  104.495">  5  9 -1 -1</clus>
<clus scale="  481.930">  1  5  2 -1</clus>
</clustering>
</event>
<event>
 9    1  0.3312826E-006  0.1432177E+03  0.7546771E-02  0.1227200E+00
         21   -1    0    0  501  502  0.00000000000E+00  0.00000000000E+00  0.56086360157E+02  0.56086360157E+02  0.00000000000E+00 0.  1.
          2   -1    0    0  502    0 -0.00000000000E+00 -0.00000000000E+00 -0.32798374385E+03  0.32798374385E+03  0.00000000000E+00 0. -1.
         23    2    1    2    0    0  0.24264419413E+01  0.30479034357E+02 -0.20264767590E+03  0.22498888289E+03  0.92838880451E+02 0.  0.
         23    2    1    2    0    0  0.32674770404E+02 -0.21249477207E+02 -0.71439576055E+02  0.12272086693E+03  0.91856503584E+02 0.  0.
        -13    1    4    4    0    0 -0.24334198737E+02 -0.14520309857E+02 -0.56803970946E+02  0.63479790027E+02  0.00000000000E+00 0. -1.
         13    1    4    4    0    0  0.57008969141E+02 -0.67291673498E+01 -0.14635605108E+02  0.59241076903E+02  0.00000000000E+00 0.  1.
        -13    1    3    3    0    0  0.19924504516E+02 -0.28349174590E+02 -0.53907529606E+02  0.64083409151E+02  0.00000000000E+00 0. -1.
         13    1    3    3    0    0 -0.17498062574E+02  0.58828208947E+02 -0.14874014629E+03  0.16090547374E+03  0.00000000000E+00 0.  1.
          2    1    1    2  501    0 -0.35101212345E+02 -0.92295571510E+01  0.21898682589E+01  0.36360354183E+02  0.00000000000E+00 0. -1.
<scales pt_clust_5="13000.00000" pt_clust_6="13000.00000" pt_clust_7="13000.00000" pt_clust_8="13000.00000" pt_clust_9="13000.00000"></scales>
<clustering>
<clus scale="   91.857">  5  6 -1 -1</clus>
<clus scale="   36.294">  5  9 -1 -1</clus>
<clus scale="   92.839">  7  8 -1 -1</clus>
<clus scale="   97.744">  2  7  1 -1</clus>
<clus scale="  143.218">  1  5  2 -1</clus>
</clustering>
</event>
<event>
 9    1  0.3312826E-006  0.1884997E+03  0.7546771E-02  0.1188387E+00
          1   -1    0    0  502    0 -0.00000000000E+00  0.00000000000E+00  0.17923279419E+03  0.17923279419E+03  0.00000000000E+00 0. -1.
         21   -1    0    0  501  502  0.00000000000E+00 -0.00000000000E+00 -0.11567444147E+03  0.11567444147E+03  0.00000000000E+00 0.  1.
         23    2    1    2    0    0  0.39009997771E+02  0.10865694744E+02  0.33283833204E+02  0.10399186044E+03  0.89814532432E+02 0.  0.
         23    2    1    2    0    0  0.23423209791E+02 -0.26491148700E+02  0.64191562641E+02  0.11816631315E+03  0.92694623003E+02 0.  0.
        -11    1    4    4    0    0  0.52554787702E+02 -0.32344011745E+02  0.19915946172E+02  0.64844319089E+02  0.00000000000E+00 0.  1.
         11    1    4    4    0    0 -0.29131577911E+02  0.58528630444E+01  0.44275616468E+02  0.53321994065E+02  0.00000000000E+00 0. -1.
        -13    1    3    3    0    0  0.54567276372E+02  0.29052170247E+02  0.45844521461E+02  0.76963214555E+02  0.00000000000E+00 0.  1.
         13    1    3    3    0    0 -0.15557278601E+02 -0.18186475503E+02 -0.12560688257E+02  0.27028645881E+02  0.00000000000E+00 0. -1.
          1    1    1    2  501    0 -0.62433207561E+02  0.15625453956E+02 -0.33917043125E+02  0.72749062070E+02  0.00000000000E+00 0. -1.
<scales pt_clust_5="13000.00000" pt_clust_6="13000.00000" pt_clust_7="13000.00000" pt_clust_8="13000.00000" pt_clust_9="13000.00000"></scales>
<clustering>
<clus scale="   89.815">  7  8 -1 -1</clus>
<clus scale="   92.695">  5  6 -1 -1</clus>
<clus scale="   64.359">  5  9 -1 -1</clus>
<clus scale="   98.522">  1  7  2 -1</clus>
<clus scale="  188.500">  2  5  1 -1</clus>
</clustering>
</event>
<event>
 9    1  0.3312826E-006  0.1361870E+03  0.7546771E-02  0.1231843E+00
         21   -1    0    0  501  502  0.00000000000E+00  0.00000000000E+00  0.11970725366E+03  0.11970725366E+03  0.00000000000E+00 0.  1.
          1   -1    0    0  502    0 -0.00000000000E+00 -0.00000000000E+00 -0.15758627436E+03  0.15758627436E+03  0.00000000000E+00 0. -1.
         23    2    1    2    0    0 -0.19009955150E+02 -0.42548680358E+02  0.50480249733E+02  0.11495358785E+03  0.92164543900E+02 0.  0.
         23    2    1    2    0    0 -0.15218088340E+02  0.24297616417E+02 -0.68409884331E+02  0.11872069782E+03  0.92696965653E+02 0.  0.
        -11    1    4    4    0    0 -0.49166540003E+02  0.33166911763E+02 -0.55813098808E+02  0.81440129483E+02  0.00000000000E+00 0. -1.
         11    1    4    4    0    0  0.33948451663E+02 -0.88692953453E+01 -0.12596785523E+02  0.37280568340E+02  0.00000000000E+00 0.  1.
        -13    1    3    3    0    0  0.32010119913E+02 -0.56162647156E+00  0.34312752078E+02  0.46928969266E+02  0.00000000000E+00 0. -1.
         13    1    3    3    0    0 -0.51020075064E+02 -0.41987053886E+02  0.16167497655E+02  0.68024618588E+02  0.00000000000E+00 0.  1.
          1    1    1    2  501    0  0.34228043490E+02  0.18251063941E+02 -0.19949386101E+02  0.43619242335E+02  0.00000000000E+00 0. -1.
<scales pt_clust_5="13000.00000" pt_clust_6="13000.00000" pt_clust_7="13000.00000" pt_clust_8="13000.00000" pt_clust_9="13000.00000"></scales>
<clustering>
<clus scale="   92.165">  7  8 -1 -1</clus>
<clus scale="   92.697">  5  6 -1 -1</clus>
<clus scale="   38.790">  5  9 -1 -1</clus>
<clus scale="  103.277">  2  7  1 -1</clus>
<clus scale="  136.187">  1  5  2 -1</clus>
</clustering>
</event>
<event>
 9    1  0.4233049E-006  0.6580283E+03  0.7546771E-02  0.1025619E+00
         21   -1    0    0  501  502  0.00000000000E+00  0.00000000000E+00  0.58655150686E+03  0.58655150686E+03  0.00000000000E+00 0.  1.
         -3   -1    0    0    0  501 -0.00000000000E+00 -0.00000000000E+00 -0.28127401521E+03  0.28127401521E+03  0.00000000000E+00 0.  1.
         23    2    1    2    0    0  0.98471287535E+02  0.73558188827E+02  0.40399935598E+02  0.15848687715E+03  0.91534331367E+02 0.  0.
         23    2    1    2    0    0 -0.38878725182E+02  0.67158879230E+02 -0.18544758916E+03  0.23379127279E+03  0.11935527041E+03 0.  0.
        -13    1    4    4    0    0  0.26307234293E+02 -0.19881184235E+02 -0.34182769262E+02  0.47495197411E+02  0.00000000000E+00 0. -1.
         13    1    4    4    0    0 -0.65185959475E+02  0.87040063465E+02 -0.15126481990E+03  0.18629607538E+03  0.00000000000E+00 0.  1.
        -13    1    3    3    0    0  0.93466465931E+02  0.24816415864E+02  0.28357049011E+01  0.96746451988E+02  0.00000000000E+00 0.  1.
         13    1    3    3    0    0  0.50048216044E+01  0.48741772963E+02  0.37564230697E+02  0.61740425158E+02  0.00000000000E+00 0. -1.
         -3    1    1    2    0  502 -0.59592562353E+02 -0.14071706806E+03  0.45032514522E+03  0.47554737214E+03  0.00000000000E+00 0.  1.
<scales pt_clust_5="13000.00000" pt_clust_6="13000.00000" pt_clust_7="13000.00000" pt_clust_8="13000.00000" pt_clust_9="13000.00000"></scales>
<clustering>
<clus scale="   91.534">  7  8 -1 -1</clus>
<clus scale="  119.355">  5  6 -1 -1</clus>
<clus scale="  152.816">  5  9 -1 -1</clus>
<clus scale="  153.251">  2  7  1 -1</clus>
<clus scale="  658.028">  1  5  2 -1</clus>
</clustering>
</event>
<event>
 9    1  0.3312826E-006  0.3911621E+03  0.7546771E-02  0.1095968E+00
         21   -1    0    0  501  502  0.00000000000E+00  0.00000000000E+00  0.57878721152E+02  0.57878721152E+02  0.00000000000E+00 0. -1.
         -1   -1    0    0    0  501 -0.00000000000E+00 -0.00000000000E+00 -0.10819093030E+04  0.10819093030E+04  0.00000000000E+00 0.  1.
         23    2    1    2    0    0 -0.15762969580E+02 -0.45447560877E+02 -0.29998835310E+03  0.31683908970E+03  0.89889069232E+02 0.  0.
         23    2    1    2    0    0  0.19132274544E+03  0.16696158138E+02 -0.39698512364E+03  0.45063961672E+03  0.92713112090E+02 0.  0.
        -13    1    3    3    0    0 -0.44068400758E+02  0.43197042611E+01 -0.14519394124E+03  0.15179579824E+03  0.00000000000E+00 0.  1.
         13    1    3    3    0    0  0.28305431178E+02 -0.49767265138E+02 -0.15479441186E+03  0.16504329146E+03  0.00000000000E+00 0. -1.
        -13    1    4    4    0    0  0.20278977694E+02  0.31548173136E+01 -0.27767840006E+01  0.20709909174E+02  0.00000000000E+00 0. -1.
         13    1    4    4    0    0  0.17104376775E+03  0.13541340824E+02 -0.39420833963E+03  0.42992970755E+03  0.00000000000E+00 0.  1.
         -1    1    1    2    0  502 -0.17555977586E+03  0.28751402739E+02 -0.32705710509E+03  0.37230931771E+03  0.00000000000E+00 0.  1.
<scales pt_clust_5="13000.00000" pt_clust_6="13000.00000" pt_clust_7="13000.00000" pt_clust_8="13000.00000" pt_clust_9="13000.00000"></scales>
<clustering>
<clus scale="   89.889">  5  6 -1 -1</clus>
<clus scale="   92.713">  7  8 -1 -1</clus>
<clus scale="  101.951">  2  5  1 -1</clus>
<clus scale="  182.870">  7  9 -1 -1</clus>
<clus scale="  391.162">  1  5  2 -1</clus>
</clustering>
</event>
<event>
 9    1  0.3312826E-006  0.1815591E+03  0.7546771E-02  0.1185671E+00
          1   -1    0    0  502    0 -0.00000000000E+00  0.00000000000E+00  0.76046144488E+03  0.76046144488E+03  0.00000000000E+00 0. -1.
         21   -1    0    0  501  502  0.00000000000E+00 -0.00000000000E+00 -0.31597713202E+02  0.31597713202E+02  0.00000000000E+00 0. -1.
         23    2    1    2    0    0 -0.28515466177E+02 -0.68162945653E+02  0.39532657667E+03  0.41230827329E+03  0.90860833315E+02 0.  0.
         23    2    1    2    0    0 -0.20275175820E+02  0.58624962015E+02  0.30217416396E+03  0.32097047066E+03  0.88683982450E+02 0.  0.
        -13    1    4    4    0    0 -0.49580532187E+02  0.91899318742E+01  0.15382350300E+03  0.16187758985E+03  0.00000000000E+00 0.  1.
         13    1    4    4    0    0  0.29305356367E+02  0.49435030141E+02  0.14835066096E+03  0.15909288081E+03  0.00000000000E+00 0. -1.
        -13    1    3    3    0    0  0.25872852280E+02 -0.51083436199E+02  0.15294058951E+03  0.16330874398E+03  0.00000000000E+00 0.  1.
         13    1    3    3    0    0 -0.54388318458E+02 -0.17079509454E+02  0.24238598716E+03  0.24899952931E+03  0.00000000000E+00 0. -1.
          1    1    1    2  501    0  0.48790641997E+02  0.95379836380E+01  0.31362991046E+02  0.58780414134E+02  0.00000000000E+00 0. -1.
<scales pt_clust_5="13000.00000" pt_clust_6="13000.00000" pt_clust_7="13000.00000" pt_clust_8="13000.00000" pt_clust_9="13000.00000"></scales>
<clustering>
<clus scale="   88.684">  5  6 -1 -1</clus>
<clus scale="   49.714">  5  9 -1 -1</clus>
<clus scale="   90.861">  7  8 -1 -1</clus>
<clus scale="  117.111">  1  7  2 -1</clus>
<clus scale="  181.559">  2  5  1 -1</clus>
</clustering>
</event>
<event>
 9    1  0.3312826E-006  0.1837907E+03  0.7546771E-02  0.1190242E+00
          1   -1    0    0  502    0 -0.00000000000E+00  0.00000000000E+00  0.18885287544E+03  0.18885287544E+03  0.00000000000E+00 0. -1.
         21   -1    0    0  501  502  0.00000000000E+00 -0.00000000000E+00 -0.35746542823E+03  0.35746542823E+03  0.00000000000E+00 0. -1.
         23    2    1    2    0    0 -0.48568038919E+02  0.54225825656E+00  0.14828065399E+03  0.17998469579E+03  0.89711704505E+02 0.  0.
         23    2    1    2    0    0  0.47932820519E+02 -0.31933822143E+02 -0.98983733897E+02  0.14617372926E+03  0.90838622128E+02 0.  0.
        -11    1    3    3    0    0  0.17670863713E+02 -0.19040651491E+02  0.15334040661E+02  0.30165189152E+02  0.00000000000E+00 0.  1.
         11    1    3    3    0    0 -0.66238902633E+02  0.19582909747E+02  0.13294661332E+03  0.14981950664E+03  0.00000000000E+00 0. -1.
        -13    1    4    4    0    0  0.41801290354E+02 -0.51852402177E+02 -0.28097917998E+02  0.72287706304E+02  0.00000000000E+00 0.  1.
         13    1    4    4    0    0  0.61315301642E+01  0.19918580034E+02 -0.70885815898E+02  0.73886022956E+02  0.00000000000E+00 0. -1.
          1    1    1    2  501    0  0.63521840092E+00  0.31391563886E+02 -0.21790947287E+03  0.22015987862E+03  0.00000000000E+00 0. -1.
<scales pt_clust_5="13000.00000" pt_clust_6="13000.00000" pt_clust_7="13000.00000" pt_clust_8="13000.00000" pt_clust_9="13000.00000"></scales>
<clustering>
<clus scale="   89.712">  5  6 -1 -1</clus>
<clus scale="   90.839">  7  8 -1 -1</clus>
<clus scale="   31.398">  7  9 -1 -1</clus>
<clus scale="  102.016">  1  5  2 -1</clus>
<clus scale="  183.791">  2  5  1 -1</clus>
</clustering>
</event>
<event>
 9    1  0.3312826E-006  0.1566007E+03  0.7546771E-02  0.1212749E+00
          1   -1    0    0  502    0 -0.00000000000E+00  0.00000000000E+00  0.67403280396E+03  0.67403280396E+03  0.00000000000E+00 0. -1.
         21   -1    0    0  501  502  0.00000000000E+00 -0.00000000000E+00 -0.41640378832E+02  0.41640378832E+02  0.00000000000E+00 0. -1.
         23    2    1    2    0    0  0.41542147408E+02 -0.11288459972E+02  0.50135514542E+03  0.51148073880E+03  0.91664524112E+02 0.  0.
         23    2    1    2    0    0  0.15649332484E+02  0.25883486048E+02  0.94553293494E+02  0.13480252103E+03  0.91195054191E+02 0.  0.
        -13    1    3    3    0    0 -0.27910473975E+02  0.80322982166E+01  0.15628276237E+03  0.15895852977E+03  0.00000000000E+00 0.  1.
         13    1    3    3    0    0  0.69452621383E+02 -0.19320758189E+02  0.34507238305E+03  0.35252220903E+03  0.00000000000E+00 0. -1.
        -13    1    4    4    0    0  0.29330250046E+02 -0.26326298635E+02  0.24643808766E+02  0.46482844987E+02  0.00000000000E+00 0.  1.
         13    1    4    4    0    0 -0.13680917562E+02  0.52209784683E+02  0.69909484728E+02  0.88319676046E+02  0.00000000000E+00 0. -1.
          1    1    1    2  501    0 -0.57191479892E+02 -0.14595026076E+02  0.36483986211E+02  0.69389922959E+02  0.00000000000E+00 0. -1.
<scales pt_clust_5="13000.00000" pt_clust_6="13000.00000" pt_clust_7="13000.00000" pt_clust_8="13000.00000" pt_clust_9="13000.00000"></scales>
<clustering>
<clus scale="   91.195">  7  8 -1 -1</clus>
<clus scale="   59.024">  7  9 -1 -1</clus>
<clus scale="   91.665">  5  6 -1 -1</clus>
<clus scale="  101.270">  1  5  2 -1</clus>
<clus scale="  156.601">  2  5  1 -1</clus>
</clustering>
</event>
<event>
 9    1  0.3312826E-006  0.2597625E+03  0.7546771E-02  0.1135802E+00
         21   -1    0    0  501  502  0.00000000000E+00  0.00000000000E+00  0.61651133148E+03  0.61651133148E+03  0.00000000000E+00 0. -1.
          1   -1    0    0  502    0 -0.00000000000E+00 -0.00000000000E+00 -0.74098968832E+02  0.74098968832E+02  0.00000000000E+00 0. -1.
         23    2    1    2    0    0 -0.85600699680E+02 -0.23155659207E+02  0.33416142421E+03  0.35767637210E+03  0.91678052903E+02 0.  0.
         23    2    1    2    0    0  0.97723943856E+02 -0.74428826442E+02  0.87073822946E+02  0.17687753390E+03  0.92812671269E+02 0.  0.
        -11    1    4    4    0    0  0.29057271841E+02 -0.43178453815E+02 -0.10948232071E+02  0.53184280631E+02  0.00000000000E+00 0. -1.
         11    1    4    4    0    0  0.68666672015E+02 -0.31250372626E+02  0.98022055017E+02  0.12369325327E+03  0.00000000000E+00 0.  1.
        -11    1    3    3    0    0 -0.85879223287E+02  0.13545647455E+02  0.19051263855E+03  0.20941296762E+03  0.00000000000E+00 0.  1.
         11    1    3    3    0    0  0.27852360696E+00 -0.36701306662E+02  0.14364878566E+03  0.14826340448E+03  0.00000000000E+00 0. -1.
          1    1    1    2  501    0 -0.12123244175E+02  0.97584485649E+02  0.12117711549E+03  0.15605639431E+03  0.00000000000E+00 0. -1.
<scales pt_clust_5="13000.00000" pt_clust_6="13000.00000" pt_clust_7="13000.00000" pt_clust_8="13000.00000" pt_clust_9="13000.00000"></scales>
<clustering>
<clus scale="   91.678">  7  8 -1 -1</clus>
<clus scale="   92.813">  5  6 -1 -1</clus>
<clus scale="   98.335">  5  9 -1 -1</clus>
<clus scale="  127.548">  2  7  1 -1</clus>
<clus scale="  259.762">  1  5  2 -1</clus>
</clustering>
</event>
<event>
 9    1  0.3312826E-006  0.2011902E+03  0.7546771E-02  0.1176393E+00
         -1   -1    0    0    0  501 -0.00000000000E+00  0.00000000000E+00  0.17935530738E+03  0.17935530738E+03  0.00000000000E+00 0.  1.
         21   -1    0    0  501  502  0.00000000000E+00 -0.00000000000E+00 -0.15278049388E+03  0.15278049388E+03  0.00000000000E+00 0.  1.
         23    2    1    2    0    0  0.47398075248E+02 -0.18823545937E+02  0.69069866465E+02  0.12650668264E+03  0.92910660751E+02 0.  0.
         23    2    1    2    0    0  0.25021389239E+02  0.52972872698E+02  0.11465743148E+02  0.10907590596E+03  0.91290168335E+02 0.  0.
        -13    1    4    4    0    0 -0.18619401677E+02  0.30343706027E+02 -0.28593455820E+02  0.45661891441E+02  0.00000000000E+00 0. -1.
         13    1    4    4    0    0  0.43640790916E+02  0.22629166671E+02  0.40059198968E+02  0.63414014523E+02  0.00000000000E+00 0.  1.
        -13    1    3    3    0    0  0.58005636155E+02 -0.38567160192E+02  0.19859250102E+02  0.72432516770E+02  0.00000000000E+00 0.  1.
         13    1    3    3    0    0 -0.10607560906E+02  0.19743614255E+02  0.49210616362E+02  0.54074165874E+02  0.00000000000E+00 0. -1.
         -1    1    1    2    0  502 -0.72419464488E+02 -0.34149326761E+02 -0.53960796121E+02  0.96553212649E+02  0.00000000000E+00 0.  1.
<scales pt_clust_5="13000.00000" pt_clust_6="13000.00000" pt_clust_7="13000.00000" pt_clust_8="13000.00000" pt_clust_9="13000.00000"></scales>
<clustering>
<clus scale="   91.290">  5  6 -1 -1</clus>
<clus scale="   80.067">  5  9 -1 -1</clus>
<clus scale="   92.911">  7  8 -1 -1</clus>
<clus scale="  105.987">  1  7  2 -1</clus>
<clus scale="  201.190">  2  5  1 -1</clus>
</clustering>
</event>
<event>
 9    1  0.3312826E-006  0.2429519E+03  0.7546771E-02  0.1130898E+00
         -1   -1    0    0    0  501 -0.00000000000E+00  0.00000000000E+00  0.89291004672E+03  0.89291004672E+03  0.00000000000E+00 0.  1.
         21   -1    0    0  501  502  0.00000000000E+00 -0.00000000000E+00 -0.52573558308E+02  0.52573558308E+02  0.00000000000E+00 0. -1.
         23    2    1    2    0    0 -0.10179675586E+03 -0.11064699607E+03  0.47760433670E+03  0.50890574348E+03  0.90960519269E+02 0.  0.
         23    2    1    2    0    0  0.10786026645E+02 -0.26861888045E+01  0.18866313458E+03  0.20980179062E+03  0.91101366695E+02 0.  0.
        -11    1    3    3    0    0 -0.82719222029E+02 -0.38975457847E+02  0.34560179704E+03  0.35749427705E+03  0.00000000000E+00 0.  1.
         11    1    3    3    0    0 -0.19077533829E+02 -0.71671538222E+02  0.13200253967E+03  0.15141146643E+03  0.00000000000E+00 0. -1.
        -11    1    4    4    0    0  0.26721694635E+02  0.24598218589E+02  0.16838470367E+03  0.17225716169E+03  0.00000000000E+00 0.  1.
         11    1    4    4    0    0 -0.15935667990E+02 -0.27284407394E+02  0.20278430911E+02  0.37544628928E+02  0.00000000000E+00 0. -1.
         -1    1    1    2    0  502  0.91010729213E+02  0.11333318487E+03  0.17406901713E+03  0.22677607093E+03  0.00000000000E+00 0.  1.
<scales pt_clust_5="13000.00000" pt_clust_6="13000.00000" pt_clust_7="13000.00000" pt_clust_8="13000.00000" pt_clust_9="13000.00000"></scales>
<clustering>
<clus scale="   90.961">  5  6 -1 -1</clus>
<clus scale="   91.101">  7  8 -1 -1</clus>
<clus scale="  145.353">  7  9 -1 -1</clus>
<clus scale="  175.725">  1  5  2 -1</clus>
<clus scale="  242.952">  2  5  1 -1</clus>
</clustering>
</event>
<event>
 9    1  0.3312826E-006  0.2680561E+03  0.7546771E-02  0.1142626E+00
         -3   -1    0    0    0  501 -0.00000000000E+00  0.00000000000E+00  0.15627616376E+03  0.15627616376E+03  0.00000000000E+00 0.  1.
         21   -1    0    0  501  502  0.00000000000E+00 -0.00000000000E+00 -0.42522314851E+03  0.42522314851E+03  0.00000000000E+00 0.  1.
         23    2    1    2    0    0 -0.28341962857E+02 -0.30263161242E+02  0.90089454384E+02  0.13343540893E+03  0.89273583876E+02 0.  0.
         23    2    1    2    0    0 -0.76682032781E+02 -0.21351245004E+02 -0.78725754445E+02  0.14430714779E+03  0.91053822967E+02 0.  0.
        -11    1    3    3    0    0 -0.53383929566E+02 -0.27533983690E+02  0.90050232853E+02  0.10824513213E+03  0.00000000000E+00 0.  1.
         11    1    3    3    0    0  0.25041966708E+02 -0.27291775518E+01  0.39221530775E-01  0.25190276796E+02  0.00000000000E+00 0. -1.
        -13    1    4    4    0    0 -0.81069906493E+02  0.55987689584E+01 -0.83581129756E+02  0.11657393021E+03  0.00000000000E+00 0.  1.
         13    1    4    4    0    0  0.43878737117E+01 -0.26950013963E+02  0.48553753116E+01  0.27733217587E+02  0.00000000000E+00 0. -1.
         -3    1    1    2    0  502  0.10502399564E+03  0.51614406246E+02 -0.28031068469E+03  0.30375675555E+03  0.00000000000E+00 0.  1.
<scales pt_clust_5="13000.00000" pt_clust_6="13000.00000" pt_clust_7="13000.00000" pt_clust_8="13000.00000" pt_clust_9="13000.00000"></scales>
<clustering>
<clus scale="   89.274">  5  6 -1 -1</clus>
<clus scale="   91.054">  7  8 -1 -1</clus>
<clus scale="   98.432">  1  5  2 -1</clus>
<clus scale="  106.877">  7  9 -1 -1</clus>
<clus scale="  268.056">  2  5  1 -1</clus>
</clustering>
</event>
<event>
 9    1  0.3312826E-006  0.1933419E+03  0.7546771E-02  0.1188405E+00
         -1   -1    0    0    0  501 -0.00000000000E+00  0.00000000000E+00  0.99400825822E+02  0.99400825822E+02  0.00000000000E+00 0.  1.
         21   -1    0    0  501  502  0.00000000000E+00 -0.00000000000E+00 -0.20594786952E+03  0.20594786952E+03  0.00000000000E+00 0. -1.
         23    2    1    2    0    0  0.20923272182E+02  0.42572761550E+01 -0.49191977199E+02  0.10367889666E+03  0.88733056257E+02 0.  0.
         23    2    1    2    0    0 -0.47083345126E+02  0.27536664299E+01  0.34242537187E+02  0.10615213679E+03  0.88720351246E+02 0.  0.
        -13    1    4    4    0    0 -0.70098403979E+02 -0.12100454691E+02  0.15062192964E+02  0.72712288514E+02  0.00000000000E+00 0. -1.
         13    1    4    4    0    0  0.23015058853E+02  0.14854121121E+02  0.19180344223E+02  0.33439848277E+02  0.00000000000E+00 0.  1.
        -13    1    3    3    0    0 -0.96764963624E+01  0.40735700599E+02 -0.33256040318E+02  0.53469581097E+02  0.00000000000E+00 0. -1.
         13    1    3    3    0    0  0.30599768545E+02 -0.36478424444E+02 -0.15935936881E+02  0.50209315561E+02  0.00000000000E+00 0.  1.
         -1    1    1    2    0  502  0.26160072944E+02 -0.70109425849E+01 -0.91597603690E+02  0.95517661896E+02  0.00000000000E+00 0.  1.
<scales pt_clust_5="13000.00000" pt_clust_6="13000.00000" pt_clust_7="13000.00000" pt_clust_8="13000.00000" pt_clust_9="13000.00000"></scales>
<clustering>
<clus scale="   88.720">  5  6 -1 -1</clus>
<clus scale="   27.083">  5  9 -1 -1</clus>
<clus scale="   88.733">  7  8 -1 -1</clus>
<clus scale="   91.266">  1  7  2 -1</clus>
<clus scale="  193.342">  2  5  1 -1</clus>
</clustering>
</event>
<event>
 9    1  0.3312826E-006  0.3305195E+03  0.7546771E-02  0.1110353E+00
         21   -1    0    0  501  502  0.00000000000E+00  0.00000000000E+00  0.10001394602E+03  0.10001394602E+03  0.00000000000E+00 0. -1.
          1   -1    0    0  502    0 -0.00000000000E+00 -0.00000000000E+00 -0.54808345090E+03  0.54808345090E+03  0.00000000000E+00 0. -1.
         23    2    1    2    0    0 -0.17231483000E+02 -0.70983591538E+02 -0.40688677586E+02  0.12350015600E+03  0.90890735354E+02 0.  0.
         23    2    1    2    0    0  0.93650021907E+02  0.89887468008E+02 -0.41615462236E+03  0.44538784052E+03  0.91299371644E+02 0.  0.
        -11    1    3    3    0    0  0.31665771617E+02 -0.25674765476E+02  0.72296260953E+01  0.41402683100E+02  0.00000000000E+00 0.  1.
         11    1    3    3    0    0 -0.48897254618E+02 -0.45308826062E+02 -0.47918303681E+02  0.82097472896E+02  0.00000000000E+00 0. -1.
        -11    1    4    4    0    0  0.50877859504E+02  0.69442347110E+02 -0.36753084187E+03  0.37747809987E+03  0.00000000000E+00 0. -1.
         11    1    4    4    0    0  0.42772162403E+02  0.20445120898E+02 -0.48623780490E+02  0.67909740644E+02  0.00000000000E+00 0.  1.
          1    1    1    2  501    0 -0.76418538906E+02 -0.18903876469E+02  0.87737950619E+01  0.79209400414E+02  0.00000000000E+00 0. -1.
<scales pt_clust_5="13000.00000" pt_clust_6="13000.00000" pt_clust_7="13000.00000" pt_clust_8="13000.00000" pt_clust_9="13000.00000"></scales>
<clustering>
<clus scale="   90.891">  5  6 -1 -1</clus>
<clus scale="   91.299">  7  8 -1 -1</clus>
<clus scale="   78.722">  7  9 -1 -1</clus>
<clus scale="  116.605">  2  5  1 -1</clus>
<clus scale="  330.519">  1  5  2 -1</clus>
</clustering>
</event>
<event>
 9    1  0.3312826E-006  0.2833843E+03  0.7546771E-02  0.1120379E+00
         21   -1    0    0  501  502  0.00000000000E+00  0.00000000000E+00  0.46340131272E+03  0.46340131272E+03  0.00000000000E+00 0.  1.
         -3   -1    0    0    0  501 -0.00000000000E+00 -0.00000000000E+00 -0.98674728155E+02  0.98674728155E+02  0.00000000000E+00 0.  1.
         23    2    1    2    0    0 -0.44146381338E+02 -0.98331253389E+02  0.10852060399E+03  0.18004444075E+03  0.94980738976E+02 0.  0.
         23    2    1    2    0    0 -0.78448161707E+01  0.48090284253E+02 -0.12862119085E+02  0.10341917784E+03  0.90309886818E+02 0.  0.
        -11    1    4    4    0    0  0.36385842783E+02  0.23961245129E+02 -0.26790955940E+02  0.51145147798E+02  0.00000000000E+00 0.  1.
         11    1    4    4    0    0 -0.44230658954E+02  0.24129039124E+02  0.13928836854E+02  0.52274030040E+02  0.00000000000E+00 0. -1.
        -13    1    3    3    0    0 -0.53357689785E+02 -0.68523874790E+02  0.24228756576E+02  0.90164278518E+02  0.00000000000E+00 0.  1.
         13    1    3    3    0    0  0.92113084474E+01 -0.29807378599E+02  0.84291847417E+02  0.89880162234E+02  0.00000000000E+00 0. -1.
         -3    1    1    2    0  502  0.51991197508E+02  0.50240969136E+02  0.26906809966E+03  0.27861242229E+03  0.00000000000E+00 0.  1.
<scales pt_clust_5="13000.00000" pt_clust_6="13000.00000" pt_clust_7="13000.00000" pt_clust_8="13000.00000" pt_clust_9="13000.00000"></scales>
<clustering>
<clus scale="   90.310">  5  6 -1 -1</clus>
<clus scale="   72.300">  5  9 -1 -1</clus>
<clus scale="   94.981">  7  8 -1 -1</clus>
<clus scale="  143.664">  2  7  1 -1</clus>
<clus scale="  283.384">  1  5  2 -1</clus>
</clustering>
</event>
<event>
 9    1  0.3312826E-006  0.2378700E+03  0.7546771E-02  0.1158964E+00
         21   -1    0    0  501  502  0.00000000000E+00  0.00000000000E+00  0.39300397416E+03  0.39300397416E+03  0.00000000000E+00 0.  1.
          2   -1    0    0  502    0 -0.00000000000E+00 -0.00000000000E+00 -0.75401088505E+02  0.75401088505E+02  0.00000000000E+00 0.  1.
         23    2    1    2    0    0  0.11945612349E+02  0.16640005419E+02  0.14806819849E+03  0.17630212656E+03  0.93480805462E+02 0.  0.
         23    2    1    2    0    0  0.52326715363E+02  0.27968117780E+02  0.50212648738E+01  0.10993410541E+03  0.92412086212E+02 0.  0.
        -11    1    3    3    0    0  0.27524851942E+02  0.42586349743E+02  0.41514171725E+02  0.65533511373E+02  0.00000000000E+00 0.  1.
         11    1    3    3    0    0 -0.15579239593E+02 -0.25946344324E+02  0.10655402676E+03  0.11076861518E+03  0.00000000000E+00 0. -1.
        -11    1    4    4    0    0  0.62069419907E+02  0.52140812653E+02  0.14210044125E+02  0.82299468928E+02  0.00000000000E+00 0.  1.
         11    1    4    4    0    0 -0.97427045443E+01 -0.24172694873E+02 -0.91887792508E+01  0.27634636480E+02  0.00000000000E+00 0. -1.
          2    1    1    2  501    0 -0.64272327712E+02 -0.44608123199E+02  0.16451342229E+03  0.18216883070E+03  0.00000000000E+00 0.  1.
<scales pt_clust_5="13000.00000" pt_clust_6="13000.00000" pt_clust_7="13000.00000" pt_clust_8="13000.00000" pt_clust_9="13000.00000"></scales>
<clustering>
<clus scale="   92.412">  7  8 -1 -1</clus>
<clus scale="   78.236">  7  9 -1 -1</clus>
<clus scale="   93.481">  5  6 -1 -1</clus>
<clus scale="   95.699">  2  5  1 -1</clus>
<clus scale="  237.870">  1  5  2 -1</clus>
</clustering>
</event>
<event>
 9    1  0.3312826E-006  0.3755440E+03  0.7546771E-02  0.1083250E+00
          1   -1    0    0  502    0 -0.00000000000E+00  0.00000000000E+00  0.92513205811E+03  0.92513205811E+03  0.00000000000E+00 0. -1.
         21   -1    0    0  501  502  0.00000000000E+00 -0.00000000000E+00 -0.15868136717E+03  0.15868136717E+03  0.00000000000E+00 0. -1.
         23    2    1    2    0    0  0.12233383015E+03 -0.32651911832E+02  0.67943998317E+03  0.69832130560E+03  0.99911169451E+02 0.  0.
         23    2    1    2    0    0  0.61618676562E+02  0.53005910070E+01  0.15331858838E+03  0.18805009146E+03  0.89617463650E+02 0.  0.
        -13    1    3    3    0    0  0.66699078961E+02  0.33674146952E+02  0.31364968700E+03  0.32242649001E+03  0.00000000000E+00 0.  1.
         13    1    3    3    0    0  0.55634751190E+02 -0.66326058783E+02  0.36579029617E+03  0.37589481559E+03  0.00000000000E+00 0. -1.
        -13    1    4    4    0    0 -0.92799998297E+01 -0.19902806265E+02  0.80118294869E+02  0.83073348716E+02  0.00000000000E+00 0.  1.
         13    1    4    4    0    0  0.70898676392E+02  0.25203397272E+02  0.73200293506E+02  0.10497674275E+03  0.00000000000E+00 0. -1.
          1    1    1    2  501    0 -0.18395250671E+03  0.27351320825E+02 -0.66307880598E+02  0.19744202822E+03  0.00000000000E+00 0. -1.
<scales pt_clust_5="13000.00000" pt_clust_6="13000.00000" pt_clust_7="13000.00000" pt_clust_8="13000.00000" pt_clust_9="13000.00000"></scales>
<clustering>
<clus scale="   89.617">  7  8 -1 -1</clus>
<clus scale="   99.911">  5  6 -1 -1</clus>
<clus scale="  161.288">  1  5  2 -1</clus>
<clus scale="  151.112">  7  9 -1 -1</clus>
<clus scale="  375.544">  2  5  1 -1</clus>
</clustering>
</event>
<event>
 9    1  0.3312826E-006  0.3706124E+03  0.7546771E-02  0.1102147E+00
         21   -1    0    0  501  502  0.00000000000E+00  0.00000000000E+00  0.33882630022E+03  0.33882630022E+03  0.00000000000E+00 0. -1.
          4   -1    0    0  502    0 -0.00000000000E+00 -0.00000000000E+00 -0.19490872801E+03  0.19490872801E+03  0.00000000000E+00 0. -1.
         23    2    1    2    0    0  0.26289360608E+01 -0.46456496892E+02 -0.51957695690E+02  0.11454456652E+03  0.90861092717E+02 0.  0.
         23    2    1    2    0    0  0.27794995536E+01 -0.14625647805E+01 -0.89332968328E+02  0.12993412962E+03  0.94300764027E+02 0.  0.
        -11    1    3    3    0    0 -0.43326732727E+02 -0.14701700809E+02 -0.17956562726E+02  0.49150624822E+02  0.00000000000E+00 0. -1.
         11    1    3    3    0    0  0.45955668788E+02 -0.31754796083E+02 -0.34001132964E+02  0.65393941699E+02  0.00000000000E+00 0.  1.
        -11    1    4    4    0    0 -0.19664471152E+02  0.23122233461E+02 -0.91668839269E+02  0.96563477562E+02  0.00000000000E+00 0. -1.
         11    1    4    4    0    0  0.22443970706E+02 -0.24584798241E+02  0.23358709414E+01  0.33370652057E+02  0.00000000000E+00 0.  1.
          4    1    1    2  501    0 -0.54084356144E+01  0.47919061672E+02  0.28520823622E+03  0.28925633209E+03  0.00000000000E+00 0. -1.
<scales pt_clust_5="13000.00000" pt_clust_6="13000.00000" pt_clust_7="13000.00000" pt_clust_8="13000.00000" pt_clust_9="13000.00000"></scales>
<clustering>
<clus scale="   90.861">  5  6 -1 -1</clus>
<clus scale="   94.301">  7  8 -1 -1</clus>
<clus scale="   48.223">  7  9 -1 -1</clus>
<clus scale="  102.083">  2  5  1 -1</clus>
<clus scale="  370.612">  1  5  2 -1</clus>
</clustering>
</event>
<event>
 9    1  0.3312826E-006  0.2782079E+03  0.7546771E-02  0.1109761E+00
          1   -1    0    0  502    0 -0.00000000000E+00  0.00000000000E+00  0.65377606193E+03  0.65377606193E+03  0.00000000000E+00 0. -1.
         21   -1    0    0  501  502  0.00000000000E+00 -0.00000000000E+00 -0.18602402722E+03  0.18602402722E+03  0.00000000000E+00 0. -1.
         23    2    1    2    0    0  0.48781308534E+02  0.17047099120E+03  0.52011873913E+03  0.55670660322E+03  0.89211907170E+02 0.  0.
         23    2    1    2    0    0 -0.15754996309E+02  0.14127900240E+02  0.95968249444E+01  0.85591670766E+02  0.82377288020E+02 0.  0.
        -11    1    3    3    0    0  0.12091414424E+02  0.68684325411E+02  0.93879013700E+02  0.11694874122E+03  0.00000000000E+00 0.  1.
         11    1    3    3    0    0  0.36689894110E+02  0.10178666578E+03  0.42623972543E+03  0.43975786200E+03  0.00000000000E+00 0. -1.
        -13    1    4    4    0    0 -0.49111886288E+02  0.13393269035E+02  0.11442986933E+02  0.52175655052E+02  0.00000000000E+00 0. -1.
         13    1    4    4    0    0  0.33356889979E+02  0.73463120554E+00 -0.18461619886E+01  0.33416015713E+02  0.00000000000E+00 0.  1.
          1    1    1    2  501    0 -0.33026312226E+02 -0.18459889144E+03 -0.61963529361E+02  0.19750181515E+03  0.00000000000E+00 0. -1.
<scales pt_clust_5="13000.00000" pt_clust_6="13000.00000" pt_clust_7="13000.00000" pt_clust_8="13000.00000" pt_clust_9="13000.00000"></scales>
<clustering>
<clus scale="   82.377">  7  8 -1 -1</clus>
<clus scale="   89.212">  5  6 -1 -1</clus>
<clus scale="  187.530">  7  9 -1 -1</clus>
<clus scale="  198.491">  1  5  2 -1</clus>
<clus scale="  278.208">  2  5  1 -1</clus>
</clustering>
</event>
<event>
 9    1  0.3312826E-006  0.4678926E+03  0.7546771E-02  0.1056770E+00
         21   -1    0    0  501  502  0.00000000000E+00  0.00000000000E+00  0.12272620942E+03  0.12272620942E+03  0.00000000000E+00 0. -1.
          1   -1    0    0  502    0 -0.00000000000E+00 -0.00000000000E+00 -0.85382336616E+03  0.85382336616E+03  0.00000000000E+00 0. -1.
         23    2    1    2    0    0 -0.21537158907E+02  0.14492062677E+03 -0.13699715345E+03  0.22032319457E+03  0.91149617318E+02 0.  0.
         23    2    1    2    0    0  0.15983334479E+03 -0.20968337490E+03 -0.51281759001E+03  0.58323251035E+03  0.87546928491E+02 0.  0.
        -11    1    4    4    0    0  0.52437520940E+02 -0.43796157476E+02 -0.21681925575E+03  0.22732880741E+03  0.00000000000E+00 0.  1.
         11    1    4    4    0    0  0.10739582385E+03 -0.16588721742E+03 -0.29599833426E+03  0.35590370294E+03  0.00000000000E+00 0. -1.
        -13    1    3    3    0    0  0.31322324275E+02  0.70124228788E+02 -0.38812958289E+02  0.86051967974E+02  0.00000000000E+00 0. -1.
         13    1    3    3    0    0 -0.52859483182E+02  0.74796397981E+02 -0.98184195162E+02  0.13427122660E+03  0.00000000000E+00 0.  1.
          1    1    1    2  501    0 -0.13829618588E+03  0.64762748126E+02 -0.81282413282E+02  0.17299387065E+03  0.00000000000E+00 0. -1.
<scales pt_clust_5="13000.00000" pt_clust_6="13000.00000" pt_clust_7="13000.00000" pt_clust_8="13000.00000" pt_clust_9="13000.00000"></scales>
<clustering>
<clus scale="   87.547">  5  6 -1 -1</clus>
<clus scale="   91.150">  7  8 -1 -1</clus>
<clus scale="  152.709">  5  9 -1 -1</clus>
<clus scale="  172.552">  2  7  1 -1</clus>
<clus scale="  467.893">  1  5  2 -1</clus>
</clustering>
</event>
<event>
 9    1  0.3312826E-006  0.2630691E+03  0.7546771E-02  0.1152390E+00
          2   -1    0    0  502    0 -0.00000000000E+00  0.00000000000E+00  0.47878978178E+03  0.47878978178E+03  0.00000000000E+00 0. -1.
         21   -1    0    0  501  502  0.00000000000E+00 -0.00000000000E+00 -0.68480714180E+02  0.68480714180E+02  0.00000000000E+00 0.  1.
         23    2    1    2    0    0 -0.69097703137E+01  0.36403912667E+02  0.36697550098E+02  0.90334025026E+02  0.73759989906E+02 0.  0.
         23    2    1    2    0    0  0.33809471956E+02 -0.12218708699E+03  0.15127557899E+03  0.21711233432E+03  0.90447223826E+02 0.  0.
        -13    1    3    3    0    0 -0.37351216069E+02  0.33791705237E+02  0.31316881152E+02  0.59310536414E+02  0.00000000000E+00 0. -1.
         13    1    3    3    0    0  0.30441445755E+02  0.26122074295E+01  0.53806689463E+01  0.31023488612E+02  0.00000000000E+00 0.  1.
        -13    1    4    4    0    0  0.50285098546E+02 -0.10260515101E+03  0.15357282869E+03  0.19141844703E+03  0.00000000000E+00 0.  1.
         13    1    4    4    0    0 -0.16475626590E+02 -0.19581935978E+02 -0.22972497079E+01  0.25693887296E+02  0.00000000000E+00 0. -1.
          2    1    1    2  501    0 -0.26899701642E+02  0.85783174320E+02  0.22233593851E+03  0.23982413661E+03  0.00000000000E+00 0. -1.
<scales pt_clust_5="13000.00000" pt_clust_6="13000.00000" pt_clust_7="13000.00000" pt_clust_8="13000.00000" pt_clust_9="13000.00000"></scales>
<clustering>
<clus scale="   73.760">  5  6 -1 -1</clus>
<clus scale="   82.544">  1  5  2 -1</clus>
<clus scale="   90.447">  7  8 -1 -1</clus>
<clus scale="  110.407">  7  9 -1 -1</clus>
<clus scale="  263.069">  2  5  1 -1</clus>
</clustering>
</event>
<event>
 9    1  0.3312826E-006  0.2285180E+03  0.7546771E-02  0.1164007E+00
         21   -1    0    0  501  502  0.00000000000E+00  0.00000000000E+00  0.54740531089E+02  0.54740531089E+02  0.00000000000E+00 0. -1.
         -3   -1    0    0    0  501 -0.00000000000E+00 -0.00000000000E+00 -0.53170248705E+03  0.53170248705E+03  0.00000000000E+00 0.  1.
         23    2    1    2    0    0  0.29218281117E+02 -0.18016039853E+01 -0.23384601816E+03  0.25278778137E+03  0.91437128534E+02 0.  0.
         23    2    1    2    0    0 -0.85393521910E+02  0.64878592546E+02 -0.18382294901E+03  0.23045628966E+03  0.88419112786E+02 0.  0.
        -13    1    3    3    0    0  0.46816259769E+01 -0.39481686474E+02 -0.51958886347E+02  0.65425125595E+02  0.00000000000E+00 0.  1.
         13    1    3    3    0    0  0.24536655141E+02  0.37680082489E+02 -0.18188713181E+03  0.18736265578E+03  0.00000000000E+00 0. -1.
        -13    1    4    4    0    0  0.16407325101E+02  0.19241424562E+02 -0.51548428143E+02  0.57416662914E+02  0.00000000000E+00 0.  1.
         13    1    4    4    0    0 -0.10180084701E+03  0.45637167984E+02 -0.13227452086E+03  0.17303962674E+03  0.00000000000E+00 0. -1.
         -3    1    1    2    0  502  0.56175240792E+02 -0.63076988561E+02 -0.59292988792E+02  0.10319894711E+03  0.00000000000E+00 0.  1.
<scales pt_clust_5="13000.00000" pt_clust_6="13000.00000" pt_clust_7="13000.00000" pt_clust_8="13000.00000" pt_clust_9="13000.00000"></scales>
<clustering>
<clus scale="   88.419">  7  8 -1 -1</clus>
<clus scale="   84.465">  7  9 -1 -1</clus>
<clus scale="   91.437">  5  6 -1 -1</clus>
<clus scale="   96.009">  2  5  1 -1</clus>
<clus scale="  228.518">  1  5  2 -1</clus>
</clustering>
</event>
<event>
 9    1  0.3312826E-006  0.3650601E+03  0.7546771E-02  0.1091608E+00
          2   -1    0    0  502    0 -0.00000000000E+00  0.00000000000E+00  0.14574754117E+04  0.14574754117E+04  0.00000000000E+00 0. -1.
         21   -1    0    0  501  502  0.00000000000E+00 -0.00000000000E+00 -0.52363019058E+02  0.52363019058E+02  0.00000000000E+00 0. -1.
         23    2    1    2    0    0  0.18546107035E+01  0.10820479280E+03  0.71928369465E+03  0.73290222717E+03  0.89804924319E+02 0.  0.
         23    2    1    2    0    0 -0.14176776236E+03 -0.11927439320E+03  0.27868946135E+03  0.34628485496E+03  0.88999469596E+02 0.  0.
        -13    1    4    4    0    0 -0.33624727887E+02  0.89376520652E+01  0.28006648699E+02  0.44664038345E+02  0.00000000000E+00 0.  1.
         13    1    4    4    0    0 -0.10814303448E+03 -0.12821204527E+03  0.25068281265E+03  0.30162081662E+03  0.00000000000E+00 0. -1.
        -13    1    3    3    0    0  0.24485808056E+02 -0.50247177156E+01  0.14209993708E+03  0.14428165061E+03  0.00000000000E+00 0.  1.
         13    1    3    3    0    0 -0.22631197353E+02  0.11322951052E+03  0.57718375757E+03  0.58862057656E+03  0.00000000000E+00 0. -1.
          2    1    1    2  501    0  0.13991315166E+03  0.11069600397E+02  0.40713923659E+03  0.43065134858E+03  0.00000000000E+00 0. -1.
<scales pt_clust_5="13000.00000" pt_clust_6="13000.00000" pt_clust_7="13000.00000" pt_clust_8="13000.00000" pt_clust_9="13000.00000"></scales>
<clustering>
<clus scale="   88.999">  5  6 -1 -1</clus>
<clus scale="   89.805">  7  8 -1 -1</clus>
<clus scale="  140.350">  5  9 -1 -1</clus>
<clus scale="  140.629">  1  7  2 -1</clus>
<clus scale="  365.060">  2  5  1 -1</clus>
</clustering>
</event>
<event>
 9    1  0.3312826E-006  0.2421573E+03  0.7546771E-02  0.1156913E+00
         21   -1    0    0  501  502  0.00000000000E+00  0.00000000000E+00  0.52903921970E+02  0.52903921970E+02  0.00000000000E+00 0. -1.
          1   -1    0    0  502    0 -0.00000000000E+00 -0.00000000000E+00 -0.76437337600E+03  0.76437337600E+03  0.00000000000E+00 0. -1.
         23    2    1    2    0    0 -0.10110504413E+02 -0.15429788027E+02 -0.45382816204E+03  0.46369677709E+03  0.93350949451E+02 0.  0.
         23    2    1    2    0    0 -0.21070573405E+02 -0.56396179397E+01 -0.28926269929E+03  0.30442675315E+03  0.92341564203E+02 0.  0.
        -11    1    4    4    0    0  0.22194827972E+02 -0.35648610481E+02 -0.13907334136E+03  0.14527500850E+03  0.00000000000E+00 0.  1.
         11    1    4    4    0    0 -0.43265401377E+02  0.30008992541E+02 -0.15018935792E+03  0.15915174464E+03  0.00000000000E+00 0. -1.
        -11    1    3    3    0    0  0.24833957216E+02  0.28058351731E+02 -0.13888917620E+03  0.14385478719E+03  0.00000000000E+00 0.  1.
         11    1    3    3    0    0 -0.34944461629E+02 -0.43488139758E+02 -0.31493898584E+03  0.31984198990E+03  0.00000000000E+00 0. -1.
          1    1    1    2  501    0  0.31181077818E+02  0.21069405966E+02  0.31621407305E+02  0.49153767725E+02  0.00000000000E+00 0. -1.
<scales pt_clust_5="13000.00000" pt_clust_6="13000.00000" pt_clust_7="13000.00000" pt_clust_8="13000.00000" pt_clust_9="13000.00000"></scales>
<clustering>
<clus scale="   92.342">  5  6 -1 -1</clus>
<clus scale="   37.632">  5  9 -1 -1</clus>
<clus scale="   93.351">  7  8 -1 -1</clus>
<clus scale="   95.156">  2  7  1 -1</clus>
<clus scale="  242.157">  1  5  2 -1</clus>
</clustering>
</event>
<event>
 9    1  0.3312826E-006  0.1532453E+03  0.7546771E-02  0.1204144E+00
         -4   -1    0    0    0  501 -0.00000000000E+00  0.00000000000E+00  0.51682029360E+03  0.51682029360E+03  0.00000000000E+00 0.  1.
         21   -1    0    0  501  502  0.00000000000E+00 -0.00000000000E+00 -0.41950334309E+02  0.41950334309E+02  0.00000000000E+00 0. -1.
         23    2    1    2    0    0 -0.67018663151E+02  0.66422197292E+02  0.29580501828E+03  0.32308357320E+03  0.89325119252E+02 0.  0.
         23    2    1    2    0    0  0.24799731771E+02 -0.30015360074E+02  0.13681997756E+03  0.16574041147E+03  0.85054272079E+02 0.  0.
        -11    1    3    3    0    0 -0.82017293169E+02  0.49421408659E+02  0.27867691078E+03  0.29466953120E+03  0.00000000000E+00 0. -1.
         11    1    3    3    0    0  0.14998630018E+02  0.17000788633E+02  0.17128107496E+02  0.28414042003E+02  0.00000000000E+00 0.  1.
        -13    1    4    4    0    0  0.20386967533E+02 -0.54078192415E+02  0.12671351650E+03  0.13927093956E+03  0.00000000000E+00 0.  1.
         13    1    4    4    0    0  0.44127642379E+01  0.24062832341E+02  0.10106461059E+02  0.26469471918E+02  0.00000000000E+00 0. -1.
         -4    1    1    2    0  502  0.42218931380E+02 -0.36406837218E+02  0.42244963453E+02  0.69946643238E+02  0.00000000000E+00 0.  1.
<scales pt_clust_5="13000.00000" pt_clust_6="13000.00000" pt_clust_7="13000.00000" pt_clust_8="13000.00000" pt_clust_9="13000.00000"></scales>
<clustering>
<clus scale="   85.054">  7  8 -1 -1</clus>
<clus scale="   55.749">  7  9 -1 -1</clus>
<clus scale="   89.325">  5  6 -1 -1</clus>
<clus scale="  129.932">  1  5  2 -1</clus>
<clus scale="  153.245">  2  5  1 -1</clus>
</clustering>
</event>
<event>
 9    1  0.3312826E-006  0.1747342E+03  0.7546771E-02  0.1199585E+00
         21   -1    0    0  501  502  0.00000000000E+00  0.00000000000E+00  0.57720458591E+02  0.57720458591E+02  0.00000000000E+00 0. -1.
         -3   -1    0    0    0  501 -0.00000000000E+00 -0.00000000000E+00 -0.32420514677E+03  0.32420514677E+03  0.00000000000E+00 0.  1.
         23    2    1    2    0    0 -0.29159111141E+02  0.50411694573E+01 -0.72817634169E+02  0.12108277843E+03  0.92103008827E+02 0.  0.
         23    2    1    2    0    0 -0.17160020686E+02  0.40768029830E+01 -0.19060311402E+03  0.21353545834E+03  0.94640151416E+02 0.  0.
        -11    1    3    3    0    0 -0.51664698970E+02 -0.18888554585E+02 -0.68647888841E+02  0.87969035781E+02  0.00000000000E+00 0.  1.
         11    1    3    3    0    0  0.22505587829E+02  0.23929724043E+02 -0.41697453280E+01  0.33113742651E+02  0.00000000000E+00 0. -1.
        -13    1    4    4    0    0  0.32479790533E+02 -0.92928104496E+01 -0.12874500810E+03  0.13310360713E+03  0.00000000000E+00 0.  1.
         13    1    4    4    0    0 -0.49639811218E+02  0.13369613433E+02 -0.61858105921E+02  0.80431851211E+02  0.00000000000E+00 0. -1.
         -3    1    1    2    0  502  0.46319131827E+02 -0.91179724403E+01 -0.30639399865E+01  0.47307368590E+02  0.00000000000E+00 0.  1.
<scales pt_clust_5="13000.00000" pt_clust_6="13000.00000" pt_clust_7="13000.00000" pt_clust_8="13000.00000" pt_clust_9="13000.00000"></scales>
<clustering>
<clus scale="   92.103">  5  6 -1 -1</clus>
<clus scale="   94.640">  7  8 -1 -1</clus>
<clus scale="   47.208">  7  9 -1 -1</clus>
<clus scale="   96.740">  2  5  1 -1</clus>
<clus scale="  174.734">  1  5  2 -1</clus>
</clustering>
</event>
<event>
 9    1  0.3312826E-006  0.1327980E+03  0.7546771E-02  0.1235393E+00
          3   -1    0    0  502    0 -0.00000000000E+00  0.00000000000E+00  0.14599401769E+03  0.14599401769E+03  0.00000000000E+00 0. -1.
         21   -1    0    0  501  502  0.00000000000E+00 -0.00000000000E+00 -0.10654993440E+03  0.10654993440E+03  0.00000000000E+00 0. -1.
         23    2    1    2    0    0 -0.41354539437E+02 -0.22363338710E+02  0.57616372556E+02  0.11850837667E+03  0.92272813458E+02 0.  0.
         23    2    1    2    0    0  0.32922627218E+02 -0.94998916576E+01 -0.24719853803E+00  0.96516627259E+02  0.90228880664E+02 0.  0.
        -13    1    3    3    0    0  0.29706235548E+02 -0.63195879768E+01  0.12660075925E+02  0.32904029314E+02  0.00000000000E+00 0.  1.
         13    1    3    3    0    0 -0.71060774985E+02 -0.16043750734E+02  0.44956296630E+02  0.85604347353E+02  0.00000000000E+00 0. -1.
        -13    1    4    4    0    0  0.25401064931E+02 -0.49197836172E+02 -0.60502132410E+01  0.55697812020E+02  0.00000000000E+00 0. -1.
         13    1    4    4    0    0  0.75215622869E+01  0.39697944514E+02  0.58030147030E+01  0.40818815239E+02  0.00000000000E+00 0.  1.
          3    1    1    2  501    0  0.84319122186E+01  0.31863230368E+02 -0.17925090730E+02  0.37518948158E+02  0.00000000000E+00 0. -1.
<scales pt_clust_5="13000.00000" pt_clust_6="13000.00000" pt_clust_7="13000.00000" pt_clust_8="13000.00000" pt_clust_9="13000.00000"></scales>
<clustering>
<clus scale="   90.229">  7  8 -1 -1</clus>
<clus scale="   32.960">  7  9 -1 -1</clus>
<clus scale="   92.273">  5  6 -1 -1</clus>
<clus scale="  103.560">  1  5  2 -1</clus>
<clus scale="  132.798">  2  5  1 -1</clus>
</clustering>
</event>
<event>
 9    1  0.3312826E-006  0.3930594E+03  0.7546771E-02  0.1067336E+00
         21   -1    0    0  501  502  0.00000000000E+00  0.00000000000E+00  0.70557628477E+03  0.70557628477E+03  0.00000000000E+00 0.  1.
         -1   -1    0    0    0  501 -0.00000000000E+00 -0.00000000000E+00 -0.26393813346E+03  0.26393813346E+03  0.00000000000E+00 0.  1.
         23    2    1    2    0    0 -0.19325618630E+03 -0.40721503545E+02 -0.14683124602E+03  0.26184790286E+03  0.89435535612E+02 0.  0.
         23    2    1    2    0    0  0.57776831278E+02 -0.73104646769E+02  0.50200542172E+02  0.14105870695E+03  0.93247052291E+02 0.  0.
        -11    1    4    4    0    0  0.15448728065E+02 -0.84368837066E+02  0.20653091333E+02  0.88223092488E+02  0.00000000000E+00 0. -1.
         11    1    4    4    0    0  0.42328103214E+02  0.11264190297E+02  0.29547450839E+02  0.52835614464E+02  0.00000000000E+00 0.  1.
        -13    1    3    3    0    0 -0.86135903027E+02  0.26542409118E+02 -0.55775733083E+02  0.10599446058E+03  0.00000000000E+00 0.  1.
         13    1    3    3    0    0 -0.10712028327E+03 -0.67263912662E+02 -0.91055512936E+02  0.15585344228E+03  0.00000000000E+00 0. -1.
         -1    1    1    2    0  502  0.13547935502E+03  0.11382615031E+03  0.53826885516E+03  0.56660780842E+03  0.00000000000E+00 0.  1.
<scales pt_clust_5="13000.00000" pt_clust_6="13000.00000" pt_clust_7="13000.00000" pt_clust_8="13000.00000" pt_clust_9="13000.00000"></scales>
<clustering>
<clus scale="   89.436">  7  8 -1 -1</clus>
<clus scale="   93.247">  5  6 -1 -1</clus>
<clus scale="  176.949">  5  9 -1 -1</clus>
<clus scale="  216.806">  2  7  1 -1</clus>
<clus scale="  393.059">  1  5  2 -1</clus>
</clustering>
</event>
<event>
 9    1  0.3312826E-006  0.2228218E+03  0.7546771E-02  0.1158568E+00
          1   -1    0    0  502    0 -0.00000000000E+00  0.00000000000E+00  0.43333263430E+03  0.43333263430E+03  0.00000000000E+00 0. -1.
         21   -1    0    0  501  502  0.00000000000E+00 -0.00000000000E+00 -0.18713526430E+03  0.18713526430E+03  0.00000000000E+00 0. -1.
         23    2    1    2    0    0  0.13642688373E+02 -0.78170240298E+02  0.35396080890E+03  0.37295522582E+03  0.86663930332E+02 0.  0.
         23    2    1    2    0    0  0.40515248034E+02 -0.12006158241E+02 -0.11800149103E+02  0.10512651504E+03  0.95533802845E+02 0.  0.
        -13    1    3    3    0    0  0.18636833227E+02  0.13478911754E+02  0.43439787015E+02  0.49153104792E+02  0.00000000000E+00 0.  1.
         13    1    3    3    0    0 -0.49941448538E+01 -0.91649152051E+02  0.31052102188E+03  0.32380212103E+03  0.00000000000E+00 0. -1.
        -13    1    4    4    0    0  0.49174983154E+02 -0.43014492410E+02  0.10211299933E+02  0.66126365179E+02  0.00000000000E+00 0. -1.
         13    1    4    4    0    0 -0.86597351204E+01  0.31008334169E+02 -0.22011449036E+02  0.39000149858E+02  0.00000000000E+00 0.  1.
          1    1    1    2  501    0 -0.54157936407E+02  0.90176398539E+02 -0.95963289793E+02  0.14238615774E+03  0.00000000000E+00 0. -1.
<scales pt_clust_5="13000.00000" pt_clust_6="13000.00000" pt_clust_7="13000.00000" pt_clust_8="13000.00000" pt_clust_9="13000.00000"></scales>
<clustering>
<clus scale="   86.664">  5  6 -1 -1</clus>
<clus scale="   95.534">  7  8 -1 -1</clus>
<clus scale="  105.190">  7  9 -1 -1</clus>
<clus scale="  117.505">  1  5  2 -1</clus>
<clus scale="  222.822">  2  5  1 -1</clus>
</clustering>
</event>
<event>
 9    1  0.3312826E-006  0.2184832E+03  0.7546771E-02  0.1148200E+00
         21   -1    0    0  501  502  0.00000000000E+00  0.00000000000E+00  0.78088258132E+02  0.78088258132E+02  0.00000000000E+00 0.  1.
          2   -1    0    0  502    0 -0.00000000000E+00 -0.00000000000E+00 -0.50462865324E+03  0.50462865324E+03  0.00000000000E+00 0. -1.
         23    2    1    2    0    0 -0.10279847762E+03 -0.53712024694E+02 -0.93965569222E+02  0.18479616523E+03  0.10893844999E+03 0.  0.
         23    2    1    2    0    0  0.67187079495E+02 -0.27869178049E+02 -0.11043839822E+03  0.15861287579E+03  0.87582017718E+02 0.  0.
        -11    1    4    4    0    0 -0.21208973947E+02 -0.32746537718E+01 -0.27890167928E+02  0.35190984645E+02  0.00000000000E+00 0.  1.
         11    1    4    4    0    0  0.88396053442E+02 -0.24594524278E+02 -0.82548230293E+02  0.12342189114E+03  0.00000000000E+00 0. -1.
        -13    1    3    3    0    0 -0.10512225011E+03 -0.79980570505E+02 -0.71772292803E+02  0.15032910943E+03  0.00000000000E+00 0.  1.
         13    1    3    3    0    0  0.23237724859E+01  0.26268545811E+02 -0.22193276419E+02  0.34467055804E+02  0.00000000000E+00 0. -1.
          2    1    1    2  501    0  0.35611398129E+02  0.81581202744E+02 -0.22213642766E+03  0.23930787035E+03  0.00000000000E+00 0. -1.
<scales pt_clust_5="13000.00000" pt_clust_6="13000.00000" pt_clust_7="13000.00000" pt_clust_8="13000.00000" pt_clust_9="13000.00000"></scales>
<clustering>
<clus scale="   87.582">  5  6 -1 -1</clus>
<clus scale="   89.015">  5  9 -1 -1</clus>
<clus scale="  108.938">  7  8 -1 -1</clus>
<clus scale="  159.123">  2  7  1 -1</clus>
<clus scale="  218.483">  1  5  2 -1</clus>
</clustering>
</event>
<event>
 9    1  0.3312826E-006  0.1613789E+03  0.7546771E-02  0.1207394E+00
          2   -1    0    0  502    0 -0.00000000000E+00  0.00000000000E+00  0.55079324058E+03  0.55079324058E+03  0.00000000000E+00 0. -1.
         21   -1    0    0  501  502  0.00000000000E+00 -0.00000000000E+00 -0.38030700979E+02  0.38030700979E+02  0.00000000000E+00 0.  1.
         23    2    1    2    0    0  0.10153140914E+02 -0.46714030081E+02  0.32542042632E+03  0.34155846406E+03  0.92078464515E+02 0.  0.
         23    2    1    2    0    0 -0.47028950821E+02  0.62670729888E+02  0.15437300459E+03  0.19529044741E+03  0.90376942319E+02 0.  0.
        -13    1    4    4    0    0 -0.91664688437E+01  0.48232717494E+02  0.14583688780E+03  0.15387922872E+03  0.00000000000E+00 0. -1.
         13    1    4    4    0    0 -0.37862481977E+02  0.14438012394E+02  0.85361167864E+01  0.41411218687E+02  0.00000000000E+00 0.  1.
        -13    1    3    3    0    0  0.26548588975E+02 -0.68316114041E+02  0.19432961903E+03  0.20769188681E+03  0.00000000000E+00 0. -1.
         13    1    3    3    0    0 -0.16395448061E+02  0.21602083960E+02  0.13109080729E+03  0.13386657725E+03  0.00000000000E+00 0.  1.
          2    1    1    2  501    0  0.36875809906E+02 -0.15956699807E+02  0.32969108689E+02  0.51975030089E+02  0.00000000000E+00 0. -1.
<scales pt_clust_5="13000.00000" pt_clust_6="13000.00000" pt_clust_7="13000.00000" pt_clust_8="13000.00000" pt_clust_9="13000.00000"></scales>
<clustering>
<clus scale="   90.377">  5  6 -1 -1</clus>
<clus scale="   40.180">  5  9 -1 -1</clus>
<clus scale="   92.078">  7  8 -1 -1</clus>
<clus scale="  103.748">  1  7  2 -1</clus>
<clus scale="  161.379">  2  5  1 -1</clus>
</clustering>
</event>
<event>
 9    1  0.3312826E-006  0.2521052E+03  0.7546771E-02  0.1144790E+00
         21   -1    0    0  501  502  0.00000000000E+00  0.00000000000E+00  0.22481561488E+02  0.22481561488E+02  0.00000000000E+00 0.  1.
          2   -1    0    0  502    0 -0.00000000000E+00 -0.00000000000E+00 -0.15200750833E+04  0.15200750833E+04  0.00000000000E+00 0. -1.
         23    2    1    2    0    0  0.53612069706E+01 -0.64705151326E+02 -0.58994329178E+03  0.60054497620E+03  0.91682505315E+02 0.  0.
         23    2    1    2    0    0 -0.70069762756E+02  0.11118797967E+03 -0.50116309993E+03  0.52778994358E+03  0.10062421846E+03 0.  0.
        -11    1    4    4    0    0 -0.27302382553E+02  0.15426789225E+02 -0.24694009351E+02  0.39914909704E+02  0.00000000000E+00 0.  1.
         11    1    4    4    0    0 -0.42767380203E+02  0.95761190445E+02 -0.47646909058E+03  0.48787503388E+03  0.00000000000E+00 0. -1.
        -13    1    3    3    0    0 -0.41282727096E+02 -0.14364585725E+02 -0.23241274405E+03  0.23648739602E+03  0.00000000000E+00 0.  1.
         13    1    3    3    0    0  0.46643934066E+02 -0.50340565601E+02 -0.35753054773E+03  0.36405758018E+03  0.00000000000E+00 0. -1.
          2    1    1    2  501    0  0.64708555786E+02 -0.46482828344E+02 -0.40648713011E+03  0.41422172500E+03  0.00000000000E+00 0. -1.
<scales pt_clust_5="13000.00000" pt_clust_6="13000.00000" pt_clust_7="13000.00000" pt_clust_8="13000.00000" pt_clust_9="13000.00000"></scales>
<clustering>
<clus scale="   91.683">  7  8 -1 -1</clus>
<clus scale="  100.624">  5  6 -1 -1</clus>
<clus scale="   79.673">  5  9 -1 -1</clus>
<clus scale="  112.344">  2  7  1 -1</clus>
<clus scale="  252.105">  1  5  2 -1</clus>
</clustering>
</event>
<event>
 9    1  0.3312826E-006  0.9475251E+03  0.7546771E-02  0.9775432E-01
         21   -1    0    0  501  502  0.00000000000E+00  0.00000000000E+00  0.19177234996E+03  0.19177234996E+03  0.00000000000E+00 0. -1.
          2   -1    0    0  502    0 -0.00000000000E+00 -0.00000000000E+00 -0.21850405157E+04  0.21850405157E+04  0.00000000000E+00 0. -1.
         23    2    1    2    0    0 -0.42800728161E+02  0.20961347669E+03 -0.90234302451E+03  0.93184865734E+03  0.91374363814E+02 0.  0.
         23    2    1    2    0    0 -0.36181034237E+03 -0.22499920013E+03 -0.89458857276E+03  0.99496988945E+03  0.90249667521E+02 0.  0.
        -13    1    3    3    0    0  0.24848658809E+02  0.10009625342E+03 -0.36395617167E+03  0.37828667792E+03  0.00000000000E+00 0.  1.
         13    1    3    3    0    0 -0.67649386970E+02  0.10951722326E+03 -0.53838685283E+03  0.55356197941E+03  0.00000000000E+00 0. -1.
        -13    1    4    4    0    0 -0.19732192006E+03 -0.12292285998E+03 -0.38369161169E+03  0.44862592716E+03  0.00000000000E+00 0.  1.
         13    1    4    4    0    0 -0.16448842231E+03 -0.10207634015E+03 -0.51089696107E+03  0.54634396228E+03  0.00000000000E+00 0. -1.
          2    1    1    2  501    0  0.40461107053E+03  0.15385723443E+02 -0.19633656842E+03  0.44999431883E+03  0.00000000000E+00 0. -1.
<scales pt_clust_5="13000.00000" pt_clust_6="13000.00000" pt_clust_7="13000.00000" pt_clust_8="13000.00000" pt_clust_9="13000.00000"></scales>
<clustering>
<clus scale="   90.250">  7  8 -1 -1</clus>
<clus scale="   91.374">  5  6 -1 -1</clus>
<clus scale="  232.635">  2  5  1 -1</clus>
<clus scale="  399.671">  7  9 -1 -1</clus>
<clus scale="  947.525">  1  5  2 -1</clus>
</clustering>
</event>
<event>
 9    1  0.3312826E-006  0.2688197E+03  0.7546771E-02  0.1115536E+00
         21   -1    0    0  501  502  0.00000000000E+00  0.00000000000E+00  0.55004591396E+02  0.55004591396E+02  0.00000000000E+00 0. -1.
          1   -1    0    0  502    0 -0.00000000000E+00 -0.00000000000E+00 -0.96092203205E+03  0.96092203205E+03  0.00000000000E+00 0. -1.
         23    2    1    2    0    0  0.64934380659E+02 -0.15346459594E+03 -0.40723702513E+03  0.44940548486E+03  0.91408091465E+02 0.  0.
         23    2    1    2    0    0 -0.93325124775E+02  0.89886554484E+02 -0.46043430960E+03  0.48707954793E+03  0.91964998583E+02 0.  0.
        -11    1    4    4    0    0 -0.85355200007E+02  0.10878981386E+03 -0.40652843165E+03  0.42940202550E+03  0.00000000000E+00 0. -1.
         11    1    4    4    0    0 -0.79699247684E+01 -0.18903259373E+02 -0.53905877952E+02  0.57677522429E+02  0.00000000000E+00 0.  1.
        -11    1    3    3    0    0  0.60039512765E+01 -0.10897859048E+03 -0.29974135256E+03  0.31899413639E+03  0.00000000000E+00 0. -1.
         11    1    3    3    0    0  0.58930429383E+02 -0.44486005459E+02 -0.10749567257E+03  0.13041134847E+03  0.00000000000E+00 0.  1.
          1    1    1    2  501    0  0.28390744116E+02  0.63578041460E+02 -0.38246105921E+02  0.79441590653E+02  0.00000000000E+00 0. -1.
<scales pt_clust_5="13000.00000" pt_clust_6="13000.00000" pt_clust_7="13000.00000" pt_clust_8="13000.00000" pt_clust_9="13000.00000"></scales>
<clustering>
<clus scale="   91.408">  7  8 -1 -1</clus>
<clus scale="   91.965">  5  6 -1 -1</clus>
<clus scale="   69.629">  5  9 -1 -1</clus>
<clus scale="  190.061">  2  7  1 -1</clus>
<clus scale="  268.820">  1  5  2 -1</clus>
</clustering>
</event>
<event>
 9    1  0.3312826E-006  0.1887255E+03  0.7546771E-02  0.1190562E+00
         21   -1    0    0  501  502  0.00000000000E+00  0.00000000000E+00  0.37139242588E+02  0.37139242588E+02  0.00000000000E+00 0. -1.
          1   -1    0    0  502    0 -0.00000000000E+00 -0.00000000000E+00 -0.59148217045E+03  0.59148217045E+03  0.00000000000E+00 0. -1.
         23    2    1    2    0    0  0.39506168301E+01  0.94574917395E+01 -0.10157855267E+03  0.13809834007E+03  0.92994073156E+02 0.  0.
         23    2    1    2    0    0  0.25387411859E+02  0.52549885296E+02 -0.34783942858E+03  0.36516407188E+03  0.94586046496E+02 0.  0.
        -11    1    3    3    0    0  0.26859605152E+02  0.38292931943E+02 -0.24794615193E+02  0.52939210122E+02  0.00000000000E+00 0.  1.
         11    1    3    3    0    0 -0.22908988322E+02 -0.28835440204E+02 -0.76783937481E+02  0.85159129943E+02  0.00000000000E+00 0. -1.
        -11    1    4    4    0    0 -0.53562298960E+01  0.72907091020E+02 -0.20508613923E+03  0.21772564761E+03  0.00000000000E+00 0. -1.
         11    1    4    4    0    0  0.30743641755E+02 -0.20357205724E+02 -0.14275328934E+03  0.14743842427E+03  0.00000000000E+00 0.  1.
          1    1    1    2  501    0 -0.29338028690E+02 -0.62007377036E+02 -0.10492494661E+03  0.12535900109E+03  0.00000000000E+00 0. -1.
<scales pt_clust_5="13000.00000" pt_clust_6="13000.00000" pt_clust_7="13000.00000" pt_clust_8="13000.00000" pt_clust_9="13000.00000"></scales>
<clustering>
<clus scale="   92.994">  5  6 -1 -1</clus>
<clus scale="   93.557">  2  5  1 -1</clus>
<clus scale="   94.586">  7  8 -1 -1</clus>
<clus scale="   66.098">  7  9 -1 -1</clus>
<clus scale="  188.725">  1  5  2 -1</clus>
</clustering>
</event>
<event>
 9    1  0.3312826E-006  0.2224925E+03  0.7546771E-02  0.1159699E+00
         21   -1    0    0  501  502  0.00000000000E+00  0.00000000000E+00  0.15083698484E+03  0.15083698484E+03  0.00000000000E+00 0. -1.
          2   -1    0    0  502    0 -0.00000000000E+00 -0.00000000000E+00 -0.31616122273E+03  0.31616122273E+03  0.00000000000E+00 0. -1.
         23    2    1    2    0    0 -0.17131247807E+02  0.64019378591E+02 -0.21061227662E+03  0.23994328392E+03  0.93932358389E+02 0.  0.
         23    2    1    2    0    0 -0.13092266722E+02 -0.90630592088E+02 -0.38621129643E+02  0.13398309090E+03  0.89858585127E+02 0.  0.
        -11    1    3    3    0    0 -0.23280570480E+02 -0.66882523563E+01 -0.84007117746E+01  0.25637660575E+02  0.00000000000E+00 0.  1.
         11    1    3    3    0    0  0.61493226736E+01  0.70707630947E+02 -0.20221156484E+03  0.21430562335E+03  0.00000000000E+00 0. -1.
        -13    1    4    4    0    0  0.30363399797E+02 -0.54140535674E+02 -0.45302269219E+02  0.76846790738E+02  0.00000000000E+00 0.  1.
         13    1    4    4    0    0 -0.43455666519E+02 -0.36490056414E+02  0.66811395758E+01  0.57136300158E+02  0.00000000000E+00 0. -1.
          2    1    1    2  501    0  0.30223514529E+02  0.26611213497E+02  0.83909168375E+02  0.93071832751E+02  0.00000000000E+00 0. -1.
<scales pt_clust_5="13000.00000" pt_clust_6="13000.00000" pt_clust_7="13000.00000" pt_clust_8="13000.00000" pt_clust_9="13000.00000"></scales>
<clustering>
<clus scale="   89.859">  7  8 -1 -1</clus>
<clus scale="   40.269">  7  9 -1 -1</clus>
<clus scale="   93.932">  5  6 -1 -1</clus>
<clus scale="  114.958">  2  5  1 -1</clus>
<clus scale="  222.493">  1  5  2 -1</clus>
</clustering>
</event>
<event>
 9    1  0.3312826E-006  0.1681408E+03  0.7546771E-02  0.1198428E+00
         21   -1    0    0  501  502  0.00000000000E+00  0.00000000000E+00  0.16679892142E+03  0.16679892142E+03  0.00000000000E+00 0.  1.
          1   -1    0    0  502    0 -0.00000000000E+00 -0.00000000000E+00 -0.11784447246E+03  0.11784447246E+03  0.00000000000E+00 0. -1.
         23    2    1    2    0    0 -0.19521849545E+02  0.60685233233E+02  0.30818843789E+02  0.11552739008E+03  0.91285138898E+02 0.  0.
         23    2    1    2    0    0 -0.38021449293E+02 -0.53530857510E+02  0.70842453181E+01  0.11008593614E+03  0.88076918040E+02 0.  0.
        -11    1    3    3    0    0 -0.22881924753E+02 -0.20054332775E+02  0.10680425554E+02  0.32246398768E+02  0.00000000000E+00 0.  1.
         11    1    3    3    0    0  0.33600752086E+01  0.80739566009E+02  0.20138418236E+02  0.83280991311E+02  0.00000000000E+00 0. -1.
        -11    1    4    4    0    0 -0.26443721176E+02 -0.77995497192E+02  0.95488147121E+01  0.82908068572E+02  0.00000000000E+00 0.  1.
         11    1    4    4    0    0 -0.11577728117E+02  0.24464639682E+02 -0.24645693940E+01  0.27177867566E+02  0.00000000000E+00 0. -1.
          1    1    1    2  501    0  0.57543298838E+02 -0.71543757236E+01  0.11051359851E+02  0.59030067658E+02  0.00000000000E+00 0. -1.
<scales pt_clust_5="13000.00000" pt_clust_6="13000.00000" pt_clust_7="13000.00000" pt_clust_8="13000.00000" pt_clust_9="13000.00000"></scales>
<clustering>
<clus scale="   88.077">  7  8 -1 -1</clus>
<clus scale="   57.986">  7  9 -1 -1</clus>
<clus scale="   91.285">  5  6 -1 -1</clus>
<clus scale="  111.341">  2  5  1 -1</clus>
<clus scale="  168.141">  1  5  2 -1</clus>
</clustering>
</event>
<event>
 9    1  0.3312826E-006  0.4174502E+03  0.7546771E-02  0.1090573E+00
         -1   -1    0    0    0  501 -0.00000000000E+00  0.00000000000E+00  0.22212708418E+03  0.22212708418E+03  0.00000000000E+00 0.  1.
         21   -1    0    0  501  502  0.00000000000E+00 -0.00000000000E+00 -0.32467416335E+03  0.32467416335E+03  0.00000000000E+00 0.  1.
         23    2    1    2    0    0 -0.30193507760E+02 -0.78677373891E+01  0.41518717020E+02  0.10519101665E+03  0.91475662985E+02 0.  0.
         23    2    1    2    0    0 -0.22645873220E+02 -0.86263194536E+02  0.10845393037E+03  0.16698531425E+03  0.90375139595E+02 0.  0.
        -11    1    3    3    0    0  0.32544967641E+02  0.64827414072E+00  0.20549187600E+02  0.38494990442E+02  0.00000000000E+00 0.  1.
         11    1    3    3    0    0 -0.62738475400E+02 -0.85160115298E+01  0.20969529420E+02  0.66696026209E+02  0.00000000000E+00 0. -1.
        -13    1    4    4    0    0  0.20338242453E+02 -0.60873679537E+02  0.23306668472E+02  0.68282133547E+02  0.00000000000E+00 0.  1.
         13    1    4    4    0    0 -0.42984115673E+02 -0.25389514999E+02  0.85147261898E+02  0.98703180702E+02  0.00000000000E+00 0. -1.
         -1    1    1    2    0  502  0.52839380979E+02  0.94130931925E+02 -0.25251972656E+03  0.27462491663E+03  0.00000000000E+00 0.  1.
<scales pt_clust_5="13000.00000" pt_clust_6="13000.00000" pt_clust_7="13000.00000" pt_clust_8="13000.00000" pt_clust_9="13000.00000"></scales>
<clustering>
<clus scale="   90.375">  7  8 -1 -1</clus>
<clus scale="   91.476">  5  6 -1 -1</clus>
<clus scale="   96.651">  1  5  2 -1</clus>
<clus scale="  106.353">  7  9 -1 -1</clus>
<clus scale="  417.450">  2  5  1 -1</clus>
</clustering>
</event>
<event>
 9    1  0.3312826E-006  0.1480467E+03  0.7546771E-02  0.1222999E+00
         21   -1    0    0  501  502  0.00000000000E+00  0.00000000000E+00  0.78025169632E+02  0.78025169632E+02  0.00000000000E+00 0. -1.
          3   -1    0    0  502    0 -0.00000000000E+00 -0.00000000000E+00 -0.27582457041E+03  0.27582457041E+03  0.00000000000E+00 0. -1.
         23    2    1    2    0    0 -0.28483156030E+02 -0.21497414945E+02 -0.18060971723E+03  0.20480848318E+03  0.89739711380E+02 0.  0.
         23    2    1    2    0    0 -0.23018575991E+02  0.14115105136E+02 -0.12631240625E+02  0.96813809090E+02  0.92110120818E+02 0.  0.
        -11    1    4    4    0    0 -0.36621595545E+02  0.47384660045E+02 -0.10562005777E+02  0.60811209771E+02  0.00000000000E+00 0. -1.
         11    1    4    4    0    0  0.13603019554E+02 -0.33269554909E+02 -0.20692348484E+01  0.36002599319E+02  0.00000000000E+00 0.  1.
        -13    1    3    3    0    0 -0.48302180015E+01 -0.49378389105E+02 -0.14699445537E+03  0.15514163279E+03  0.00000000000E+00 0. -1.
         13    1    3    3    0    0 -0.23652938028E+02  0.27880974160E+02 -0.33615261858E+02  0.49666850386E+02  0.00000000000E+00 0.  1.
          3    1    1    2  501    0  0.51501732020E+02  0.73823098096E+01 -0.45584429273E+01  0.52227447775E+02  0.00000000000E+00 0. -1.
<scales pt_clust_5="13000.00000" pt_clust_6="13000.00000" pt_clust_7="13000.00000" pt_clust_8="13000.00000" pt_clust_9="13000.00000"></scales>
<clustering>
<clus scale="   89.740">  7  8 -1 -1</clus>
<clus scale="   92.110">  5  6 -1 -1</clus>
<clus scale="   52.028">  5  9 -1 -1</clus>
<clus scale="   96.575">  2  7  1 -1</clus>
<clus scale="  148.047">  1  5  2 -1</clus>
</clustering>
</event>
<event>
 9    1  0.3312826E-006  0.2015786E+03  0.7546771E-02  0.1175688E+00
         21   -1    0    0  501  502  0.00000000000E+00  0.00000000000E+00  0.10225628617E+03  0.10225628617E+03  0.00000000000E+00 0.  1.
         -1   -1    0    0    0  501 -0.00000000000E+00 -0.00000000000E+00 -0.23631455783E+03  0.23631455783E+03  0.00000000000E+00 0.  1.
         23    2    1    2    0    0  0.41050558825E+02 -0.35758029411E+02 -0.66174848359E+02  0.12586896644E+03  0.92195992912E+02 0.  0.
         23    2    1    2    0    0 -0.85788789123E+02  0.58558169726E+02 -0.14501085158E+02  0.13941456848E+03  0.91855129699E+02 0.  0.
        -11    1    3    3    0    0  0.30573262010E+01  0.30419037040E+02 -0.22361893958E+02  0.37877689466E+02  0.00000000000E+00 0.  1.
         11    1    3    3    0    0  0.37993232624E+02 -0.66177066451E+02 -0.43812954401E+02  0.87991276969E+02  0.00000000000E+00 0. -1.
        -13    1    4    4    0    0 -0.10254678979E+03  0.35947655209E+02 -0.20643347878E+02  0.11060843468E+03  0.00000000000E+00 0.  1.
         13    1    4    4    0    0  0.16758000664E+02  0.22610514517E+02  0.61422627200E+01  0.28806133797E+02  0.00000000000E+00 0. -1.
         -1    1    1    2    0  502  0.44738230298E+02 -0.22800140315E+02 -0.53382338142E+02  0.73287309093E+02  0.00000000000E+00 0.  1.
<scales pt_clust_5="13000.00000" pt_clust_6="13000.00000" pt_clust_7="13000.00000" pt_clust_8="13000.00000" pt_clust_9="13000.00000"></scales>
<clustering>
<clus scale="   91.855">  7  8 -1 -1</clus>
<clus scale="   50.213">  7  9 -1 -1</clus>
<clus scale="   92.196">  5  6 -1 -1</clus>
<clus scale="  107.070">  2  5  1 -1</clus>
<clus scale="  201.579">  1  5  2 -1</clus>
</clustering>
</event>
<event>
 9    1  0.3312826E-006  0.2637796E+03  0.7546771E-02  0.1127175E+00
         21   -1    0    0  501  502  0.00000000000E+00  0.00000000000E+00  0.11015580528E+03  0.11015580528E+03  0.00000000000E+00 0. -1.
          1   -1    0    0  502    0 -0.00000000000E+00 -0.00000000000E+00 -0.49442922012E+03  0.49442922012E+03  0.00000000000E+00 0. -1.
         23    2    1    2    0    0 -0.93717708601E+02  0.74151886795E+02 -0.28586362990E+03  0.32304607297E+03  0.91428874781E+02 0.  0.
         23    2    1    2    0    0  0.69310228665E+02 -0.30552879008E+02 -0.16326148265E+03  0.19967112449E+03  0.86468838468E+02 0.  0.
        -11    1    4    4    0    0  0.70912305977E+02 -0.61599172360E+01 -0.58615454403E+02  0.92207761139E+02  0.00000000000E+00 0.  1.
         11    1    4    4    0    0 -0.16020773113E+01 -0.24392961772E+02 -0.10464602825E+03  0.10746336335E+03  0.00000000000E+00 0. -1.
        -13    1    3    3    0    0 -0.39346851712E+02 -0.14662297808E+02 -0.12069159454E+03  0.12778739652E+03  0.00000000000E+00 0.  1.
         13    1    3    3    0    0 -0.54370856889E+02  0.88814184604E+02 -0.16517203535E+03  0.19525867645E+03  0.00000000000E+00 0. -1.
          1    1    1    2  501    0  0.24407479936E+02 -0.43599007787E+02  0.64851697697E+02  0.81867827936E+02  0.00000000000E+00 0. -1.
<scales pt_clust_5="13000.00000" pt_clust_6="13000.00000" pt_clust_7="13000.00000" pt_clust_8="13000.00000" pt_clust_9="13000.00000"></scales>
<clustering>
<clus scale="   86.469">  5  6 -1 -1</clus>
<clus scale="   49.966">  5  9 -1 -1</clus>
<clus scale="   91.429">  7  8 -1 -1</clus>
<clus scale="  150.468">  2  7  1 -1</clus>
<clus scale="  263.780">  1  5  2 -1</clus>
</clustering>
</event>
<event>
 9    1  0.3312826E-006  0.2178783E+03  0.7546771E-02  0.1159432E+00
         21   -1    0    0  501  502  0.00000000000E+00  0.00000000000E+00  0.12962461459E+03  0.12962461459E+03  0.00000000000E+00 0.  1.
         -4   -1    0    0    0  501 -0.00000000000E+00 -0.00000000000E+00 -0.25041323887E+03  0.25041323887E+03  0.00000000000E+00 0.  1.
         23    2    1    2    0    0 -0.84067179319E+02  0.74945339650E+00 -0.10452978741E+03  0.16155377122E+03  0.90029396435E+02 0.  0.
         23    2    1    2    0    0  0.21339069352E+02  0.50856207246E+02 -0.61465139495E+02  0.12552403820E+03  0.94533650603E+02 0.  0.
        -11    1    3    3    0    0 -0.93998105106E+02  0.23449785044E+02 -0.92745518969E+02  0.13411661892E+03  0.00000000000E+00 0.  1.
         11    1    3    3    0    0  0.99309257867E+01 -0.22700331647E+02 -0.11784268438E+02  0.27437152303E+02  0.00000000000E+00 0. -1.
        -13    1    4    4    0    0  0.55447958824E+02  0.10525242079E+02 -0.28081791260E+02  0.63038431603E+02  0.00000000000E+00 0. -1.
         13    1    4    4    0    0 -0.34108889472E+02  0.40330965166E+02 -0.33383348235E+02  0.62485606596E+02  0.00000000000E+00 0.  1.
         -4    1    1    2    0  502  0.62728109968E+02 -0.51605660642E+02  0.45206302623E+02  0.92960044036E+02  0.00000000000E+00 0.  1.
<scales pt_clust_5="13000.00000" pt_clust_6="13000.00000" pt_clust_7="13000.00000" pt_clust_8="13000.00000" pt_clust_9="13000.00000"></scales>
<clustering>
<clus scale="   90.029">  5  6 -1 -1</clus>
<clus scale="   94.534">  7  8 -1 -1</clus>
<clus scale="   81.228">  7  9 -1 -1</clus>
<clus scale="  123.179">  2  5  1 -1</clus>
<clus scale="  217.878">  1  5  2 -1</clus>
</clustering>
</event>
<event>
 9    1  0.3312826E-006  0.5651169E+03  0.7546771E-02  0.1028831E+00
          1   -1    0    0  502    0 -0.00000000000E+00  0.00000000000E+00  0.12195273225E+04  0.12195273225E+04  0.00000000000E+00 0. -1.
         21   -1    0    0  501  502  0.00000000000E+00 -0.00000000000E+00 -0.13200414370E+03  0.13200414370E+03  0.00000000000E+00 0. -1.
         23    2    1    2    0    0  0.76328491241E+02  0.18506567083E+03  0.44160284483E+03  0.49329480707E+03  0.90836958476E+02 0.  0.
         23    2    1    2    0    0  0.14979518902E+03 -0.24878613062E+03  0.23372075722E+03  0.38378886764E+03  0.91298220819E+02 0.  0.
        -11    1    4    4    0    0  0.38194695306E+02 -0.32096043724E+02  0.84114973008E+02  0.97797338698E+02  0.00000000000E+00 0.  1.
         11    1    4    4    0    0  0.11160049372E+03 -0.21669008689E+03  0.14960578422E+03  0.28599152894E+03  0.00000000000E+00 0. -1.
        -11    1    3    3    0    0 -0.53173971501E+01  0.10614705427E+03  0.21294646079E+03  0.23799509870E+03  0.00000000000E+00 0.  1.
         11    1    3    3    0    0  0.81645888392E+02  0.78918616561E+02  0.22865638404E+03  0.25529970837E+03  0.00000000000E+00 0. -1.
          1    1    1    2  501    0 -0.22612368027E+03  0.63720459783E+02  0.41219957675E+03  0.47444779148E+03  0.00000000000E+00 0. -1.
<scales pt_clust_5="13000.00000" pt_clust_6="13000.00000" pt_clust_7="13000.00000" pt_clust_8="13000.00000" pt_clust_9="13000.00000"></scales>
<clustering>
<clus scale="   90.837">  7  8 -1 -1</clus>
<clus scale="   91.298">  5  6 -1 -1</clus>
<clus scale="  219.833">  1  7  2 -1</clus>
<clus scale="  250.343">  5  9 -1 -1</clus>
<clus scale="  565.117">  2  5  1 -1</clus>
</clustering>
</event>
<event>
 9    1  0.3312826E-006  0.2349275E+03  0.7546771E-02  0.1152672E+00
         21   -1    0    0  501  502  0.00000000000E+00  0.00000000000E+00  0.22230341991E+02  0.22230341991E+02  0.00000000000E+00 0. -1.
          1   -1    0    0  502    0 -0.00000000000E+00 -0.00000000000E+00 -0.14046046849E+04  0.14046046849E+04  0.00000000000E+00 0. -1.
         23    2    1    2    0    0 -0.36148771835E+02 -0.56504166450E+02 -0.55130397030E+03  0.56319800561E+03  0.93576018948E+02 0.  0.
         23    2    1    2    0    0  0.58978669813E+02 -0.49866779238E+02 -0.52076615774E+03  0.53481383462E+03  0.94144928065E+02 0.  0.
        -11    1    4    4    0    0 -0.25827061529E+02 -0.13769043792E+02 -0.14323529412E+03  0.14619498335E+03  0.00000000000E+00 0.  1.
         11    1    4    4    0    0  0.84805731342E+02 -0.36097735446E+02 -0.37753086362E+03  0.38861885127E+03  0.00000000000E+00 0. -1.
        -13    1    3    3    0    0  0.71231558445E+01 -0.69014254568E+02 -0.36406840799E+03  0.37062044247E+03  0.00000000000E+00 0.  1.
         13    1    3    3    0    0 -0.43271927680E+02  0.12510088118E+02 -0.18723556231E+03  0.19257756314E+03  0.00000000000E+00 0. -1.
          1    1    1    2  501    0 -0.22829897978E+02  0.10637094569E+03 -0.31030421490E+03  0.32882318670E+03  0.00000000000E+00 0. -1.
<scales pt_clust_5="13000.00000" pt_clust_6="13000.00000" pt_clust_7="13000.00000" pt_clust_8="13000.00000" pt_clust_9="13000.00000"></scales>
<clustering>
<clus scale="   93.576">  7  8 -1 -1</clus>
<clus scale="   94.145">  5  6 -1 -1</clus>
<clus scale="  108.793">  5  9 -1 -1</clus>
<clus scale="  115.134">  2  7  1 -1</clus>
<clus scale="  234.928">  1  5  2 -1</clus>
</clustering>
</event>
<event>
 9    1  0.3312826E-006  0.3193642E+03  0.7546771E-02  0.1105677E+00
         21   -1    0    0  501  502  0.00000000000E+00  0.00000000000E+00  0.56577564704E+02  0.56577564704E+02  0.00000000000E+00 0. -1.
          2   -1    0    0  502    0 -0.00000000000E+00 -0.00000000000E+00 -0.10282445010E+04  0.10282445010E+04  0.00000000000E+00 0. -1.
         23    2    1    2    0    0  0.40027280416E+02 -0.10770631433E+03 -0.45172931474E+03  0.47463470069E+03  0.89531513929E+02 0.  0.
         23    2    1    2    0    0  0.99640688379E+01 -0.79309539051E+02 -0.15196354262E+03  0.19440017522E+03  0.91154946052E+02 0.  0.
        -11    1    3    3    0    0 -0.25242238529E+02 -0.14877917472E+02 -0.59554335868E+02  0.66371996767E+02  0.00000000000E+00 0.  1.
         11    1    3    3    0    0  0.65269518945E+02 -0.92828396860E+02 -0.39217497887E+03  0.40826270393E+03  0.00000000000E+00 0. -1.
        -13    1    4    4    0    0  0.27660001467E+02  0.10499509993E+02 -0.40845051654E+02  0.50434448900E+02  0.00000000000E+00 0.  1.
         13    1    4    4    0    0 -0.17695932629E+02 -0.89809049044E+02 -0.11111849096E+03  0.14396572632E+03  0.00000000000E+00 0. -1.
          2    1    1    2  501    0 -0.49991349254E+02  0.18701585338E+03 -0.36797407895E+03  0.41578718979E+03  0.00000000000E+00 0. -1.
<scales pt_clust_5="13000.00000" pt_clust_6="13000.00000" pt_clust_7="13000.00000" pt_clust_8="13000.00000" pt_clust_9="13000.00000"></scales>
<clustering>
<clus scale="   89.532">  5  6 -1 -1</clus>
<clus scale="   91.155">  7  8 -1 -1</clus>
<clus scale="  145.666">  2  5  1 -1</clus>
<clus scale="  114.499">  7  9 -1 -1</clus>
<clus scale="  319.364">  1  5  2 -1</clus>
</clustering>
</event>
<event>
 9    1  0.3312826E-006  0.2992979E+03  0.7546771E-02  0.1094410E+00
          2   -1    0    0  502    0 -0.00000000000E+00  0.00000000000E+00  0.14807024783E+03  0.14807024783E+03  0.00000000000E+00 0. -1.
         21   -1    0    0  501  502  0.00000000000E+00 -0.00000000000E+00 -0.56966769028E+03  0.56966769028E+03  0.00000000000E+00 0.  1.
         23    2    1    2    0    0  0.16061042896E+02 -0.21878199054E+03 -0.52978873280E+02  0.24291280897E+03  0.89868544350E+02 0.  0.
         23    2    1    2    0    0 -0.61321776823E+02  0.19272700876E+03 -0.18699521912E+03  0.28584249132E+03  0.76384930787E+02 0.  0.
        -11    1    4    4    0    0 -0.32293132650E+02  0.24115474200E+02 -0.62025480096E+02  0.73970012122E+02  0.00000000000E+00 0.  1.
         11    1    4    4    0    0 -0.29028644173E+02  0.16861153456E+03 -0.12496973903E+03  0.21187247920E+03  0.00000000000E+00 0. -1.
        -13    1    3    3    0    0 -0.65316610705E+01 -0.67929512428E+02  0.23633223035E+02  0.72219183643E+02  0.00000000000E+00 0. -1.
         13    1    3    3    0    0  0.22592703966E+02 -0.15085247812E+03 -0.76612096315E+02  0.17069362533E+03  0.00000000000E+00 0.  1.
          2    1    1    2  501    0  0.45260733928E+02  0.26054981782E+02 -0.18162335005E+03  0.18898263781E+03  0.00000000000E+00 0. -1.
<scales pt_clust_5="13000.00000" pt_clust_6="13000.00000" pt_clust_7="13000.00000" pt_clust_8="13000.00000" pt_clust_9="13000.00000"></scales>
<clustering>
<clus scale="   76.385">  5  6 -1 -1</clus>
<clus scale="   52.225">  5  9 -1 -1</clus>
<clus scale="   89.869">  7  8 -1 -1</clus>
<clus scale="  237.065">  1  7  2 -1</clus>
<clus scale="  299.298">  2  5  1 -1</clus>
</clustering>
</event>
<event>
 9    1  0.3312826E-006  0.7601022E+03  0.7546771E-02  0.1026359E+00
         21   -1    0    0  501  502  0.00000000000E+00  0.00000000000E+00  0.17321341655E+03  0.17321341655E+03  0.00000000000E+00 0. -1.
          1   -1    0    0  502    0 -0.00000000000E+00 -0.00000000000E+00 -0.10691438862E+04  0.10691438862E+04  0.00000000000E+00 0. -1.
         23    2    1    2    0    0  0.26951392701E+02  0.12200586018E+02 -0.69536731251E+02  0.11955634917E+03  0.92645192894E+02 0.  0.
         23    2    1    2    0    0 -0.15907675451E+03  0.77173433373E+02 -0.91766840974E+03  0.93901876679E+03  0.91541146441E+02 0.  0.
        -11    1    3    3    0    0  0.57041390772E+02  0.12088485785E+02 -0.67788349355E+02  0.89415390499E+02  0.00000000000E+00 0.  1.
         11    1    3    3    0    0 -0.30089998072E+02  0.11210023300E+00 -0.17483818957E+01  0.30140958672E+02  0.00000000000E+00 0. -1.
        -13    1    4    4    0    0 -0.97876315737E+00  0.32073143260E+02 -0.10130842891E+03  0.10626872665E+03  0.00000000000E+00 0.  1.
         13    1    4    4    0    0 -0.15809799136E+03  0.45100290113E+02 -0.81635998084E+03  0.83275004014E+03  0.00000000000E+00 0. -1.
          1    1    1    2  501    0  0.13212536181E+03 -0.89374019391E+02  0.91274671302E+02  0.18378218684E+03  0.00000000000E+00 0. -1.
<scales pt_clust_5="13000.00000" pt_clust_6="13000.00000" pt_clust_7="13000.00000" pt_clust_8="13000.00000" pt_clust_9="13000.00000"></scales>
<clustering>
<clus scale="   91.541">  7  8 -1 -1</clus>
<clus scale="   92.645">  5  6 -1 -1</clus>
<clus scale="   97.254">  2  5  1 -1</clus>
<clus scale="  160.254">  7  9 -1 -1</clus>
<clus scale="  760.102">  1  5  2 -1</clus>
</clustering>
</event>
<event>
 9    1  0.3312826E-006  0.7167342E+03  0.7546771E-02  0.1014973E+00
          2   -1    0    0  502    0 -0.00000000000E+00  0.00000000000E+00  0.12667019477E+04  0.12667019477E+04  0.00000000000E+00 0. -1.
         21   -1    0    0  501  502  0.00000000000E+00 -0.00000000000E+00 -0.15327662281E+03  0.15327662281E+03  0.00000000000E+00 0. -1.
         23    2    1    2    0    0  0.41005053067E+02 -0.13091777407E+03  0.23223952755E+03  0.28411050724E+03  0.89233985817E+02 0.  0.
         23    2    1    2    0    0 -0.20789499178E+03  0.23303978316E+03  0.88231325264E+03  0.94020910605E+03  0.89379075745E+02 0.  0.
        -11    1    4    4    0    0 -0.12919787014E+03  0.95628308518E+02  0.53234791467E+03  0.55608557371E+03  0.00000000000E+00 0.  1.
         11    1    4    4    0    0 -0.78697121642E+02  0.13741147464E+03  0.34996533797E+03  0.38412353234E+03  0.00000000000E+00 0. -1.
        -13    1    3    3    0    0 -0.22462740578E+02 -0.55560524636E+01  0.33606773071E+02  0.40802691449E+02  0.00000000000E+00 0.  1.
         13    1    3    3    0    0  0.63467793645E+02 -0.12536172160E+03  0.19863275448E+03  0.24330781579E+03  0.00000000000E+00 0. -1.
          2    1    1    2  501    0  0.16688993872E+03 -0.10212200909E+03 -0.11274552873E+01  0.19565895722E+03  0.00000000000E+00 0. -1.
<scales pt_clust_5="13000.00000" pt_clust_6="13000.00000" pt_clust_7="13000.00000" pt_clust_8="13000.00000" pt_clust_9="13000.00000"></scales>
<clustering>
<clus scale="   89.234">  7  8 -1 -1</clus>
<clus scale="   89.379">  5  6 -1 -1</clus>
<clus scale="  163.657">  1  7  2 -1</clus>
<clus scale="  205.803">  5  9 -1 -1</clus>
<clus scale="  716.734">  2  5  1 -1</clus>
</clustering>
</event>
<event>
 9    1  0.3312826E-006  0.3276029E+03  0.7546771E-02  0.1106248E+00
          2   -1    0    0  502    0 -0.00000000000E+00  0.00000000000E+00  0.57082955852E+03  0.57082955852E+03  0.00000000000E+00 0. -1.
         21   -1    0    0  501  502  0.00000000000E+00 -0.00000000000E+00 -0.20805196807E+03  0.20805196807E+03  0.00000000000E+00 0. -1.
         23    2    1    2    0    0  0.78927376719E+02  0.56610237954E+02  0.42508788773E+03  0.44540549474E+03  0.90841029345E+02 0.  0.
         23    2    1    2    0    0  0.11550403451E+02  0.95487624361E+02  0.28919089608E+02  0.13437106090E+03  0.89263486588E+02 0.  0.
        -11    1    3    3    0    0  0.12409019982E+02 -0.16190205975E+02  0.20298637950E+02  0.28777443407E+02  0.00000000000E+00 0.  1.
         11    1    3    3    0    0  0.66518356736E+02  0.72800443929E+02  0.40478924978E+03  0.41662805133E+03  0.00000000000E+00 0. -1.
        -13    1    4    4    0    0  0.45413790195E+02  0.82390499536E+02  0.27585826695E+02  0.98038689241E+02  0.00000000000E+00 0. -1.
         13    1    4    4    0    0 -0.33863386744E+02  0.13097124826E+02  0.13332629137E+01  0.36332371660E+02  0.00000000000E+00 0.  1.
          2    1    1    2  501    0 -0.90477780170E+02 -0.15209786232E+03 -0.91229386885E+02  0.19910497095E+03  0.00000000000E+00 0. -1.
<scales pt_clust_5="13000.00000" pt_clust_6="13000.00000" pt_clust_7="13000.00000" pt_clust_8="13000.00000" pt_clust_9="13000.00000"></scales>
<clustering>
<clus scale="   89.263">  7  8 -1 -1</clus>
<clus scale="   90.841">  5  6 -1 -1</clus>
<clus scale="  132.990">  1  5  2 -1</clus>
<clus scale="  142.410">  7  9 -1 -1</clus>
<clus scale="  327.603">  2  5  1 -1</clus>
</clustering>
</event>
<event>
 9    1  0.3312826E-006  0.4357587E+03  0.7546771E-02  0.1085798E+00
         21   -1    0    0  501  502  0.00000000000E+00  0.00000000000E+00  0.28361135630E+03  0.28361135630E+03  0.00000000000E+00 0.  1.
          1   -1    0    0  502    0 -0.00000000000E+00 -0.00000000000E+00 -0.35060879047E+03  0.35060879047E+03  0.00000000000E+00 0. -1.
         23    2    1    2    0    0  0.89763397947E+01  0.28695897317E+02 -0.16170955838E+03  0.18828738325E+03  0.91641301925E+02 0.  0.
         23    2    1    2    0    0 -0.13796974146E+03  0.14398635395E+03  0.56649589498E+02  0.22705559677E+03  0.92613974932E+02 0.  0.
        -13    1    3    3    0    0  0.83363499510E+01 -0.21673261809E+02 -0.50982825158E+01  0.23774303199E+02  0.00000000000E+00 0.  1.
         13    1    3    3    0    0  0.63998984362E+00  0.50369159127E+02 -0.15661127587E+03  0.16451308005E+03  0.00000000000E+00 0. -1.
        -13    1    4    4    0    0 -0.10688667464E+03  0.14757401926E+03  0.66931266080E+02  0.19412018636E+03  0.00000000000E+00 0.  1.
         13    1    4    4    0    0 -0.31083066821E+02 -0.35876653069E+01 -0.10281676582E+02  0.32935410407E+02  0.00000000000E+00 0. -1.
          1    1    1    2  501    0  0.12899340166E+03 -0.17268225127E+03  0.38062534724E+02  0.21887716675E+03  0.00000000000E+00 0. -1.
<scales pt_clust_5="13000.00000" pt_clust_6="13000.00000" pt_clust_7="13000.00000" pt_clust_8="13000.00000" pt_clust_9="13000.00000"></scales>
<clustering>
<clus scale="   91.641">  5  6 -1 -1</clus>
<clus scale="   92.614">  7  8 -1 -1</clus>
<clus scale="   96.448">  2  5  1 -1</clus>
<clus scale="  206.853">  7  9 -1 -1</clus>
<clus scale="  435.759">  1  5  2 -1</clus>
</clustering>
</event>
<event>
 9    1  0.3312826E-006  0.1458012E+03  0.7546771E-02  0.1221204E+00
          1   -1    0    0  502    0 -0.00000000000E+00  0.00000000000E+00  0.40923372474E+03  0.40923372474E+03  0.00000000000E+00 0. -1.
         21   -1    0    0  501  502  0.00000000000E+00 -0.00000000000E+00 -0.38783891800E+02  0.38783891800E+02  0.00000000000E+00 0.  1.
         23    2    1    2    0    0 -0.50908831430E+02  0.14531053055E+02  0.13389959878E+03  0.17014353843E+03  0.90646900079E+02 0.  0.
         23    2    1    2    0    0  0.76295841822E+02 -0.97800711767E+01  0.19906273859E+03  0.23235062867E+03  0.91891977215E+02 0.  0.
        -11    1    3    3    0    0 -0.31025485808E+02 -0.11451524072E+02  0.13338308816E+03  0.13742185555E+03  0.00000000000E+00 0. -1.
         11    1    3    3    0    0 -0.19883345622E+02  0.25982577128E+02  0.51651061638E+00  0.32721682881E+02  0.00000000000E+00 0.  1.
        -11    1    4    4    0    0  0.71223591965E+02  0.15313077059E+02  0.70902683067E+02  0.10165864866E+03  0.00000000000E+00 0.  1.
         11    1    4    4    0    0  0.50722498564E+01 -0.25093148236E+02  0.12816005552E+03  0.13069198000E+03  0.00000000000E+00 0. -1.
          1    1    1    2  501    0 -0.25387010392E+02 -0.47509818788E+01  0.37487495577E+02  0.45523449453E+02  0.00000000000E+00 0. -1.
<scales pt_clust_5="13000.00000" pt_clust_6="13000.00000" pt_clust_7="13000.00000" pt_clust_8="13000.00000" pt_clust_9="13000.00000"></scales>
<clustering>
<clus scale="   90.647">  5  6 -1 -1</clus>
<clus scale="   91.892">  7  8 -1 -1</clus>
<clus scale="   25.828">  7  9 -1 -1</clus>
<clus scale="  104.975">  1  5  2 -1</clus>
<clus scale="  145.801">  2  5  1 -1</clus>
</clustering>
</event>
<event>
 9    1  0.3312826E-006  0.2179537E+03  0.7546771E-02  0.1162793E+00
          1   -1    0    0  502    0 -0.00000000000E+00  0.00000000000E+00  0.32307602418E+03  0.32307602418E+03  0.00000000000E+00 0. -1.
         21   -1    0    0  501  502  0.00000000000E+00 -0.00000000000E+00 -0.10210849240E+03  0.10210849240E+03  0.00000000000E+00 0. -1.
         23    2    1    2    0    0  0.59177457703E+02  0.31998004978E+02  0.16450416704E+03  0.20003586345E+03  0.91798049389E+02 0.  0.
         23    2    1    2    0    0 -0.14309689423E+02 -0.31166601719E+02  0.11607605374E+03  0.15053310147E+03  0.89501062080E+02 0.  0.
        -11    1    4    4    0    0 -0.28174584609E+02 -0.16192293315E+02 -0.18289479266E+00  0.32496631075E+02  0.00000000000E+00 0.  1.
         11    1    4    4    0    0  0.13864895186E+02 -0.14974308403E+02  0.11625894853E+03  0.11803647040E+03  0.00000000000E+00 0. -1.
        -13    1    3    3    0    0  0.65615386814E+02 -0.11061682067E+02  0.73458073640E+02  0.99115227790E+02  0.00000000000E+00 0. -1.
         13    1    3    3    0    0 -0.64379291112E+01  0.43059687045E+02  0.91046093395E+02  0.10092063566E+03  0.00000000000E+00 0.  1.
          1    1    1    2  501    0 -0.44867768280E+02 -0.83140325892E+00 -0.59612688983E+02  0.74615551661E+02  0.00000000000E+00 0. -1.
<scales pt_clust_5="13000.00000" pt_clust_6="13000.00000" pt_clust_7="13000.00000" pt_clust_8="13000.00000" pt_clust_9="13000.00000"></scales>
<clustering>
<clus scale="   89.501">  5  6 -1 -1</clus>
<clus scale="   44.875">  5  9 -1 -1</clus>
<clus scale="   91.798">  7  8 -1 -1</clus>
<clus scale="  113.810">  1  7  2 -1</clus>
<clus scale="  217.954">  2  5  1 -1</clus>
</clustering>
</event>
<event>
 9    1  0.3312826E-006  0.2774553E+03  0.7546771E-02  0.1136500E+00
         -3   -1    0    0    0  501 -0.00000000000E+00  0.00000000000E+00  0.54733213015E+03  0.54733213015E+03  0.00000000000E+00 0.  1.
         21   -1    0    0  501  502  0.00000000000E+00 -0.00000000000E+00 -0.13225673120E+03  0.13225673120E+03  0.00000000000E+00 0.  1.
         23    2    1    2    0    0  0.44742397010E+02  0.61669242304E+01  0.38730843881E+03  0.40074756944E+03  0.92470939184E+02 0.  0.
         23    2    1    2    0    0 -0.30355086772E+02  0.10281237225E+03 -0.44422708558E+02  0.14733148231E+03  0.90782010671E+02 0.  0.
        -11    1    4    4    0    0  0.23430432990E+02  0.11029142910E+01 -0.17235483334E+02  0.29107790981E+02  0.00000000000E+00 0. -1.
         11    1    4    4    0    0 -0.53785519762E+02  0.10170945796E+03 -0.27187225224E+02  0.11822369132E+03  0.00000000000E+00 0.  1.
        -13    1    3    3    0    0  0.25320335373E+02 -0.38660824009E+02  0.11236812773E+03  0.12150051369E+03  0.00000000000E+00 0. -1.
         13    1    3    3    0    0  0.19422061637E+02  0.44827748239E+02  0.27494031108E+03  0.27924705575E+03  0.00000000000E+00 0.  1.
         -3    1    1    2    0  502 -0.14387310238E+02 -0.10897929648E+03  0.72189668698E+02  0.13150980961E+03  0.00000000000E+00 0.  1.
<scales pt_clust_5="13000.00000" pt_clust_6="13000.00000" pt_clust_7="13000.00000" pt_clust_8="13000.00000" pt_clust_9="13000.00000"></scales>
<clustering>
<clus scale="   90.782">  5  6 -1 -1</clus>
<clus scale="   92.471">  7  8 -1 -1</clus>
<clus scale="  102.912">  1  7  2 -1</clus>
<clus scale="  105.998">  5  9 -1 -1</clus>
<clus scale="  277.455">  2  5  1 -1</clus>
</clustering>
</event>
<event>
 9    1  0.3312826E-006  0.7985150E+03  0.7546771E-02  0.9723586E-01
          1   -1    0    0  502    0 -0.00000000000E+00  0.00000000000E+00  0.94290943282E+03  0.94290943282E+03  0.00000000000E+00 0. -1.
         21   -1    0    0  501  502  0.00000000000E+00 -0.00000000000E+00 -0.42720649586E+03  0.42720649586E+03  0.00000000000E+00 0. -1.
         23    2    1    2    0    0 -0.18502530872E+03 -0.41288460441E+03  0.26919086824E+03  0.53441601620E+03  0.91807915770E+02 0.  0.
         23    2    1    2    0    0 -0.20070896339E+03  0.33063504071E+03  0.17734560147E+03  0.43527523841E+03  0.91703068004E+02 0.  0.
        -11    1    3    3    0    0 -0.51872306102E+02 -0.77936965796E+02  0.18675882398E+02  0.95465676351E+02  0.00000000000E+00 0.  1.
         11    1    3    3    0    0 -0.13315300262E+03 -0.33494763862E+03  0.25051498584E+03  0.43895033985E+03  0.00000000000E+00 0. -1.
        -11    1    4    4    0    0 -0.99057015501E+02  0.23385015204E+03  0.14016234146E+03  0.29007527970E+03  0.00000000000E+00 0. -1.
         11    1    4    4    0    0 -0.10165194789E+03  0.96784888664E+02  0.37183260015E+02  0.14519995871E+03  0.00000000000E+00 0.  1.
          1    1    1    2  501    0  0.38573427211E+03  0.82249563708E+02  0.69166467238E+02  0.40042467407E+03  0.00000000000E+00 0. -1.
<scales pt_clust_5="13000.00000" pt_clust_6="13000.00000" pt_clust_7="13000.00000" pt_clust_8="13000.00000" pt_clust_9="13000.00000"></scales>
<clustering>
<clus scale="   91.703">  7  8 -1 -1</clus>
<clus scale="   91.808">  5  6 -1 -1</clus>
<clus scale="  394.406">  7  9 -1 -1</clus>
<clus scale="  461.667">  1  5  2 -1</clus>
<clus scale="  798.515">  2  5  1 -1</clus>
</clustering>
</event>
<event>
 9    1  0.3898592E-006  0.4265662E+03  0.7546771E-02  0.1070162E+00
         21   -1    0    0  501  502  0.00000000000E+00  0.00000000000E+00  0.37621102683E+03  0.37621102683E+03  0.00000000000E+00 0.  1.
         -3   -1    0    0    0  501 -0.00000000000E+00 -0.00000000000E+00 -0.25544589110E+03  0.25544589110E+03  0.00000000000E+00 0.  1.
         23    2    1    2    0    0  0.67277324005E+02  0.10823572123E+03 -0.60480733686E+02  0.16818224728E+03  0.91575867324E+02 0.  0.
         23    2    1    2    0    0 -0.33869236480E+02  0.62667228290E+02 -0.86435703522E+02  0.14413575513E+03  0.90717574833E+02 0.  0.
        -13    1    4    4    0    0 -0.48261136815E+02  0.76906444842E+02 -0.53239399378E+02  0.10525289654E+03  0.00000000000E+00 0.  1.
         13    1    4    4    0    0  0.14391900335E+02 -0.14239216552E+02 -0.33196304144E+02  0.38882858590E+02  0.00000000000E+00 0. -1.
        -13    1    3    3    0    0 -0.11265513500E+02  0.16603243580E+02  0.15687324983E+02  0.25469033294E+02  0.00000000000E+00 0. -1.
         13    1    3    3    0    0  0.78542837505E+02  0.91632477653E+02 -0.76168058669E+02  0.14271321398E+03  0.00000000000E+00 0.  1.
         -3    1    1    2    0  502 -0.33408087525E+02 -0.17090294952E+03  0.26768157294E+03  0.31933891551E+03  0.00000000000E+00 0.  1.
<scales pt_clust_5="13000.00000" pt_clust_6="13000.00000" pt_clust_7="13000.00000" pt_clust_8="13000.00000" pt_clust_9="13000.00000"></scales>
<clustering>
<clus scale="   90.718">  5  6 -1 -1</clus>
<clus scale="   91.576">  7  8 -1 -1</clus>
<clus scale="  156.931">  2  7  1 -1</clus>
<clus scale="  152.558">  5  9 -1 -1</clus>
<clus scale="  426.566">  1  5  2 -1</clus>
</clustering>
</event>
<event>
 9    1  0.3312826E-006  0.1901133E+03  0.7546771E-02  0.1166358E+00
         21   -1    0    0  501  502  0.00000000000E+00  0.00000000000E+00  0.43241038165E+02  0.43241038165E+02  0.00000000000E+00 0.  1.
          2   -1    0    0  502    0 -0.00000000000E+00 -0.00000000000E+00 -0.70808259889E+03  0.70808259889E+03  0.00000000000E+00 0. -1.
         23    2    1    2    0    0  0.10499769883E+03 -0.72983414733E+02 -0.26298208552E+03  0.30676307507E+03  0.92697957593E+02 0.  0.
         23    2    1    2    0    0 -0.89227818526E+02  0.16058085178E+02 -0.23490689155E+03  0.26746638517E+03  0.90208390961E+02 0.  0.
        -13    1    3    3    0    0  0.29370332182E+02  0.21403957586E+02 -0.49633923510E+02  0.61516438257E+02  0.00000000000E+00 0. -1.
         13    1    3    3    0    0  0.75627366645E+02 -0.94387372319E+02 -0.21334816201E+03  0.24524663682E+03  0.00000000000E+00 0.  1.
        -13    1    4    4    0    0 -0.19006936051E+02  0.46380180673E+02 -0.74995497286E+02  0.90203710514E+02  0.00000000000E+00 0.  1.
         13    1    4    4    0    0 -0.70220882476E+02 -0.30322095495E+02 -0.15991139426E+03  0.17726267466E+03  0.00000000000E+00 0. -1.
          2    1    1    2  501    0 -0.15769880301E+02  0.56925329554E+02 -0.16695258366E+03  0.17709417682E+03  0.00000000000E+00 0. -1.
<scales pt_clust_5="13000.00000" pt_clust_6="13000.00000" pt_clust_7="13000.00000" pt_clust_8="13000.00000" pt_clust_9="13000.00000"></scales>
<clustering>
<clus scale="   90.208">  7  8 -1 -1</clus>
<clus scale="   59.069">  7  9 -1 -1</clus>
<clus scale="   92.698">  5  6 -1 -1</clus>
<clus scale="  157.937">  2  5  1 -1</clus>
<clus scale="  190.113">  1  5  2 -1</clus>
</clustering>
</event>
<event>
 9    1  0.3312826E-006  0.2163524E+03  0.7546771E-02  0.1167166E+00
          2   -1    0    0  502    0 -0.00000000000E+00  0.00000000000E+00  0.15536293663E+03  0.15536293663E+03  0.00000000000E+00 0. -1.
         21   -1    0    0  501  502  0.00000000000E+00 -0.00000000000E+00 -0.19106102673E+03  0.19106102673E+03  0.00000000000E+00 0. -1.
         23    2    1    2    0    0  0.45915298823E+02 -0.26290697970E+02 -0.71419576620E+02  0.12714248117E+03  0.90912260597E+02 0.  0.
         23    2    1    2    0    0  0.21769920858E+02  0.35145930655E+02  0.88503520968E+02  0.13299331806E+03  0.90250670512E+02 0.  0.
        -11    1    3    3    0    0 -0.19287247332E+02 -0.25097433168E+02 -0.17308644095E+01  0.31699762662E+02  0.00000000000E+00 0.  1.
         11    1    3    3    0    0  0.65202546154E+02 -0.11932648024E+01 -0.69688712211E+02  0.95442718504E+02  0.00000000000E+00 0. -1.
        -13    1    4    4    0    0 -0.32440479399E+01 -0.21981390589E+02  0.60838079188E+02  0.64768644100E+02  0.00000000000E+00 0.  1.
         13    1    4    4    0    0  0.25013968798E+02  0.57127321243E+02  0.27665441779E+02  0.68224673955E+02  0.00000000000E+00 0. -1.
          2    1    1    2  501    0 -0.67685219681E+02 -0.88552326845E+01 -0.52782034454E+02  0.86288164137E+02  0.00000000000E+00 0. -1.
<scales pt_clust_5="13000.00000" pt_clust_6="13000.00000" pt_clust_7="13000.00000" pt_clust_8="13000.00000" pt_clust_9="13000.00000"></scales>
<clustering>
<clus scale="   90.251">  7  8 -1 -1</clus>
<clus scale="   68.262">  7  9 -1 -1</clus>
<clus scale="   90.912">  5  6 -1 -1</clus>
<clus scale="  105.188">  1  5  2 -1</clus>
<clus scale="  216.352">  2  5  1 -1</clus>
</clustering>
</event>
<event>
 9    1  0.3312826E-006  0.4934171E+03  0.7546771E-02  0.1032931E+00
         21   -1    0    0  501  502  0.00000000000E+00  0.00000000000E+00  0.24210878875E+03  0.24210878875E+03  0.00000000000E+00 0.  1.
          4   -1    0    0  502    0 -0.00000000000E+00 -0.00000000000E+00 -0.65318339213E+03  0.65318339213E+03  0.00000000000E+00 0. -1.
         23    2    1    2    0    0  0.10088722540E+03  0.25945609690E+03 -0.22070949906E+03  0.36642614914E+03  0.89776062117E+02 0.  0.
         23    2    1    2    0    0 -0.72584995217E+02  0.68858010585E+02  0.22345682414E+02  0.13664536911E+03  0.90347220346E+02 0.  0.
        -11    1    3    3    0    0 -0.15909338404E+02  0.27800513311E+02 -0.15181258655E+02  0.35446384910E+02  0.00000000000E+00 0. -1.
         11    1    3    3    0    0  0.11679656381E+03  0.23165558359E+03 -0.20552824040E+03  0.33097976423E+03  0.00000000000E+00 0.  1.
        -13    1    4    4    0    0 -0.88976372449E+02  0.55851485827E+02  0.36690011089E+02  0.11127596433E+03  0.00000000000E+00 0.  1.
         13    1    4    4    0    0  0.16391377232E+02  0.13006524758E+02 -0.14344328675E+02  0.25369404782E+02  0.00000000000E+00 0. -1.
          4    1    1    2  501    0 -0.28302230184E+02 -0.32831410748E+03 -0.21271078673E+03  0.39222066264E+03  0.00000000000E+00 0. -1.
<scales pt_clust_5="13000.00000" pt_clust_6="13000.00000" pt_clust_7="13000.00000" pt_clust_8="13000.00000" pt_clust_9="13000.00000"></scales>
<clustering>
<clus scale="   89.776">  5  6 -1 -1</clus>
<clus scale="   90.347">  7  8 -1 -1</clus>
<clus scale="  292.499">  2  5  1 -1</clus>
<clus scale="  123.766">  7  9 -1 -1</clus>
<clus scale="  493.417">  1  5  2 -1</clus>
</clustering>
</event>
<event>
 9    1  0.3312826E-006  0.3039072E+03  0.7546771E-02  0.1115026E+00
         21   -1    0    0  501  502  0.00000000000E+00  0.00000000000E+00  0.12439139400E+03  0.12439139400E+03  0.00000000000E+00 0. -1.
          2   -1    0    0  502    0 -0.00000000000E+00 -0.00000000000E+00 -0.39393204811E+03  0.39393204811E+03  0.00000000000E+00 0. -1.
         23    2    1    2    0    0 -0.90191379791E+02  0.37270694522E+02 -0.45634053847E+02  0.14083999572E+03  0.90718508942E+02 0.  0.
         23    2    1    2    0    0  0.15295614222E+03 -0.46220480464E+02 -0.24745448001E+03  0.30985196917E+03  0.96138487935E+02 0.  0.
        -11    1    3    3    0    0 -0.70822685148E+02  0.67095012814E+02 -0.30755463920E+02  0.10229121192E+03  0.00000000000E+00 0.  1.
         11    1    3    3    0    0 -0.19368694643E+02 -0.29824318292E+02 -0.14878589927E+02  0.38548783793E+02  0.00000000000E+00 0. -1.
        -13    1    4    4    0    0  0.36490803756E+02 -0.53499878226E+02 -0.55882743244E+02  0.85537691817E+02  0.00000000000E+00 0.  1.
         13    1    4    4    0    0  0.11646533847E+03  0.72793977619E+01 -0.19157173676E+03  0.22431427735E+03  0.00000000000E+00 0. -1.
          2    1    1    2  501    0 -0.62764762434E+02  0.89497859421E+01  0.23547879742E+02  0.67631477229E+02  0.00000000000E+00 0. -1.
<scales pt_clust_5="13000.00000" pt_clust_6="13000.00000" pt_clust_7="13000.00000" pt_clust_8="13000.00000" pt_clust_9="13000.00000"></scales>
<clustering>
<clus scale="   90.719">  5  6 -1 -1</clus>
<clus scale="   96.138">  7  8 -1 -1</clus>
<clus scale="   63.400">  7  9 -1 -1</clus>
<clus scale="  133.242">  2  5  1 -1</clus>
<clus scale="  303.907">  1  5  2 -1</clus>
</clustering>
</event>
<event>
 9    1  0.3312826E-006  0.1944008E+03  0.7546771E-02  0.1168239E+00
         -3   -1    0    0    0  501 -0.00000000000E+00  0.00000000000E+00  0.25528242986E+03  0.25528242986E+03  0.00000000000E+00 0.  1.
         21   -1    0    0  501  502  0.00000000000E+00 -0.00000000000E+00 -0.11940695530E+03  0.11940695530E+03  0.00000000000E+00 0. -1.
         23    2    1    2    0    0 -0.28915054017E+02 -0.10365663370E+03  0.10868451372E+03  0.17839614935E+03  0.91826382504E+02 0.  0.
         23    2    1    2    0    0 -0.85052175541E+01  0.11798746455E+03  0.42846867330E+02  0.15327281223E+03  0.87540393033E+02 0.  0.
        -11    1    4    4    0    0  0.38960340558E+02  0.45341879677E+02  0.24324025070E+02  0.64540315963E+02  0.00000000000E+00 0.  1.
         11    1    4    4    0    0 -0.47465558112E+02  0.72645584873E+02  0.18522842261E+02  0.88732496267E+02  0.00000000000E+00 0. -1.
        -11    1    3    3    0    0  0.21390444253E+02 -0.82065901240E+02  0.80031088162E+02  0.11660762550E+03  0.00000000000E+00 0.  1.
         11    1    3    3    0    0 -0.50305498270E+02 -0.21590732458E+02  0.28653425554E+02  0.61788523856E+02  0.00000000000E+00 0. -1.
         -3    1    1    2    0  502  0.37420271571E+02 -0.14330830852E+02 -0.15655906484E+02  0.43020423582E+02  0.00000000000E+00 0.  1.
<scales pt_clust_5="13000.00000" pt_clust_6="13000.00000" pt_clust_7="13000.00000" pt_clust_8="13000.00000" pt_clust_9="13000.00000"></scales>
<clustering>
<clus scale="   87.540">  5  6 -1 -1</clus>
<clus scale="   40.071">  5  9 -1 -1</clus>
<clus scale="   91.826">  7  8 -1 -1</clus>
<clus scale="  141.467">  1  7  2 -1</clus>
<clus scale="  194.401">  2  5  1 -1</clus>
</clustering>
</event>
<event>
 9    1  0.3312826E-006  0.6113563E+03  0.7546771E-02  0.1049751E+00
         21   -1    0    0  501  502  0.00000000000E+00  0.00000000000E+00  0.31975621188E+03  0.31975621188E+03  0.00000000000E+00 0. -1.
          2   -1    0    0  502    0 -0.00000000000E+00 -0.00000000000E+00 -0.60926940140E+03  0.60926940140E+03  0.00000000000E+00 0. -1.
         23    2    1    2    0    0 -0.16341950021E+02  0.42259150975E+01 -0.30316438457E+03  0.31751688348E+03  0.92862314935E+02 0.  0.
         23    2    1    2    0    0 -0.21290357790E+02  0.85268781501E+02 -0.27463193770E+03  0.30731692199E+03  0.10628708718E+03 0.  0.
        -13    1    4    4    0    0  0.43350939116E+02  0.29069881276E+02 -0.99407371517E+02  0.11227727923E+03  0.00000000000E+00 0.  1.
         13    1    4    4    0    0 -0.64641296906E+02  0.56198900224E+02 -0.17522456618E+03  0.19503964275E+03  0.00000000000E+00 0. -1.
        -13    1    3    3    0    0  0.12397661128E+00  0.42703519524E+02 -0.22334019921E+03  0.22738612652E+03  0.00000000000E+00 0. -1.
         13    1    3    3    0    0 -0.16465926632E+02 -0.38477604426E+02 -0.79824185357E+02  0.90130756960E+02  0.00000000000E+00 0.  1.
          2    1    1    2  501    0  0.37632307811E+02 -0.89494696598E+02  0.28828313275E+03  0.30419180781E+03  0.00000000000E+00 0. -1.
<scales pt_clust_5="13000.00000" pt_clust_6="13000.00000" pt_clust_7="13000.00000" pt_clust_8="13000.00000" pt_clust_9="13000.00000"></scales>
<clustering>
<clus scale="   92.862">  7  8 -1 -1</clus>
<clus scale="   94.384">  2  7  1 -1</clus>
<clus scale="  106.287">  5  6 -1 -1</clus>
<clus scale="   96.813">  5  9 -1 -1</clus>
<clus scale="  611.356">  1  5  2 -1</clus>
</clustering>
</event>
<event>
 9    1  0.3312826E-006  0.2544968E+03  0.7546771E-02  0.1145035E+00
         -1   -1    0    0    0  501 -0.00000000000E+00  0.00000000000E+00  0.37092534314E+03  0.37092534314E+03  0.00000000000E+00 0.  1.
         21   -1    0    0  501  502  0.00000000000E+00 -0.00000000000E+00 -0.10262789817E+03  0.10262789817E+03  0.00000000000E+00 0.  1.
         23    2    1    2    0    0 -0.51488479114E+02  0.34904403729E+02  0.16795412150E+03  0.19998894386E+03  0.88980952221E+02 0.  0.
         23    2    1    2    0    0  0.27793944698E+02  0.91519129605E+02  0.61337616407E+02  0.13915527272E+03  0.80334502519E+02 0.  0.
        -11    1    4    4    0    0 -0.20689673115E+02  0.66262940988E+02  0.26352613724E+02  0.74251600468E+02  0.00000000000E+00 0.  1.
         11    1    4    4    0    0  0.48483617812E+02  0.25256188617E+02  0.34985002683E+02  0.64903672256E+02  0.00000000000E+00 0. -1.
        -13    1    3    3    0    0 -0.71830019960E+02  0.45069564205E+02  0.12025361321E+03  0.14714533249E+03  0.00000000000E+00 0.  1.
         13    1    3    3    0    0  0.20341540845E+02 -0.10165160476E+02  0.47700508294E+02  0.52843611373E+02  0.00000000000E+00 0. -1.
         -1    1    1    2    0  502  0.23694534417E+02 -0.12642353333E+03  0.39005707062E+02  0.13440902472E+03  0.00000000000E+00 0.  1.
<scales pt_clust_5="13000.00000" pt_clust_6="13000.00000" pt_clust_7="13000.00000" pt_clust_8="13000.00000" pt_clust_9="13000.00000"></scales>
<clustering>
<clus scale="   80.335">  5  6 -1 -1</clus>
<clus scale="   88.981">  7  8 -1 -1</clus>
<clus scale="  108.568">  1  7  2 -1</clus>
<clus scale="  110.235">  5  9 -1 -1</clus>
<clus scale="  254.497">  2  5  1 -1</clus>
</clustering>
</event>
<event>
 9    1  0.3312826E-006  0.1976073E+03  0.7546771E-02  0.1174937E+00
         21   -1    0    0  501  502  0.00000000000E+00  0.00000000000E+00  0.90457147360E+02  0.90457147360E+02  0.00000000000E+00 0.  1.
          1   -1    0    0  502    0 -0.00000000000E+00 -0.00000000000E+00 -0.35069862940E+03  0.35069862940E+03  0.00000000000E+00 0. -1.
         23    2    1    2    0    0  0.58565207721E+02 -0.39881092529E+02 -0.15387920669E+01  0.11561664854E+03  0.91347996381E+02 0.  0.
         23    2    1    2    0    0 -0.28922186462E+02 -0.45464802986E+02 -0.15636044548E+03  0.18902332108E+03  0.91529699118E+02 0.  0.
        -11    1    4    4    0    0  0.11163735985E+02  0.23568520793E+02 -0.32543111379E+02  0.41703216564E+02  0.00000000000E+00 0.  1.
         11    1    4    4    0    0 -0.40085922447E+02 -0.69033323779E+02 -0.12381733410E+03  0.14732010451E+03  0.00000000000E+00 0. -1.
        -13    1    3    3    0    0 -0.16540595065E+02 -0.17047989536E+02 -0.24201660832E+02  0.33910848107E+02  0.00000000000E+00 0. -1.
         13    1    3    3    0    0  0.75105802786E+02 -0.22833102994E+02  0.22662868765E+02  0.81705800437E+02  0.00000000000E+00 0.  1.
          1    1    1    2  501    0 -0.29643021259E+02  0.85345895516E+02 -0.10234224450E+03  0.13651580714E+03  0.00000000000E+00 0. -1.
<scales pt_clust_5="13000.00000" pt_clust_6="13000.00000" pt_clust_7="13000.00000" pt_clust_8="13000.00000" pt_clust_9="13000.00000"></scales>
<clustering>
<clus scale="   91.348">  7  8 -1 -1</clus>
<clus scale="   91.530">  5  6 -1 -1</clus>
<clus scale="   90.347">  5  9 -1 -1</clus>
<clus scale="  115.606">  2  7  1 -1</clus>
<clus scale="  197.607">  1  5  2 -1</clus>
</clustering>
</event>
<event>
 9    1  0.3312826E-006  0.1355856E+03  0.7546771E-02  0.1230022E+00
         -1   -1    0    0    0  501 -0.00000000000E+00  0.00000000000E+00  0.44473545635E+02  0.44473545635E+02  0.00000000000E+00 0.  1.
         21   -1    0    0  501  502  0.00000000000E+00 -0.00000000000E+00 -0.34902971097E+03  0.34902971097E+03  0.00000000000E+00 0. -1.
         23    2    1    2    0    0  0.42834496079E+02  0.39292282720E+02 -0.97417370912E+02  0.14593522311E+03  0.91805597070E+02 0.  0.
         23    2    1    2    0    0 -0.15915600796E+02 -0.40180868428E+02 -0.12271946141E+03  0.15895629446E+03  0.91319378033E+02 0.  0.
        -11    1    3    3    0    0  0.44434659228E+02  0.67027051194E+02 -0.66331449304E+02  0.10424454758E+03  0.00000000000E+00 0.  1.
         11    1    3    3    0    0 -0.16001631495E+01 -0.27734768474E+02 -0.31085921607E+02  0.41690675535E+02  0.00000000000E+00 0. -1.
        -11    1    4    4    0    0  0.21883305860E+02 -0.16979025104E+02 -0.10909922982E+03  0.11256024305E+03  0.00000000000E+00 0.  1.
         11    1    4    4    0    0 -0.37798906655E+02 -0.23201843325E+02 -0.13620231592E+02  0.46396051412E+02  0.00000000000E+00 0. -1.
         -1    1    1    2    0  502 -0.26918895283E+02  0.88858570814E+00 -0.84419333009E+02  0.88611739028E+02  0.00000000000E+00 0.  1.
<scales pt_clust_5="13000.00000" pt_clust_6="13000.00000" pt_clust_7="13000.00000" pt_clust_8="13000.00000" pt_clust_9="13000.00000"></scales>
<clustering>
<clus scale="   91.319">  7  8 -1 -1</clus>
<clus scale="   26.934">  7  9 -1 -1</clus>
<clus scale="   91.806">  5  6 -1 -1</clus>
<clus scale="  108.660">  1  5  2 -1</clus>
<clus scale="  135.586">  2  5  1 -1</clus>
</clustering>
</event>
<event>
 9    1  0.3312826E-006  0.2521626E+03  0.7546771E-02  0.1128156E+00
         21   -1    0    0  501  502  0.00000000000E+00  0.00000000000E+00  0.88032555125E+02  0.88032555125E+02  0.00000000000E+00 0. -1.
         -1   -1    0    0    0  501 -0.00000000000E+00 -0.00000000000E+00 -0.50177600050E+03  0.50177600050E+03  0.00000000000E+00 0.  1.
         23    2    1    2    0    0  0.10836371916E+03 -0.89134406074E+02 -0.17043635881E+03  0.23940262792E+03  0.92614404251E+02 0.  0.
         23    2    1    2    0    0 -0.14267422407E+02 -0.28987023758E+02 -0.12972460249E+03  0.16144094170E+03  0.90503581568E+02 0.  0.
        -11    1    4    4    0    0  0.34129650087E+02 -0.28158384168E+02 -0.83562045011E+02  0.94553386932E+02  0.00000000000E+00 0.  1.
         11    1    4    4    0    0 -0.48397072494E+02 -0.82863959090E+00 -0.46162557482E+02  0.66887554768E+02  0.00000000000E+00 0. -1.
        -11    1    3    3    0    0  0.80619904859E+02 -0.64868901799E+01 -0.85270300263E+02  0.11752732836E+03  0.00000000000E+00 0.  1.
         11    1    3    3    0    0  0.27743814300E+02 -0.82647515894E+02 -0.85166058542E+02  0.12187529956E+03  0.00000000000E+00 0. -1.
         -1    1    1    2    0  502 -0.94096296752E+02  0.11812142983E+03 -0.11358248408E+03  0.18896498601E+03  0.00000000000E+00 0.  1.
<scales pt_clust_5="13000.00000" pt_clust_6="13000.00000" pt_clust_7="13000.00000" pt_clust_8="13000.00000" pt_clust_9="13000.00000"></scales>
<clustering>
<clus scale="   90.504">  5  6 -1 -1</clus>
<clus scale="   92.614">  7  8 -1 -1</clus>
<clus scale="  151.019">  5  9 -1 -1</clus>
<clus scale="  168.122">  2  7  1 -1</clus>
<clus scale="  252.163">  1  5  2 -1</clus>
</clustering>
</event>
<event>
 9    1  0.3312826E-006  0.2550525E+03  0.7546771E-02  0.1145208E+00
         21   -1    0    0  501  502  0.00000000000E+00  0.00000000000E+00  0.18156673286E+03  0.18156673286E+03  0.00000000000E+00 0.  1.
          3   -1    0    0  502    0 -0.00000000000E+00 -0.00000000000E+00 -0.18508729570E+03  0.18508729570E+03  0.00000000000E+00 0. -1.
         23    2    1    2    0    0 -0.37080828906E+02  0.44049509683E+02  0.24176651825E+02  0.11010202495E+03  0.90678543374E+02 0.  0.
         23    2    1    2    0    0  0.92939682531E+02 -0.10226815350E+03 -0.17006528781E+01  0.17178500979E+03  0.10203253186E+03 0.  0.
        -13    1    3    3    0    0 -0.19392654104E+02  0.71869760960E+02  0.17353111946E+02  0.76436039065E+02  0.00000000000E+00 0.  1.
         13    1    3    3    0    0 -0.17688174802E+02 -0.27820251278E+02  0.68235398789E+01  0.33665985883E+02  0.00000000000E+00 0. -1.
        -13    1    4    4    0    0  0.92316133799E+02 -0.66844112910E+02  0.36506220397E+02  0.11967918832E+03  0.00000000000E+00 0.  1.
         13    1    4    4    0    0  0.62354873206E+00 -0.35424040593E+02 -0.38206873275E+02  0.52105821464E+02  0.00000000000E+00 0. -1.
          3    1    1    2  501    0 -0.55858853625E+02  0.58218643820E+02 -0.25996561784E+02  0.84766993819E+02  0.00000000000E+00 0. -1.
<scales pt_clust_5="13000.00000" pt_clust_6="13000.00000" pt_clust_7="13000.00000" pt_clust_8="13000.00000" pt_clust_9="13000.00000"></scales>
<clustering>
<clus scale="   90.679">  5  6 -1 -1</clus>
<clus scale="  102.033">  7  8 -1 -1</clus>
<clus scale="   80.682">  7  9 -1 -1</clus>
<clus scale="  107.415">  2  5  1 -1</clus>
<clus scale="  255.053">  1  5  2 -1</clus>
</clustering>
</event>
<event>
 9    1  0.3312826E-006  0.2700078E+03  0.7546771E-02  0.1127695E+00
          2   -1    0    0  502    0 -0.00000000000E+00  0.00000000000E+00  0.38691608918E+03  0.38691608918E+03  0.00000000000E+00 0. -1.
         21   -1    0    0  501  502  0.00000000000E+00 -0.00000000000E+00 -0.10947963848E+03  0.10947963848E+03  0.00000000000E+00 0. -1.
         23    2    1    2    0    0  0.10543696660E+03  0.15493590301E+02  0.12361635594E+03  0.18564694329E+03  0.88469084049E+02 0.  0.
         23    2    1    2    0    0 -0.48597800675E+01 -0.26836968879E+02  0.18253158851E+03  0.20554045504E+03  0.90472412874E+02 0.  0.
        -11    1    4    4    0    0  0.24239730179E+02  0.23248329990E+02  0.93251879217E+02  0.99115903587E+02  0.00000000000E+00 0.  1.
         11    1    4    4    0    0 -0.29099510247E+02 -0.50085298869E+02  0.89279709294E+02  0.10642455145E+03  0.00000000000E+00 0. -1.
        -11    1    3    3    0    0  0.19537954764E+02 -0.34080792900E+02  0.37189392374E+02  0.54095129414E+02  0.00000000000E+00 0.  1.
         11    1    3    3    0    0  0.85899011834E+02  0.49574383202E+02  0.86426963562E+02  0.13155181388E+03  0.00000000000E+00 0. -1.
          2    1    1    2  501    0 -0.10057718653E+03  0.11343378578E+02 -0.28711493743E+02  0.10520832933E+03  0.00000000000E+00 0. -1.
<scales pt_clust_5="13000.00000" pt_clust_6="13000.00000" pt_clust_7="13000.00000" pt_clust_8="13000.00000" pt_clust_9="13000.00000"></scales>
<clustering>
<clus scale="   88.469">  7  8 -1 -1</clus>
<clus scale="   90.472">  5  6 -1 -1</clus>
<clus scale="  101.215">  5  9 -1 -1</clus>
<clus scale="  138.506">  1  7  2 -1</clus>
<clus scale="  270.008">  2  5  1 -1</clus>
</clustering>
</event>
<event>
 9    1  0.3312826E-006  0.2364848E+03  0.7546771E-02  0.1156729E+00
          1   -1    0    0  502    0 -0.00000000000E+00  0.00000000000E+00  0.80800498469E+03  0.80800498469E+03  0.00000000000E+00 0. -1.
         21   -1    0    0  501  502  0.00000000000E+00 -0.00000000000E+00 -0.35995629877E+02  0.35995629877E+02  0.00000000000E+00 0. -1.
         23    2    1    2    0    0  0.38323448296E+02 -0.98201773929E+01  0.27723985245E+03  0.29561942349E+03  0.94677268573E+02 0.  0.
         23    2    1    2    0    0 -0.56131629119E+02 -0.64055981764E+02  0.43383637238E+03  0.45097654783E+03  0.88948974743E+02 0.  0.
        -11    1    4    4    0    0 -0.36365045172E+02  0.81913448889E+01  0.67959766871E+02  0.77511576908E+02  0.00000000000E+00 0.  1.
         11    1    4    4    0    0 -0.19766583947E+02 -0.72247326653E+02  0.36587660551E+03  0.37346497093E+03  0.00000000000E+00 0. -1.
        -13    1    3    3    0    0 -0.23556071293E+02 -0.25877972161E+02  0.63258551081E+02  0.72292476945E+02  0.00000000000E+00 0. -1.
         13    1    3    3    0    0  0.61879519589E+02  0.16057794769E+02  0.21398130137E+03  0.22332694654E+03  0.00000000000E+00 0.  1.
          1    1    1    2  501    0  0.17808180823E+02  0.73876159157E+02  0.60933129981E+02  0.97404643243E+02  0.00000000000E+00 0. -1.
<scales pt_clust_5="13000.00000" pt_clust_6="13000.00000" pt_clust_7="13000.00000" pt_clust_8="13000.00000" pt_clust_9="13000.00000"></scales>
<clustering>
<clus scale="   88.949">  5  6 -1 -1</clus>
<clus scale="   75.992">  5  9 -1 -1</clus>
<clus scale="   94.677">  7  8 -1 -1</clus>
<clus scale="  102.610">  1  7  2 -1</clus>
<clus scale="  236.485">  2  5  1 -1</clus>
</clustering>
</event>
<event>
 9    1  0.3312826E-006  0.2028853E+03  0.7546771E-02  0.1167380E+00
         21   -1    0    0  501  502  0.00000000000E+00  0.00000000000E+00  0.27092239812E+03  0.27092239812E+03  0.00000000000E+00 0.  1.
         -2   -1    0    0    0  501 -0.00000000000E+00 -0.00000000000E+00 -0.10104124933E+03  0.10104124933E+03  0.00000000000E+00 0.  1.
         23    2    1    2    0    0  0.37385876300E+02  0.78907350097E+02  0.80187759910E+02  0.15013637407E+03  0.92123722976E+02 0.  0.
         23    2    1    2    0    0  0.16695974344E+02  0.97455224113E+01  0.15759560869E+02  0.94350258595E+02  0.90993828208E+02 0.  0.
        -11    1    4    4    0    0  0.13141104760E+02 -0.34440853870E+02  0.30278765090E+02  0.47703927144E+02  0.00000000000E+00 0. -1.
         11    1    4    4    0    0  0.35548695840E+01  0.44186376281E+02 -0.14519204221E+02  0.46646331451E+02  0.00000000000E+00 0.  1.
        -13    1    3    3    0    0 -0.25538267193E+02  0.11070511848E+02  0.21108543142E+00  0.27835299188E+02  0.00000000000E+00 0.  1.
         13    1    3    3    0    0  0.62924143493E+02  0.67836838249E+02  0.79976674479E+02  0.12230107489E+03  0.00000000000E+00 0. -1.
         -2    1    1    2    0  502 -0.54081850644E+02 -0.88652872508E+02  0.73933828007E+02  0.12747701478E+03  0.00000000000E+00 0.  1.
<scales pt_clust_5="13000.00000" pt_clust_6="13000.00000" pt_clust_7="13000.00000" pt_clust_8="13000.00000" pt_clust_9="13000.00000"></scales>
<clustering>
<clus scale="   90.994">  5  6 -1 -1</clus>
<clus scale="   92.124">  7  8 -1 -1</clus>
<clus scale="  103.847">  5  9 -1 -1</clus>
<clus scale="  126.929">  2  7  1 -1</clus>
<clus scale="  202.885">  1  5  2 -1</clus>
</clustering>
</event>
<event>
 9    1  0.3312826E-006  0.2622335E+03  0.7546771E-02  0.1137306E+00
         21   -1    0    0  501  502  0.00000000000E+00  0.00000000000E+00  0.17544752160E+03  0.17544752160E+03  0.00000000000E+00 0. -1.
          1   -1    0    0  502    0 -0.00000000000E+00 -0.00000000000E+00 -0.33353192360E+03  0.33353192360E+03  0.00000000000E+00 0. -1.
         23    2    1    2    0    0 -0.82034186694E+02 -0.33403425872E+02 -0.21001903508E+03  0.24165266593E+03  0.80265928066E+02 0.  0.
         23    2    1    2    0    0  0.12371275478E+03 -0.46310054682E+02  0.70547105424E+02  0.17546946521E+03  0.91450381509E+02 0.  0.
        -11    1    3    3    0    0 -0.62624776448E+02 -0.57229580054E+02 -0.17848491218E+03  0.19762072598E+03  0.00000000000E+00 0. -1.
         11    1    3    3    0    0 -0.19409410246E+02  0.23826154182E+02 -0.31534122898E+02  0.44031939954E+02  0.00000000000E+00 0.  1.
        -13    1    4    4    0    0  0.45353810427E+02  0.26428889082E+02  0.33713551503E+02  0.62386359513E+02  0.00000000000E+00 0.  1.
         13    1    4    4    0    0  0.78358944350E+02 -0.72738943764E+02  0.36833553920E+02  0.11308310570E+03  0.00000000000E+00 0. -1.
          1    1    1    2  501    0 -0.41678568083E+02  0.79713480554E+02 -0.18612472335E+02  0.91857314058E+02  0.00000000000E+00 0. -1.
<scales pt_clust_5="13000.00000" pt_clust_6="13000.00000" pt_clust_7="13000.00000" pt_clust_8="13000.00000" pt_clust_9="13000.00000"></scales>
<clustering>
<clus scale="   80.266">  5  6 -1 -1</clus>
<clus scale="   91.450">  7  8 -1 -1</clus>
<clus scale="   89.952">  7  9 -1 -1</clus>
<clus scale="  119.532">  2  5  1 -1</clus>
<clus scale="  262.233">  1  5  2 -1</clus>
</clustering>
</event>
<event>
 9    1  0.3312826E-006  0.1962905E+03  0.7546771E-02  0.1162505E+00
         21   -1    0    0  501  502  0.00000000000E+00  0.00000000000E+00  0.85479291650E+02  0.85479291650E+02  0.00000000000E+00 0. -1.
         -4   -1    0    0    0  501 -0.00000000000E+00 -0.00000000000E+00 -0.38319203994E+03  0.38319203994E+03  0.00000000000E+00 0.  1.
         23    2    1    2    0    0 -0.17426544850E+02  0.12672438153E+03 -0.18416781816E+03  0.24190624540E+03  0.90763940963E+02 0.  0.
         23    2    1    2    0    0 -0.95652772618E+01 -0.87765235498E+02 -0.29410413141E+02  0.13019909596E+03  0.91063719977E+02 0.  0.
        -11    1    3    3    0    0 -0.41176561275E+02  0.35178822100E+02 -0.10668110374E+03  0.11964078158E+03  0.00000000000E+00 0. -1.
         11    1    3    3    0    0  0.23750016425E+02  0.91545559429E+02 -0.77486714429E+02  0.12226546382E+03  0.00000000000E+00 0.  1.
        -11    1    4    4    0    0 -0.40951835856E+02 -0.86133541610E+02 -0.23375396831E+02  0.98195972561E+02  0.00000000000E+00 0. -1.
         11    1    4    4    0    0  0.31386558594E+02 -0.16316938885E+01 -0.60350163103E+01  0.32003123397E+02  0.00000000000E+00 0.  1.
         -4    1    1    2    0  502  0.26991822112E+02 -0.38959146030E+02 -0.84134516980E+02  0.96565990223E+02  0.00000000000E+00 0.  1.
<scales pt_clust_5="13000.00000" pt_clust_6="13000.00000" pt_clust_7="13000.00000" pt_clust_8="13000.00000" pt_clust_9="13000.00000"></scales>
<clustering>
<clus scale="   90.764">  5  6 -1 -1</clus>
<clus scale="   91.064">  7  8 -1 -1</clus>
<clus scale="   47.396">  7  9 -1 -1</clus>
<clus scale="  156.847">  2  5  1 -1</clus>
<clus scale="  196.290">  1  5  2 -1</clus>
</clustering>
</event>
<event>
 9    1  0.3312826E-006  0.1486547E+03  0.7546771E-02  0.1208896E+00
         -4   -1    0    0    0  501 -0.00000000000E+00  0.00000000000E+00  0.47477795203E+03  0.47477795203E+03  0.00000000000E+00 0.  1.
         21   -1    0    0  501  502  0.00000000000E+00 -0.00000000000E+00 -0.60829060627E+02  0.60829060627E+02  0.00000000000E+00 0. -1.
         23    2    1    2    0    0 -0.76945210498E+02 -0.48773304854E+02  0.42269087113E+02  0.13530200787E+03  0.90667286957E+02 0.  0.
         23    2    1    2    0    0  0.41887068381E+02  0.10582277225E+02  0.22425562937E+03  0.24403115774E+03  0.85988996699E+02 0.  0.
        -11    1    3    3    0    0 -0.34990700701E+02 -0.71557982907E+02  0.17654052601E+02  0.81587741889E+02  0.00000000000E+00 0. -1.
         11    1    3    3    0    0 -0.41954509796E+02  0.22784678053E+02  0.24615034511E+02  0.53714265984E+02  0.00000000000E+00 0.  1.
        -13    1    4    4    0    0  0.45206333045E+02  0.36763949795E+02  0.19954064431E+03  0.20787416695E+03  0.00000000000E+00 0.  1.
         13    1    4    4    0    0 -0.33192646639E+01 -0.26181672571E+02  0.24714985060E+02  0.36156990791E+02  0.00000000000E+00 0. -1.
         -4    1    1    2    0  502  0.35058142116E+02  0.38191027629E+02  0.14742417492E+03  0.15627384705E+03  0.00000000000E+00 0.  1.
<scales pt_clust_5="13000.00000" pt_clust_6="13000.00000" pt_clust_7="13000.00000" pt_clust_8="13000.00000" pt_clust_9="13000.00000"></scales>
<clustering>
<clus scale="   85.989">  7  8 -1 -1</clus>
<clus scale="   51.842">  7  9 -1 -1</clus>
<clus scale="   90.667">  5  6 -1 -1</clus>
<clus scale="  128.530">  1  5  2 -1</clus>
<clus scale="  148.655">  2  5  1 -1</clus>
</clustering>
</event>
<event>
 9    1  0.3312826E-006  0.2222774E+03  0.7546771E-02  0.1166429E+00
          1   -1    0    0  502    0 -0.00000000000E+00  0.00000000000E+00  0.98765770058E+03  0.98765770058E+03  0.00000000000E+00 0. -1.
         21   -1    0    0  501  502  0.00000000000E+00 -0.00000000000E+00 -0.26869992296E+02  0.26869992296E+02  0.00000000000E+00 0. -1.
         23    2    1    2    0    0  0.12022890321E+02  0.44918074131E+02  0.38176187269E+03  0.39430341876E+03  0.87010777093E+02 0.  0.
         23    2    1    2    0    0 -0.71632848789E+02 -0.88212047376E+02  0.32799577995E+03  0.35860660631E+03  0.90026863223E+02 0.  0.
        -11    1    3    3    0    0  0.10605040220E+01  0.69874914161E+02  0.30312431680E+03  0.31107552095E+03  0.00000000000E+00 0.  1.
         11    1    3    3    0    0  0.10962386299E+02 -0.24956840030E+02  0.78637555882E+02  0.83227897803E+02  0.00000000000E+00 0. -1.
        -13    1    4    4    0    0 -0.34035888249E+02  0.10176008085E+02  0.50070774032E+02  0.61392794704E+02  0.00000000000E+00 0.  1.
         13    1    4    4    0    0 -0.37596960540E+02 -0.98388055461E+02  0.27792500591E+03  0.29721381161E+03  0.00000000000E+00 0. -1.
          1    1    1    2  501    0  0.59609958468E+02  0.43293973245E+02  0.25103005565E+03  0.26161766781E+03  0.00000000000E+00 0. -1.
<scales pt_clust_5="13000.00000" pt_clust_6="13000.00000" pt_clust_7="13000.00000" pt_clust_8="13000.00000" pt_clust_9="13000.00000"></scales>
<clustering>
<clus scale="   87.011">  5  6 -1 -1</clus>
<clus scale="   90.027">  7  8 -1 -1</clus>
<clus scale="   73.673">  7  9 -1 -1</clus>
<clus scale="   98.656">  1  5  2 -1</clus>
<clus scale="  222.277">  2  5  1 -1</clus>
</clustering>
</event>
<event>
 9    1  0.3312826E-006  0.1801136E+03  0.7546771E-02  0.1186281E+00
          1   -1    0    0  502    0 -0.00000000000E+00  0.00000000000E+00  0.20467652573E+03  0.20467652573E+03  0.00000000000E+00 0. -1.
         21   -1    0    0  501  502  0.00000000000E+00 -0.00000000000E+00 -0.11512168656E+03  0.11512168656E+03  0.00000000000E+00 0. -1.
         23    2    1    2    0    0  0.58818464947E+02  0.54914486295E+02  0.72732548530E+02  0.13890071201E+03  0.86765036498E+02 0.  0.
         23    2    1    2    0    0 -0.80348679309E+02 -0.89008201205E+02  0.11529303007E+02  0.14022875005E+03  0.71783057634E+02 0.  0.
        -11    1    3    3    0    0  0.61394530842E+02  0.35173641922E+00  0.24753609751E+02  0.66197834795E+02  0.00000000000E+00 0. -1.
         11    1    3    3    0    0 -0.25760658954E+01  0.54562749876E+02  0.47978938779E+02  0.72702877219E+02  0.00000000000E+00 0.  1.
        -13    1    4    4    0    0 -0.46673378059E+02 -0.14338253512E+02 -0.19582921891E+02  0.52606849012E+02  0.00000000000E+00 0. -1.
         13    1    4    4    0    0 -0.33675301251E+02 -0.74669947693E+02  0.31112224898E+02  0.87621901035E+02  0.00000000000E+00 0.  1.
          1    1    1    2  501    0  0.21530214362E+02  0.34093714910E+02  0.52929876336E+01  0.40668750226E+02  0.00000000000E+00 0. -1.
<scales pt_clust_5="13000.00000" pt_clust_6="13000.00000" pt_clust_7="13000.00000" pt_clust_8="13000.00000" pt_clust_9="13000.00000"></scales>
<clustering>
<clus scale="   71.783">  7  8 -1 -1</clus>
<clus scale="   40.323">  7  9 -1 -1</clus>
<clus scale="   86.765">  5  6 -1 -1</clus>
<clus scale="  118.336">  1  5  2 -1</clus>
<clus scale="  180.114">  2  5  1 -1</clus>
</clustering>
</event>
<event>
 9    1  0.3312826E-006  0.3786821E+03  0.7546771E-02  0.1081014E+00
         21   -1    0    0  501  502  0.00000000000E+00  0.00000000000E+00  0.50594122450E+03  0.50594122450E+03  0.00000000000E+00 0. -1.
          1   -1    0    0  502    0 -0.00000000000E+00 -0.00000000000E+00 -0.14982626465E+03  0.14982626465E+03  0.00000000000E+00 0. -1.
         23    2    1    2    0    0  0.11724498838E+03 -0.76421994779E+02  0.15063788292E+03  0.22493000410E+03  0.91186766522E+02 0.  0.
         23    2    1    2    0    0  0.51078697526E+02  0.12720263323E+03  0.93317799016E+01  0.16742808121E+03  0.95684570446E+02 0.  0.
        -13    1    3    3    0    0 -0.52091546823E+00 -0.31941038516E+02  0.65741580651E+02  0.73092111208E+02  0.00000000000E+00 0.  1.
         13    1    3    3    0    0  0.11776590385E+03 -0.44480956263E+02  0.84896302264E+02  0.15183789289E+03  0.00000000000E+00 0. -1.
        -13    1    4    4    0    0 -0.18823761865E+02  0.37260961251E+02  0.30325629911E+02  0.51598033622E+02  0.00000000000E+00 0.  1.
         13    1    4    4    0    0  0.69902459391E+02  0.89941671977E+02 -0.20993850009E+02  0.11583004759E+03  0.00000000000E+00 0. -1.
          1    1    1    2  501    0 -0.16832368591E+03 -0.50780638449E+02  0.19614529703E+03  0.26340940383E+03  0.00000000000E+00 0. -1.
<scales pt_clust_5="13000.00000" pt_clust_6="13000.00000" pt_clust_7="13000.00000" pt_clust_8="13000.00000" pt_clust_9="13000.00000"></scales>
<clustering>
<clus scale="   91.187">  5  6 -1 -1</clus>
<clus scale="   95.685">  7  8 -1 -1</clus>
<clus scale="  167.038">  2  5  1 -1</clus>
<clus scale="  152.290">  7  9 -1 -1</clus>
<clus scale="  378.682">  1  5  2 -1</clus>
</clustering>
</event>
<event>
 9    1  0.3312826E-006  0.1994748E+03  0.7546771E-02  0.1180821E+00
         21   -1    0    0  501  502  0.00000000000E+00  0.00000000000E+00  0.48375520162E+02  0.48375520162E+02  0.00000000000E+00 0. -1.
         -3   -1    0    0    0  501 -0.00000000000E+00 -0.00000000000E+00 -0.45897518233E+03  0.45897518233E+03  0.00000000000E+00 0.  1.
         23    2    1    2    0    0  0.78170966013E+00 -0.31016730451E+02 -0.14255258897E+03  0.17322582311E+03  0.93398589557E+02 0.  0.
         23    2    1    2    0    0  0.60180796648E+02  0.64419687421E+02 -0.19107390295E+03  0.23040866248E+03  0.93847168029E+02 0.  0.
        -11    1    3    3    0    0  0.14538993653E+02  0.18237961751E+02 -0.17104158834E+01  0.23386558271E+02  0.00000000000E+00 0.  1.
         11    1    3    3    0    0 -0.13757283992E+02 -0.49254692203E+02 -0.14084217309E+03  0.14983926484E+03  0.00000000000E+00 0. -1.
        -13    1    4    4    0    0  0.27662931404E+02 -0.65497382531E-01 -0.16818779049E+01  0.27714089865E+02  0.00000000000E+00 0. -1.
         13    1    4    4    0    0  0.32517865244E+02  0.64485184803E+02 -0.18939202504E+03  0.20269457262E+03  0.00000000000E+00 0.  1.
         -3    1    1    2    0  502 -0.60962506308E+02 -0.33402956969E+02 -0.76973170246E+02  0.10371621690E+03  0.00000000000E+00 0.  1.
<scales pt_clust_5="13000.00000" pt_clust_6="13000.00000" pt_clust_7="13000.00000" pt_clust_8="13000.00000" pt_clust_9="13000.00000"></scales>
<clustering>
<clus scale="   93.399">  5  6 -1 -1</clus>
<clus scale="   93.847">  7  8 -1 -1</clus>
<clus scale="   69.514">  7  9 -1 -1</clus>
<clus scale="   98.417">  2  5  1 -1</clus>
<clus scale="  199.475">  1  5  2 -1</clus>
</clustering>
</event>
<event>
 9    1  0.3312826E-006  0.3004663E+03  0.7546771E-02  0.1118927E+00
         21   -1    0    0  501  502  0.00000000000E+00  0.00000000000E+00  0.10184189638E+04  0.10184189638E+04  0.00000000000E+00 0. -1.
          4   -1    0    0  502    0 -0.00000000000E+00 -0.00000000000E+00 -0.45446512653E+02  0.45446512653E+02  0.00000000000E+00 0. -1.
         23    2    1    2    0    0 -0.71385950767E+02 -0.51747603542E+02  0.21783137485E+03  0.25114287824E+03  0.88591585266E+02 0.  0.
         23    2    1    2    0    0 -0.30899225283E+02  0.38127721536E+02  0.96457756880E+02  0.14600566150E+03  0.98005454215E+02 0.  0.
        -11    1    4    4    0    0 -0.31152890819E+02  0.69867332414E+02  0.57182661758E+02  0.95508133427E+02  0.00000000000E+00 0.  1.
         11    1    4    4    0    0  0.25366553633E+00 -0.31739610878E+02  0.39275095122E+02  0.50497528075E+02  0.00000000000E+00 0. -1.
        -13    1    3    3    0    0  0.95570066724E+01 -0.32228536603E+02  0.10929502866E+03  0.11434779507E+03  0.00000000000E+00 0.  1.
         13    1    3    3    0    0 -0.80942957440E+02 -0.19519066939E+02  0.10853634619E+03  0.13679508316E+03  0.00000000000E+00 0. -1.
          4    1    1    2  501    0  0.10228517605E+03  0.13619882006E+02  0.65868331940E+03  0.66671693670E+03  0.00000000000E+00 0. -1.
<scales pt_clust_5="13000.00000" pt_clust_6="13000.00000" pt_clust_7="13000.00000" pt_clust_8="13000.00000" pt_clust_9="13000.00000"></scales>
<clustering>
<clus scale="   88.592">  7  8 -1 -1</clus>
<clus scale="   98.005">  5  6 -1 -1</clus>
<clus scale="  103.188">  5  9 -1 -1</clus>
<clus scale="  124.989">  2  7  1 -1</clus>
<clus scale="  300.466">  1  5  2 -1</clus>
</clustering>
</event>
<event>
 9    1  0.3312826E-006  0.1569768E+03  0.7546771E-02  0.1210941E+00
         21   -1    0    0  501  502  0.00000000000E+00  0.00000000000E+00  0.34598967937E+03  0.34598967937E+03  0.00000000000E+00 0. -1.
          3   -1    0    0  502    0 -0.00000000000E+00 -0.00000000000E+00 -0.92853763438E+02  0.92853763438E+02  0.00000000000E+00 0. -1.
         23    2    1    2    0    0  0.93442266955E+01  0.53639786577E+02 -0.35439699433E+02  0.11033528873E+03  0.89181625721E+02 0.  0.
         23    2    1    2    0    0 -0.18384838327E+02 -0.11332332104E+02  0.94338994540E+02  0.12951187715E+03  0.86064257395E+02 0.  0.
        -11    1    4    4    0    0 -0.40681044849E+02 -0.16180999300E+02  0.97113899417E+02  0.10652643619E+03  0.00000000000E+00 0.  1.
         11    1    4    4    0    0  0.22296206522E+02  0.48486671956E+01 -0.27749048768E+01  0.22985440956E+02  0.00000000000E+00 0. -1.
        -13    1    3    3    0    0  0.12547421578E+02  0.24807876553E+02  0.28689836566E+02  0.39949658941E+02  0.00000000000E+00 0.  1.
         13    1    3    3    0    0 -0.32031948822E+01  0.28831910024E+02 -0.64129535999E+02  0.70385629787E+02  0.00000000000E+00 0. -1.
          3    1    1    2  501    0  0.90406116311E+01 -0.42307454473E+02  0.19423662082E+03  0.19899627693E+03  0.00000000000E+00 0. -1.
<scales pt_clust_5="13000.00000" pt_clust_6="13000.00000" pt_clust_7="13000.00000" pt_clust_8="13000.00000" pt_clust_9="13000.00000"></scales>
<clustering>
<clus scale="   86.064">  5  6 -1 -1</clus>
<clus scale="   43.263">  5  9 -1 -1</clus>
<clus scale="   89.182">  7  8 -1 -1</clus>
<clus scale="  104.489">  2  7  1 -1</clus>
<clus scale="  156.977">  1  5  2 -1</clus>
</clustering>
</event>
<event>
 9    1  0.3312826E-006  0.4316125E+03  0.7546771E-02  0.1060727E+00
          2   -1    0    0  502    0 -0.00000000000E+00  0.00000000000E+00  0.24179103094E+04  0.24179103094E+04  0.00000000000E+00 0. -1.
         21   -1    0    0  501  502  0.00000000000E+00 -0.00000000000E+00 -0.40836096402E+02  0.40836096402E+02  0.00000000000E+00 0. -1.
         23    2    1    2    0    0 -0.16186039351E+03 -0.67587575694E+02  0.76603949414E+03  0.79089681508E+03  0.89075238616E+02 0.  0.
         23    2    1    2    0    0 -0.23199850813E+02 -0.77454020038E+02  0.13544804380E+03  0.17364733062E+03  0.72593832816E+02 0.  0.
        -11    1    3    3    0    0 -0.56698549902E+02  0.17118574859E+02  0.17967764444E+03  0.18918728043E+03  0.00000000000E+00 0.  1.
         11    1    3    3    0    0 -0.10516184361E+03 -0.84706150553E+02  0.58636184971E+03  0.60170953465E+03  0.00000000000E+00 0. -1.
        -13    1    4    4    0    0 -0.28042924073E+01 -0.85883611224E+02  0.11502963100E+03  0.14358159611E+03  0.00000000000E+00 0. -1.
         13    1    4    4    0    0 -0.20395558406E+02  0.84295911856E+01  0.20418412797E+02  0.30065734506E+02  0.00000000000E+00 0.  1.
          2    1    1    2  501    0  0.18506024432E+03  0.14504159573E+03  0.14755866751E+04  0.14942022601E+04  0.00000000000E+00 0. -1.
<scales pt_clust_5="13000.00000" pt_clust_6="13000.00000" pt_clust_7="13000.00000" pt_clust_8="13000.00000" pt_clust_9="13000.00000"></scales>
<clustering>
<clus scale="   72.594">  7  8 -1 -1</clus>
<clus scale="   89.075">  5  6 -1 -1</clus>
<clus scale="  196.726">  1  5  2 -1</clus>
<clus scale="   92.227">  7  9 -1 -1</clus>
<clus scale="  431.613">  2  5  1 -1</clus>
</clustering>
</event>
<event>
 9    1  0.3312826E-006  0.3191863E+03  0.7546771E-02  0.1110422E+00
         21   -1    0    0  501  502  0.00000000000E+00  0.00000000000E+00  0.19795850991E+03  0.19795850991E+03  0.00000000000E+00 0.  1.
          2   -1    0    0  502    0 -0.00000000000E+00 -0.00000000000E+00 -0.34503839583E+03  0.34503839583E+03  0.00000000000E+00 0. -1.
         23    2    1    2    0    0  0.19272558686E+02 -0.89226152716E+02  0.79345848891E+02  0.15165496295E+03  0.91491672875E+02 0.  0.
         23    2    1    2    0    0 -0.38743743040E+02 -0.46621898221E+02 -0.23196730042E+03  0.25399373961E+03  0.83840994042E+02 0.  0.
        -11    1    3    3    0    0 -0.25319183122E+02 -0.51387414203E+02  0.73051894184E+02  0.92834835145E+02  0.00000000000E+00 0.  1.
         11    1    3    3    0    0  0.44591741807E+02 -0.37838738512E+02  0.62939547068E+01  0.58820127809E+02  0.00000000000E+00 0. -1.
        -11    1    4    4    0    0  0.18699832142E+02 -0.31650335116E+02 -0.46609453889E+02  0.59362181790E+02  0.00000000000E+00 0. -1.
         11    1    4    4    0    0 -0.57443575181E+02 -0.14971563105E+02 -0.18535784653E+03  0.19463155782E+03  0.00000000000E+00 0.  1.
          2    1    1    2  501    0  0.19471184354E+02  0.13584805094E+03  0.55415656074E+01  0.13734820317E+03  0.00000000000E+00 0. -1.
<scales pt_clust_5="13000.00000" pt_clust_6="13000.00000" pt_clust_7="13000.00000" pt_clust_8="13000.00000" pt_clust_9="13000.00000"></scales>
<clustering>
<clus scale="   83.841">  7  8 -1 -1</clus>
<clus scale="   91.492">  5  6 -1 -1</clus>
<clus scale="  129.242">  2  5  1 -1</clus>
<clus scale="  119.168">  7  9 -1 -1</clus>
<clus scale="  319.186">  1  5  2 -1</clus>
</clustering>
</event>
<event>
 9    1  0.3312826E-006  0.2832224E+03  0.7546771E-02  0.1133496E+00
         21   -1    0    0  501  502  0.00000000000E+00  0.00000000000E+00  0.37992993535E+02  0.37992993535E+02  0.00000000000E+00 0.  1.
          1   -1    0    0  502    0 -0.00000000000E+00 -0.00000000000E+00 -0.10135113930E+04  0.10135113930E+04  0.00000000000E+00 0. -1.
         23    2    1    2    0    0 -0.39452515738E+02  0.26371314857E+02 -0.34357153720E+03  0.35899319662E+03  0.92643223171E+02 0.  0.
         23    2    1    2    0    0 -0.10122237177E+03 -0.38010932939E+02 -0.31663610069E+03  0.34704660265E+03  0.92152724230E+02 0.  0.
        -11    1    3    3    0    0 -0.33414761024E+02 -0.25711729260E+02 -0.23092081906E+03  0.23473828821E+03  0.00000000000E+00 0.  1.
         11    1    3    3    0    0 -0.60377547145E+01  0.52083044118E+02 -0.11265071814E+03  0.12425490841E+03  0.00000000000E+00 0. -1.
        -13    1    4    4    0    0 -0.21119102763E+02  0.23831180083E+02 -0.13905976540E+03  0.14265889386E+03  0.00000000000E+00 0. -1.
         13    1    4    4    0    0 -0.80103269009E+02 -0.61842113022E+02 -0.17757633529E+03  0.20438770879E+03  0.00000000000E+00 0.  1.
          1    1    1    2  501    0  0.14067488751E+03  0.11639618081E+02 -0.31531076154E+03  0.34546458723E+03  0.00000000000E+00 0. -1.
<scales pt_clust_5="13000.00000" pt_clust_6="13000.00000" pt_clust_7="13000.00000" pt_clust_8="13000.00000" pt_clust_9="13000.00000"></scales>
<clustering>
<clus scale="   92.153">  7  8 -1 -1</clus>
<clus scale="   92.643">  5  6 -1 -1</clus>
<clus scale="  104.090">  2  5  1 -1</clus>
<clus scale="  123.507">  7  9 -1 -1</clus>
<clus scale="  283.222">  1  5  2 -1</clus>
</clustering>
</event>
<event>
 9    1  0.3312826E-006  0.7004445E+03  0.7546771E-02  0.1015947E+00
         21   -1    0    0  501  502  0.00000000000E+00  0.00000000000E+00  0.55704590366E+03  0.55704590366E+03  0.00000000000E+00 0.  1.
         -3   -1    0    0    0  501 -0.00000000000E+00 -0.00000000000E+00 -0.34163394101E+03  0.34163394101E+03  0.00000000000E+00 0.  1.
         23    2    1    2    0    0 -0.94133890059E+02  0.10808076564E+03  0.19262612367E+02  0.17128924324E+03  0.91794964224E+02 0.  0.
         23    2    1    2    0    0  0.76909892326E+02  0.14108404420E+03 -0.19139893068E+03  0.26633373006E+03  0.92088359943E+02 0.  0.
        -11    1    4    4    0    0  0.87633061237E+02  0.10627167258E+03 -0.10703344829E+03  0.17444019281E+03  0.00000000000E+00 0.  1.
         11    1    4    4    0    0 -0.10723168912E+02  0.34812371616E+02 -0.84365482391E+02  0.91893537248E+02  0.00000000000E+00 0. -1.
        -13    1    3    3    0    0 -0.20123138883E+02  0.29693856369E+02  0.47807760516E+02  0.59768284149E+02  0.00000000000E+00 0. -1.
         13    1    3    3    0    0 -0.74010751176E+02  0.78386909268E+02 -0.28545148149E+02  0.11152095909E+03  0.00000000000E+00 0.  1.
         -3    1    1    2    0  502  0.17223997733E+02 -0.24916480984E+03  0.38754828097E+03  0.46105687137E+03  0.00000000000E+00 0.  1.
<scales pt_clust_5="13000.00000" pt_clust_6="13000.00000" pt_clust_7="13000.00000" pt_clust_8="13000.00000" pt_clust_9="13000.00000"></scales>
<clustering>
<clus scale="   91.795">  7  8 -1 -1</clus>
<clus scale="   92.088">  5  6 -1 -1</clus>
<clus scale="  170.203">  2  7  1 -1</clus>
<clus scale="  234.247">  5  9 -1 -1</clus>
<clus scale="  700.445">  1  5  2 -1</clus>
</clustering>
</event>
<event>
 9    1  0.3876103E-006  0.2863243E+03  0.7546771E-02  0.1111433E+00
         21   -1    0    0  501  502  0.00000000000E+00  0.00000000000E+00  0.86148079412E+02  0.86148079412E+02  0.00000000000E+00 0.  1.
          4   -1    0    0  502    0 -0.00000000000E+00 -0.00000000000E+00 -0.72502538165E+03  0.72502538165E+03  0.00000000000E+00 0. -1.
         23    2    1    2    0    0 -0.15048536483E+03 -0.91523656566E+01 -0.10044490719E+03  0.20134476596E+03  0.87868791807E+02 0.  0.
         23    2    1    2    0    0 -0.99622677917E+01 -0.20218879083E+02 -0.34196073362E+03  0.35447163807E+03  0.90581173575E+02 0.  0.
        -11    1    4    4    0    0 -0.35341406628E+02  0.22953758867E+02 -0.12931073495E+03  0.13600425083E+03  0.00000000000E+00 0.  1.
         11    1    4    4    0    0  0.25379138837E+02 -0.43172637950E+02 -0.21264999867E+03  0.21846738725E+03  0.00000000000E+00 0. -1.
        -13    1    3    3    0    0 -0.14468391600E+03  0.18561852363E+02 -0.88470861783E+02  0.17060208468E+03  0.00000000000E+00 0.  1.
         13    1    3    3    0    0 -0.58014488327E+01 -0.27714218020E+02 -0.11974045403E+02  0.30742681280E+02  0.00000000000E+00 0. -1.
          4    1    1    2  501    0  0.16044763262E+03  0.29371244739E+02 -0.19647166142E+03  0.25535705703E+03  0.00000000000E+00 0. -1.
<scales pt_clust_5="13000.00000" pt_clust_6="13000.00000" pt_clust_7="13000.00000" pt_clust_8="13000.00000" pt_clust_9="13000.00000"></scales>
<clustering>
<clus scale="   87.869">  7  8 -1 -1</clus>
<clus scale="   90.581">  5  6 -1 -1</clus>
<clus scale="  163.114">  5  9 -1 -1</clus>
<clus scale="  174.501">  2  7  1 -1</clus>
<clus scale="  286.324">  1  5  2 -1</clus>
</clustering>
</event>
<event>
 9    1  0.3312826E-006  0.1564867E+03  0.7546771E-02  0.1215581E+00
         21   -1    0    0  501  502  0.00000000000E+00  0.00000000000E+00  0.16126867625E+03  0.16126867625E+03  0.00000000000E+00 0. -1.
         -1   -1    0    0    0  501 -0.00000000000E+00 -0.00000000000E+00 -0.10287231964E+03  0.10287231964E+03  0.00000000000E+00 0.  1.
         23    2    1    2    0    0 -0.24790906265E+02 -0.14054636420E+02 -0.40294120814E+01  0.95662280888E+02  0.91230005945E+02 0.  0.
         23    2    1    2    0    0  0.40607239995E+02  0.44490204998E+02  0.13886772683E+02  0.10904375575E+03  0.89829682913E+02 0.  0.
        -11    1    4    4    0    0  0.40014366155E+02 -0.19256183339E+02  0.57773453605E+01  0.44780886715E+02  0.00000000000E+00 0.  1.
         11    1    4    4    0    0  0.59287384037E+00  0.63746388337E+02  0.81094273221E+01  0.64262869037E+02  0.00000000000E+00 0. -1.
        -13    1    3    3    0    0 -0.40302080202E+02 -0.39128346773E+02 -0.22895927964E+02  0.60658954056E+02  0.00000000000E+00 0.  1.
         13    1    3    3    0    0  0.15511173938E+02  0.25073710353E+02  0.18866515882E+02  0.35003326832E+02  0.00000000000E+00 0. -1.
         -1    1    1    2    0  502 -0.15816333731E+02 -0.30435568578E+02  0.48538996008E+02  0.59434959248E+02  0.00000000000E+00 0.  1.
<scales pt_clust_5="13000.00000" pt_clust_6="13000.00000" pt_clust_7="13000.00000" pt_clust_8="13000.00000" pt_clust_9="13000.00000"></scales>
<clustering>
<clus scale="   89.830">  5  6 -1 -1</clus>
<clus scale="   34.300">  5  9 -1 -1</clus>
<clus scale="   91.230">  7  8 -1 -1</clus>
<clus scale="   95.577">  2  7  1 -1</clus>
<clus scale="  156.487">  1  5  2 -1</clus>
</clustering>
</event>
<event>
 9    1  0.3312826E-006  0.5272365E+03  0.7546771E-02  0.1049832E+00
         21   -1    0    0  501  502  0.00000000000E+00  0.00000000000E+00  0.25358633999E+03  0.25358633999E+03  0.00000000000E+00 0. -1.
          2   -1    0    0  502    0 -0.00000000000E+00 -0.00000000000E+00 -0.63373244117E+03  0.63373244117E+03  0.00000000000E+00 0. -1.
         23    2    1    2    0    0  0.50974366011E+02 -0.10247912923E+03 -0.32572444780E+03  0.35728097714E+03  0.91939778205E+02 0.  0.
         23    2    1    2    0    0 -0.33848862550E+02  0.16522479312E+03 -0.25492175254E+03  0.31925215231E+03  0.92151283683E+02 0.  0.
        -13    1    4    4    0    0 -0.62551878054E+01  0.52812474237E+02 -0.16295930595E+03  0.17141767763E+03  0.00000000000E+00 0. -1.
         13    1    4    4    0    0 -0.27593674745E+02  0.11241231888E+03 -0.91962446584E+02  0.14783447468E+03  0.00000000000E+00 0.  1.
        -13    1    3    3    0    0  0.37668209875E+02 -0.11939066976E+03 -0.28245365943E+03  0.30895484425E+03  0.00000000000E+00 0. -1.
         13    1    3    3    0    0  0.13306156135E+02  0.16911540530E+02 -0.43270788371E+02  0.48326132893E+02  0.00000000000E+00 0.  1.
          2    1    1    2  501    0 -0.17125503461E+02 -0.62745663886E+02  0.20050009916E+03  0.21078565171E+03  0.00000000000E+00 0. -1.
<scales pt_clust_5="13000.00000" pt_clust_6="13000.00000" pt_clust_7="13000.00000" pt_clust_8="13000.00000" pt_clust_9="13000.00000"></scales>
<clustering>
<clus scale="   91.940">  7  8 -1 -1</clus>
<clus scale="   92.151">  5  6 -1 -1</clus>
<clus scale="   65.041">  5  9 -1 -1</clus>
<clus scale="  146.810">  2  7  1 -1</clus>
<clus scale="  527.237">  1  5  2 -1</clus>
</clustering>
</event>
<event>
 9    1  0.3312826E-006  0.1323163E+03  0.7546771E-02  0.1237951E+00
         21   -1    0    0  501  502  0.00000000000E+00  0.00000000000E+00  0.25491562548E+03  0.25491562548E+03  0.00000000000E+00 0. -1.
          2   -1    0    0  502    0 -0.00000000000E+00 -0.00000000000E+00 -0.13183181951E+03  0.13183181951E+03  0.00000000000E+00 0. -1.
         23    2    1    2    0    0 -0.43008633425E+01  0.43389728547E+02 -0.91219430699E+02  0.13488742437E+03  0.89288670883E+02 0.  0.
         23    2    1    2    0    0 -0.97864520239E+01 -0.34687639574E+01  0.77334587427E+02  0.10849842624E+03  0.75388746628E+02 0.  0.
        -11    1    3    3    0    0  0.22837319298E+02  0.81235602912E+01  0.85027225171E+01  0.25687188922E+02  0.00000000000E+00 0.  1.
         11    1    3    3    0    0 -0.27138182640E+02  0.35266168256E+02 -0.99722153216E+02  0.10920023545E+03  0.00000000000E+00 0. -1.
        -13    1    4    4    0    0 -0.49977695317E+00  0.35454432923E+02  0.29435048051E+02  0.46083496445E+02  0.00000000000E+00 0.  1.
         13    1    4    4    0    0 -0.92866750707E+01 -0.38923196880E+02  0.47899539377E+02  0.62414929798E+02  0.00000000000E+00 0. -1.
          2    1    1    2  501    0  0.14087315366E+02 -0.39920964590E+02  0.13696864924E+03  0.14336159438E+03  0.00000000000E+00 0. -1.
<scales pt_clust_5="13000.00000" pt_clust_6="13000.00000" pt_clust_7="13000.00000" pt_clust_8="13000.00000" pt_clust_9="13000.00000"></scales>
<clustering>
<clus scale="   75.389">  7  8 -1 -1</clus>
<clus scale="   42.334">  7  9 -1 -1</clus>
<clus scale="   89.289">  5  6 -1 -1</clus>
<clus scale="   99.366">  2  5  1 -1</clus>
<clus scale="  132.316">  1  5  2 -1</clus>
</clustering>
</event>
<event>
 9    1  0.3312826E-006  0.1969068E+03  0.7546771E-02  0.1168818E+00
         -1   -1    0    0    0  501 -0.00000000000E+00  0.00000000000E+00  0.20233237750E+03  0.20233237750E+03  0.00000000000E+00 0.  1.
         21   -1    0    0  501  502  0.00000000000E+00 -0.00000000000E+00 -0.24198313500E+03  0.24198313500E+03  0.00000000000E+00 0.  1.
         23    2    1    2    0    0  0.17945513164E+02  0.92288829781E+02 -0.16356798486E+03  0.21166173491E+03  0.95952773840E+02 0.  0.
         23    2    1    2    0    0 -0.20735038639E+02 -0.50978687745E+02  0.14959102570E+03  0.18393567821E+03  0.91793737893E+02 0.  0.
        -11    1    3    3    0    0  0.71674526647E+01  0.11179417785E+03 -0.13799540967E+03  0.17774150801E+03  0.00000000000E+00 0.  1.
         11    1    3    3    0    0  0.10778060499E+02 -0.19505348064E+02 -0.25572575192E+02  0.33920226903E+02  0.00000000000E+00 0. -1.
        -11    1    4    4    0    0 -0.53418330135E+02 -0.27493730270E+02  0.11926763438E+03  0.13354471838E+03  0.00000000000E+00 0.  1.
         11    1    4    4    0    0  0.32683291496E+02 -0.23484957475E+02  0.30323391323E+02  0.50390959824E+02  0.00000000000E+00 0. -1.
         -1    1    1    2    0  502  0.27895254757E+01 -0.41310142036E+02 -0.25673798336E+02  0.48718099392E+02  0.00000000000E+00 0.  1.
<scales pt_clust_5="13000.00000" pt_clust_6="13000.00000" pt_clust_7="13000.00000" pt_clust_8="13000.00000" pt_clust_9="13000.00000"></scales>
<clustering>
<clus scale="   91.794">  7  8 -1 -1</clus>
<clus scale="   41.404">  7  9 -1 -1</clus>
<clus scale="   95.953">  5  6 -1 -1</clus>
<clus scale="  134.336">  1  5  2 -1</clus>
<clus scale="  196.907">  2  5  1 -1</clus>
</clustering>
</event>
<event>
 9    1  0.3312826E-006  0.5978209E+03  0.7546771E-02  0.1022667E+00
          1   -1    0    0  502    0 -0.00000000000E+00  0.00000000000E+00  0.12912505610E+04  0.12912505610E+04  0.00000000000E+00 0. -1.
         21   -1    0    0  501  502  0.00000000000E+00 -0.00000000000E+00 -0.13103803481E+03  0.13103803481E+03  0.00000000000E+00 0.  1.
         23    2    1    2    0    0  0.89624947003E+02 -0.18400750154E+03  0.27755970766E+03  0.35623709887E+03  0.89297746605E+02 0.  0.
         23    2    1    2    0    0 -0.24949907976E+03  0.29879006896E+03  0.56050636567E+03  0.68854240671E+03  0.91640404706E+02 0.  0.
        -11    1    4    4    0    0 -0.20839155736E+03  0.20684265124E+03  0.36340153732E+03  0.46719546324E+03  0.00000000000E+00 0.  1.
         11    1    4    4    0    0 -0.41107522403E+02  0.91947417723E+02  0.19710482835E+03  0.22134694347E+03  0.00000000000E+00 0. -1.
        -13    1    3    3    0    0  0.39421531232E+02 -0.12191035017E+03  0.10340230587E+03  0.16464576357E+03  0.00000000000E+00 0.  1.
         13    1    3    3    0    0  0.50203415771E+02 -0.62097151369E+02  0.17415740180E+03  0.19159133531E+03  0.00000000000E+00 0. -1.
          1    1    1    2  501    0  0.15987413276E+03 -0.11478256743E+03  0.32214645282E+03  0.37750909019E+03  0.00000000000E+00 0. -1.
<scales pt_clust_5="13000.00000" pt_clust_6="13000.00000" pt_clust_7="13000.00000" pt_clust_8="13000.00000" pt_clust_9="13000.00000"></scales>
<clustering>
<clus scale="   89.298">  7  8 -1 -1</clus>
<clus scale="   91.640">  5  6 -1 -1</clus>
<clus scale="  196.812">  5  9 -1 -1</clus>
<clus scale="  223.306">  1  7  2 -1</clus>
<clus scale="  597.821">  2  5  1 -1</clus>
</clustering>
</event>
<event>
 9    1  0.3312826E-006  0.9038370E+03  0.7546771E-02  0.1008516E+00
         21   -1    0    0  501  502  0.00000000000E+00  0.00000000000E+00  0.26072309850E+03  0.26072309850E+03  0.00000000000E+00 0. -1.
          1   -1    0    0  502    0 -0.00000000000E+00 -0.00000000000E+00 -0.12197960028E+04  0.12197960028E+04  0.00000000000E+00 0. -1.
         23    2    1    2    0    0  0.34204721313E+02  0.15247293345E+02 -0.41234071472E+03  0.42418701851E+03  0.92235127518E+02 0.  0.
         23    2    1    2    0    0 -0.52442924260E+02 -0.11488903813E+03 -0.78394432877E+03  0.79839660954E+03  0.83178627870E+02 0.  0.
        -11    1    4    4    0    0 -0.19334206003E+02  0.77372817701E+01 -0.63112302515E+02  0.66459309202E+02  0.00000000000E+00 0.  1.
         11    1    4    4    0    0 -0.33108718257E+02 -0.12262631990E+03 -0.72083202625E+03  0.73193730034E+03  0.00000000000E+00 0. -1.
        -13    1    3    3    0    0  0.62659471388E+02 -0.74980227396E+01 -0.26471450074E+03  0.27213268198E+03  0.00000000000E+00 0. -1.
         13    1    3    3    0    0 -0.28454750075E+02  0.22745316084E+02 -0.14762621398E+03  0.15205433653E+03  0.00000000000E+00 0.  1.
          1    1    1    2  501    0  0.18238202947E+02  0.99641744786E+02  0.23721213922E+03  0.25793547322E+03  0.00000000000E+00 0. -1.
<scales pt_clust_5="13000.00000" pt_clust_6="13000.00000" pt_clust_7="13000.00000" pt_clust_8="13000.00000" pt_clust_9="13000.00000"></scales>
<clustering>
<clus scale="   83.179">  5  6 -1 -1</clus>
<clus scale="   92.235">  7  8 -1 -1</clus>
<clus scale="   99.548">  2  7  1 -1</clus>
<clus scale="  101.571">  5  9 -1 -1</clus>
<clus scale="  903.837">  1  5  2 -1</clus>
</clustering>
</event>
<event>
 9    1  0.3312826E-006  0.2158705E+03  0.7546771E-02  0.1154267E+00
          3   -1    0    0  502    0 -0.00000000000E+00  0.00000000000E+00  0.53366275906E+03  0.53366275906E+03  0.00000000000E+00 0. -1.
         21   -1    0    0  501  502  0.00000000000E+00 -0.00000000000E+00 -0.66197617595E+02  0.66197617595E+02  0.00000000000E+00 0. -1.
         23    2    1    2    0    0  0.91897196864E+02  0.62964094706E+02  0.10267762854E+03  0.17598539467E+03  0.89546589671E+02 0.  0.
         23    2    1    2    0    0  0.19248855312E+02 -0.18785237530E+02  0.16048271650E+03  0.18713532291E+03  0.92420361427E+02 0.  0.
        -11    1    3    3    0    0  0.22614465567E+02  0.66069727480E+02  0.71509779055E+02  0.99951345377E+02  0.00000000000E+00 0. -1.
         11    1    3    3    0    0  0.69282731296E+02 -0.31056327741E+01  0.31167849490E+02  0.76034049298E+02  0.00000000000E+00 0.  1.
        -13    1    4    4    0    0 -0.82694633527E+01 -0.31997898598E+02  0.15186041239E+03  0.15541503914E+03  0.00000000000E+00 0. -1.
         13    1    4    4    0    0  0.27518318664E+02  0.13212661068E+02  0.86223041105E+01  0.31720283775E+02  0.00000000000E+00 0.  1.
          3    1    1    2  501    0 -0.11114605218E+03 -0.44178857176E+02  0.20430479642E+03  0.23673965907E+03  0.00000000000E+00 0. -1.
<scales pt_clust_5="13000.00000" pt_clust_6="13000.00000" pt_clust_7="13000.00000" pt_clust_8="13000.00000" pt_clust_9="13000.00000"></scales>
<clustering>
<clus scale="   89.547">  5  6 -1 -1</clus>
<clus scale="   92.420">  7  8 -1 -1</clus>
<clus scale="  119.604">  7  9 -1 -1</clus>
<clus scale="  142.927">  1  5  2 -1</clus>
<clus scale="  215.870">  2  5  1 -1</clus>
</clustering>
</event>
<event>
 9    1  0.3312826E-006  0.2199315E+03  0.7546771E-02  0.1168985E+00
         21   -1    0    0  501  502  0.00000000000E+00  0.00000000000E+00  0.14642477633E+03  0.14642477633E+03  0.00000000000E+00 0.  1.
         -3   -1    0    0    0  501 -0.00000000000E+00 -0.00000000000E+00 -0.24403557393E+03  0.24403557393E+03  0.00000000000E+00 0.  1.
         23    2    1    2    0    0  0.14772326406E+02 -0.23987905634E+02 -0.13671718216E+03  0.16707909058E+03  0.91816084479E+02 0.  0.
         23    2    1    2    0    0 -0.35274912002E+02 -0.65865020132E+02  0.55931041803E+02  0.12969575719E+03  0.90056580556E+02 0.  0.
        -11    1    3    3    0    0 -0.25900282084E+01  0.30718681292E+02 -0.19262607086E+02  0.36350978779E+02  0.00000000000E+00 0. -1.
         11    1    3    3    0    0  0.17362354615E+02 -0.54706586926E+02 -0.11745457507E+03  0.13072811181E+03  0.00000000000E+00 0.  1.
        -11    1    4    4    0    0 -0.49652696090E+02 -0.16181640384E+00  0.21047434781E+02  0.53929685002E+02  0.00000000000E+00 0. -1.
         11    1    4    4    0    0  0.14377784088E+02 -0.65703203728E+02  0.34883607022E+02  0.75766072185E+02  0.00000000000E+00 0.  1.
         -3    1    1    2    0  502  0.20502585595E+02  0.89852925766E+02 -0.16824657251E+02  0.93685502488E+02  0.00000000000E+00 0.  1.
<scales pt_clust_5="13000.00000" pt_clust_6="13000.00000" pt_clust_7="13000.00000" pt_clust_8="13000.00000" pt_clust_9="13000.00000"></scales>
<clustering>
<clus scale="   90.057">  7  8 -1 -1</clus>
<clus scale="   91.816">  5  6 -1 -1</clus>
<clus scale="   92.162">  7  9 -1 -1</clus>
<clus scale="   96.041">  2  5  1 -1</clus>
<clus scale="  219.932">  1  5  2 -1</clus>
</clustering>
</event>
<event>
 9    1  0.3312826E-006  0.4110091E+03  0.7546771E-02  0.1085693E+00
         -4   -1    0    0    0  501 -0.00000000000E+00  0.00000000000E+00  0.59957455863E+03  0.59957455863E+03  0.00000000000E+00 0.  1.
         21   -1    0    0  501  502  0.00000000000E+00 -0.00000000000E+00 -0.11631607001E+03  0.11631607001E+03  0.00000000000E+00 0.  1.
         23    2    1    2    0    0  0.70524767112E+02  0.19548410316E+02  0.81728011171E+02  0.14129931456E+03  0.89051363627E+02 0.  0.
         23    2    1    2    0    0  0.13117316883E+03 -0.71292116012E+02  0.28555768726E+03  0.33624459918E+03  0.96063893844E+02 0.  0.
        -11    1    3    3    0    0  0.55588872184E+02 -0.17434809615E+02  0.98345901908E+01  0.59083114857E+02  0.00000000000E+00 0.  1.
         11    1    3    3    0    0  0.14935894928E+02  0.36983219932E+02  0.71893420980E+02  0.82216199705E+02  0.00000000000E+00 0. -1.
        -13    1    4    4    0    0  0.12745950248E+03 -0.23592741743E+02  0.21249037892E+03  0.24890701751E+03  0.00000000000E+00 0.  1.
         13    1    4    4    0    0  0.37136663501E+01 -0.47699374270E+02  0.73067308341E+02  0.87337581668E+02  0.00000000000E+00 0. -1.
         -4    1    1    2    0  502 -0.20169793594E+03  0.51743705696E+02  0.11597279019E+03  0.23834671490E+03  0.00000000000E+00 0.  1.
<scales pt_clust_5="13000.00000" pt_clust_6="13000.00000" pt_clust_7="13000.00000" pt_clust_8="13000.00000" pt_clust_9="13000.00000"></scales>
<clustering>
<clus scale="   89.051">  5  6 -1 -1</clus>
<clus scale="   96.064">  7  8 -1 -1</clus>
<clus scale="  115.265">  1  5  2 -1</clus>
<clus scale="  185.668">  7  9 -1 -1</clus>
<clus scale="  411.009">  2  5  1 -1</clus>
</clustering>
</event>
<event>
 9    1  0.3312826E-006  0.4090436E+03  0.7546771E-02  0.1092815E+00
         21   -1    0    0  501  502  0.00000000000E+00  0.00000000000E+00  0.21683175176E+03  0.21683175176E+03  0.00000000000E+00 0.  1.
         -1   -1    0    0    0  501 -0.00000000000E+00 -0.00000000000E+00 -0.35143245098E+03  0.35143245098E+03  0.00000000000E+00 0.  1.
         23    2    1    2    0    0 -0.17919192590E+02 -0.34334047837E+02 -0.12627832972E+03  0.15913590107E+03  0.88758628578E+02 0.  0.
         23    2    1    2    0    0 -0.33611610420E+02  0.44470871292E+02 -0.19089275144E+03  0.21915429500E+03  0.92093233831E+02 0.  0.
        -11    1    4    4    0    0 -0.27201160205E+00 -0.27911146349E+02 -0.46733221103E+02  0.54434364472E+02  0.00000000000E+00 0. -1.
         11    1    4    4    0    0 -0.33339598818E+02  0.72382017641E+02 -0.14415953033E+03  0.16471993053E+03  0.00000000000E+00 0.  1.
        -13    1    3    3    0    0 -0.54006197319E+02 -0.16203781884E+02 -0.76548784084E+02  0.95073383452E+02  0.00000000000E+00 0.  1.
         13    1    3    3    0    0  0.36087004729E+02 -0.18130265953E+02 -0.49729545640E+02  0.64062517616E+02  0.00000000000E+00 0. -1.
         -1    1    1    2    0  502  0.51530803010E+02 -0.10136823455E+02  0.18257038194E+03  0.18997400667E+03  0.00000000000E+00 0.  1.
<scales pt_clust_5="13000.00000" pt_clust_6="13000.00000" pt_clust_7="13000.00000" pt_clust_8="13000.00000" pt_clust_9="13000.00000"></scales>
<clustering>
<clus scale="   88.759">  7  8 -1 -1</clus>
<clus scale="   92.093">  5  6 -1 -1</clus>
<clus scale="   52.518">  5  9 -1 -1</clus>
<clus scale="   96.840">  2  7  1 -1</clus>
<clus scale="  409.044">  1  5  2 -1</clus>
</clustering>
</event>
<event>
 9    1  0.3312826E-006  0.1987382E+03  0.7546771E-02  0.1179320E+00
          3   -1    0    0  502    0 -0.00000000000E+00  0.00000000000E+00  0.27077719371E+02  0.27077719371E+02  0.00000000000E+00 0. -1.
         21   -1    0    0  501  502  0.00000000000E+00 -0.00000000000E+00 -0.85514994257E+03  0.85514994257E+03  0.00000000000E+00 0. -1.
         23    2    1    2    0    0 -0.16159101707E+02 -0.42160829044E+02 -0.22950276257E+03  0.25152784672E+03  0.92499122015E+02 0.  0.
         23    2    1    2    0    0 -0.26571363824E+02  0.91838143612E+02 -0.36545636654E+03  0.38855225091E+03  0.90962705792E+02 0.  0.
        -11    1    4    4    0    0 -0.53685431405E+02  0.30227574468E+02 -0.21643969614E+03  0.22503771654E+03  0.00000000000E+00 0.  1.
         11    1    4    4    0    0  0.27114067581E+02  0.61610569144E+02 -0.14901667040E+03  0.16351453437E+03  0.00000000000E+00 0. -1.
        -11    1    3    3    0    0  0.36241582580E+02 -0.58339639158E+01 -0.11169129332E+03  0.11756884131E+03  0.00000000000E+00 0.  1.
         11    1    3    3    0    0 -0.52400684287E+02 -0.36326865128E+02 -0.11781146925E+03  0.13395900541E+03  0.00000000000E+00 0. -1.
          3    1    1    2  501    0  0.42730465531E+02 -0.49677314568E+02 -0.23311309409E+03  0.24214756431E+03  0.00000000000E+00 0. -1.
<scales pt_clust_5="13000.00000" pt_clust_6="13000.00000" pt_clust_7="13000.00000" pt_clust_8="13000.00000" pt_clust_9="13000.00000"></scales>
<clustering>
<clus scale="   90.963">  5  6 -1 -1</clus>
<clus scale="   65.527">  5  9 -1 -1</clus>
<clus scale="   92.499">  7  8 -1 -1</clus>
<clus scale="  102.931">  1  7  2 -1</clus>
<clus scale="  198.738">  2  5  1 -1</clus>
</clustering>
</event>
<event>
 9    1  0.3312826E-006  0.3854324E+03  0.7546771E-02  0.1054050E+00
          2   -1    0    0  502    0 -0.00000000000E+00  0.00000000000E+00  0.47267594452E+03  0.47267594452E+03  0.00000000000E+00 0. -1.
         21   -1    0    0  501  502  0.00000000000E+00 -0.00000000000E+00 -0.29659363242E+03  0.29659363242E+03  0.00000000000E+00 0. -1.
         23    2    1    2    0    0  0.11129700125E+03  0.29983724278E+03 -0.25528054575E+02  0.33429270366E+03  0.93864452822E+02 0.  0.
         23    2    1    2    0    0 -0.17533643267E+02 -0.57833182142E+02  0.11936983353E+03  0.16272508181E+03  0.92618515912E+02 0.  0.
        -11    1    4    4    0    0  0.20560254340E+02 -0.11859659183E+02 -0.54566702661E+01  0.24354687945E+02  0.00000000000E+00 0.  1.
         11    1    4    4    0    0 -0.38093897607E+02 -0.45973522959E+02  0.12482650380E+03  0.13837039386E+03  0.00000000000E+00 0. -1.
        -13    1    3    3    0    0 -0.11655426160E+01  0.87557121459E+02 -0.33946686950E+02  0.93914778191E+02  0.00000000000E+00 0.  1.
         13    1    3    3    0    0  0.11246254387E+03  0.21228012132E+03  0.84186323749E+01  0.24037792547E+03  0.00000000000E+00 0. -1.
          2    1    1    2  501    0 -0.93763357983E+02 -0.24200406064E+03  0.82240533141E+02  0.27225179147E+03  0.00000000000E+00 0. -1.
<scales pt_clust_5="13000.00000" pt_clust_6="13000.00000" pt_clust_7="13000.00000" pt_clust_8="13000.00000" pt_clust_9="13000.00000"></scales>
<clustering>
<clus scale="   92.619">  5  6 -1 -1</clus>
<clus scale="   93.864">  7  8 -1 -1</clus>
<clus scale="  259.533">  5  9 -1 -1</clus>
<clus scale="  333.317">  1  7  2 -1</clus>
<clus scale="  385.432">  2  5  1 -1</clus>
</clustering>
</event>
<event>
 9    1  0.3312826E-006  0.3210826E+03  0.7546771E-02  0.1093512E+00
         21   -1    0    0  501  502  0.00000000000E+00  0.00000000000E+00  0.30312912859E+03  0.30312912859E+03  0.00000000000E+00 0.  1.
          2   -1    0    0  502    0 -0.00000000000E+00 -0.00000000000E+00 -0.27036349603E+03  0.27036349603E+03  0.00000000000E+00 0.  1.
         23    2    1    2    0    0  0.74902706427E+02  0.15710869561E+03 -0.10641475678E+03  0.22354233352E+03  0.91397575180E+02 0.  0.
         23    2    1    2    0    0  0.59677815923E+02  0.64630804894E+01  0.39903032952E+02  0.11601945426E+03  0.90912312726E+02 0.  0.
        -13    1    4    4    0    0  0.45353679134E+02  0.32845917467E+02  0.58278142550E+02  0.80821732253E+02  0.00000000000E+00 0.  1.
         13    1    4    4    0    0  0.14324136789E+02 -0.26382836978E+02 -0.18375109598E+02  0.35197722007E+02  0.00000000000E+00 0. -1.
        -13    1    3    3    0    0  0.54389894032E+02  0.10657872112E+03 -0.11771228367E+03  0.16784953410E+03  0.00000000000E+00 0.  1.
         13    1    3    3    0    0  0.20512812395E+02  0.50529974490E+02  0.11297526889E+02  0.55692799427E+02  0.00000000000E+00 0. -1.
          2    1    1    2  501    0 -0.13458052235E+03 -0.16357177610E+03  0.99277356383E+02  0.23393083684E+03  0.00000000000E+00 0.  1.
<scales pt_clust_5="13000.00000" pt_clust_6="13000.00000" pt_clust_7="13000.00000" pt_clust_8="13000.00000" pt_clust_9="13000.00000"></scales>
<clustering>
<clus scale="   90.912">  5  6 -1 -1</clus>
<clus scale="   91.398">  7  8 -1 -1</clus>
<clus scale="  196.589">  2  7  1 -1</clus>
<clus scale="  107.313">  5  9 -1 -1</clus>
<clus scale="  321.083">  1  5  2 -1</clus>
</clustering>
</event>
<event>
 9    1  0.3312826E-006  0.1994338E+03  0.7546771E-02  0.1185039E+00
         21   -1    0    0  501  502  0.00000000000E+00  0.00000000000E+00  0.70326962248E+03  0.70326962248E+03  0.00000000000E+00 0.  1.
          2   -1    0    0  502    0 -0.00000000000E+00 -0.00000000000E+00 -0.30884113307E+02  0.30884113307E+02  0.00000000000E+00 0. -1.
         23    2    1    2    0    0 -0.87211650469E+01 -0.39095827146E+01  0.28006410259E+03  0.29405157126E+03  0.89101523233E+02 0.  0.
         23    2    1    2    0    0 -0.50638303479E+02  0.31919251104E+02  0.12219164201E+03  0.16211263643E+03  0.88128503572E+02 0.  0.
        -13    1    3    3    0    0 -0.26167773660E+02 -0.32439532080E+02  0.23064789158E+03  0.23438328761E+03  0.00000000000E+00 0.  1.
         13    1    3    3    0    0  0.17446608613E+02  0.28529949366E+02  0.49416211006E+02  0.59668283645E+02  0.00000000000E+00 0. -1.
        -13    1    4    4    0    0 -0.47011578271E+02  0.60916897655E+02  0.94354280989E+02  0.12175256569E+03  0.00000000000E+00 0. -1.
         13    1    4    4    0    0 -0.36267252084E+01 -0.28997646551E+02  0.27837361026E+02  0.40360070739E+02  0.00000000000E+00 0.  1.
          2    1    1    2  501    0  0.59359468526E+02 -0.28009668389E+02  0.27012976457E+03  0.27798952810E+03  0.00000000000E+00 0. -1.
<scales pt_clust_5="13000.00000" pt_clust_6="13000.00000" pt_clust_7="13000.00000" pt_clust_8="13000.00000" pt_clust_9="13000.00000"></scales>
<clustering>
<clus scale="   88.129">  7  8 -1 -1</clus>
<clus scale="   65.636">  7  9 -1 -1</clus>
<clus scale="   89.102">  5  6 -1 -1</clus>
<clus scale="   89.613">  2  5  1 -1</clus>
<clus scale="  199.434">  1  5  2 -1</clus>
</clustering>
</event>
<event>
 9    1  0.3312826E-006  0.4590809E+03  0.7546771E-02  0.1063143E+00
          2   -1    0    0  502    0 -0.00000000000E+00  0.00000000000E+00  0.80863184374E+03  0.80863184374E+03  0.00000000000E+00 0. -1.
         21   -1    0    0  501  502  0.00000000000E+00 -0.00000000000E+00 -0.12541182624E+03  0.12541182624E+03  0.00000000000E+00 0. -1.
         23    2    1    2    0    0 -0.10786517203E+03 -0.57977425773E+02  0.29737299387E+03  0.33434944908E+03  0.91447139808E+02 0.  0.
         23    2    1    2    0    0  0.68864095141E+02  0.20766284725E+03  0.37557222798E+03  0.44467041361E+03  0.93867761109E+02 0.  0.
        -13    1    4    4    0    0  0.84475522361E+02  0.15595454407E+03  0.23757535273E+03  0.29647931112E+03  0.00000000000E+00 0. -1.
         13    1    4    4    0    0 -0.15611427219E+02  0.51708303179E+02  0.13799687525E+03  0.14819110249E+03  0.00000000000E+00 0.  1.
        -13    1    3    3    0    0 -0.36352947608E+02  0.18665534431E+02  0.43486701712E+02  0.59674384799E+02  0.00000000000E+00 0. -1.
         13    1    3    3    0    0 -0.71512224421E+02 -0.76642960204E+02  0.25388629216E+03  0.27467506428E+03  0.00000000000E+00 0.  1.
          2    1    1    2  501    0  0.39001076888E+02 -0.14968542148E+03  0.10274795646E+02  0.15502380729E+03  0.00000000000E+00 0. -1.
<scales pt_clust_5="13000.00000" pt_clust_6="13000.00000" pt_clust_7="13000.00000" pt_clust_8="13000.00000" pt_clust_9="13000.00000"></scales>
<clustering>
<clus scale="   91.447">  7  8 -1 -1</clus>
<clus scale="   93.868">  5  6 -1 -1</clus>
<clus scale="  152.836">  1  7  2 -1</clus>
<clus scale="  160.775">  5  9 -1 -1</clus>
<clus scale="  459.081">  2  5  1 -1</clus>
</clustering>
</event>
<event>
 9    1  0.3312826E-006  0.1708681E+03  0.7546771E-02  0.1199380E+00
          1   -1    0    0  502    0 -0.00000000000E+00  0.00000000000E+00  0.23673189032E+02  0.23673189032E+02  0.00000000000E+00 0. -1.
         21   -1    0    0  501  502  0.00000000000E+00 -0.00000000000E+00 -0.79818908378E+03  0.79818908378E+03  0.00000000000E+00 0.  1.
         23    2    1    2    0    0 -0.16191924748E+02 -0.38661978758E+02 -0.28048084100E+03  0.29911325360E+03  0.95091057841E+02 0.  0.
         23    2    1    2    0    0 -0.27057865840E+02  0.68909171091E+02 -0.32903567420E+03  0.34951440293E+03  0.91734622644E+02 0.  0.
        -11    1    4    4    0    0 -0.54938887460E+02  0.18206701279E+02 -0.13138382857E+03  0.14356697300E+03  0.00000000000E+00 0.  1.
         11    1    4    4    0    0  0.27881021620E+02  0.50702469811E+02 -0.19765184563E+03  0.20594742993E+03  0.00000000000E+00 0. -1.
        -13    1    3    3    0    0 -0.38855586965E+02 -0.25500200974E+02 -0.26420663257E+03  0.26826323189E+03  0.00000000000E+00 0.  1.
         13    1    3    3    0    0  0.22663662217E+02 -0.13161777784E+02 -0.16274208428E+02  0.30850021709E+02  0.00000000000E+00 0. -1.
          1    1    1    2  501    0  0.43249790588E+02 -0.30247192333E+02 -0.16499937955E+03  0.17323461629E+03  0.00000000000E+00 0. -1.
<scales pt_clust_5="13000.00000" pt_clust_6="13000.00000" pt_clust_7="13000.00000" pt_clust_8="13000.00000" pt_clust_9="13000.00000"></scales>
<clustering>
<clus scale="   91.735">  5  6 -1 -1</clus>
<clus scale="   52.777">  5  9 -1 -1</clus>
<clus scale="   95.091">  7  8 -1 -1</clus>
<clus scale="  103.919">  1  7  2 -1</clus>
<clus scale="  170.868">  2  5  1 -1</clus>
</clustering>
</event>
<event>
 9    1  0.3312826E-006  0.4776576E+03  0.7546771E-02  0.1068264E+00
          2   -1    0    0  502    0 -0.00000000000E+00  0.00000000000E+00  0.56514126435E+03  0.56514126435E+03  0.00000000000E+00 0. -1.
         21   -1    0    0  501  502  0.00000000000E+00 -0.00000000000E+00 -0.15786475806E+03  0.15786475806E+03  0.00000000000E+00 0. -1.
         23    2    1    2    0    0 -0.46697073984E+01  0.74248092238E+02  0.10476639870E+03  0.15761312662E+03  0.91276031991E+02 0.  0.
         23    2    1    2    0    0 -0.13655030068E+03 -0.23961672413E+02  0.36656409955E+03  0.40237532438E+03  0.91194935328E+02 0.  0.
        -13    1    3    3    0    0  0.19769663120E+02  0.83586704666E+02  0.98539350963E+02  0.13071947240E+03  0.00000000000E+00 0.  1.
         13    1    3    3    0    0 -0.24439370519E+02 -0.93386124281E+01  0.62270477420E+01  0.26893654215E+02  0.00000000000E+00 0. -1.
        -13    1    4    4    0    0 -0.13747263540E+03 -0.44872517117E+02  0.32886216718E+03  0.35925282640E+03  0.00000000000E+00 0. -1.
         13    1    4    4    0    0  0.92233471087E+00  0.20910844704E+02  0.37701932375E+02  0.43122497984E+02  0.00000000000E+00 0.  1.
          2    1    1    2  501    0  0.14122000808E+03 -0.50286419824E+02 -0.64053991966E+02  0.16301757141E+03  0.00000000000E+00 0. -1.
<scales pt_clust_5="13000.00000" pt_clust_6="13000.00000" pt_clust_7="13000.00000" pt_clust_8="13000.00000" pt_clust_9="13000.00000"></scales>
<clustering>
<clus scale="   91.195">  7  8 -1 -1</clus>
<clus scale="   91.276">  5  6 -1 -1</clus>
<clus scale="  117.754">  1  5  2 -1</clus>
<clus scale="  146.772">  7  9 -1 -1</clus>
<clus scale="  477.658">  2  5  1 -1</clus>
</clustering>
</event>
<event>
 9    1  0.3312826E-006  0.2360049E+03  0.7546771E-02  0.1153804E+00
          2   -1    0    0  502    0 -0.00000000000E+00  0.00000000000E+00  0.91145379436E+02  0.91145379436E+02  0.00000000000E+00 0. -1.
         21   -1    0    0  501  502  0.00000000000E+00 -0.00000000000E+00 -0.42032456996E+03  0.42032456996E+03  0.00000000000E+00 0. -1.
         23    2    1    2    0    0  0.90089727212E+01  0.60627058568E+02 -0.52681255121E+01  0.11069980539E+03  0.92032015874E+02 0.  0.
         23    2    1    2    0    0 -0.29500152010E+02 -0.11468602204E+03 -0.12915450423E+03  0.19761410072E+03  0.91363582562E+02 0.  0.
        -11    1    3    3    0    0  0.47331391458E+02  0.28588030913E+02  0.14199735042E+02  0.57089128598E+02  0.00000000000E+00 0.  1.
         11    1    3    3    0    0 -0.38322418737E+02  0.32039027655E+02 -0.19467860555E+02  0.53610676787E+02  0.00000000000E+00 0. -1.
        -13    1    4    4    0    0 -0.16807849266E+02 -0.40972503376E+02  0.44373278427E+01  0.44507748855E+02  0.00000000000E+00 0.  1.
         13    1    4    4    0    0 -0.12692302744E+02 -0.73713518665E+02 -0.13359183208E+03  0.15310635186E+03  0.00000000000E+00 0. -1.
          2    1    1    2  501    0  0.20491179288E+02  0.54058963473E+02 -0.19475656078E+03  0.20315604329E+03  0.00000000000E+00 0. -1.
<scales pt_clust_5="13000.00000" pt_clust_6="13000.00000" pt_clust_7="13000.00000" pt_clust_8="13000.00000" pt_clust_9="13000.00000"></scales>
<clustering>
<clus scale="   91.364">  7  8 -1 -1</clus>
<clus scale="   57.812">  7  9 -1 -1</clus>
<clus scale="   92.032">  5  6 -1 -1</clus>
<clus scale="  110.574">  1  5  2 -1</clus>
<clus scale="  236.005">  2  5  1 -1</clus>
</clustering>
</event>
<event>
 9    1  0.3312826E-006  0.3935360E+03  0.7546771E-02  0.1083480E+00
         21   -1    0    0  501  502  0.00000000000E+00  0.00000000000E+00  0.44402529793E+03  0.44402529793E+03  0.00000000000E+00 0. -1.
          1   -1    0    0  502    0 -0.00000000000E+00 -0.00000000000E+00 -0.16154361525E+03  0.16154361525E+03  0.00000000000E+00 0. -1.
         23    2    1    2    0    0 -0.10115749804E+03  0.34636595215E+02  0.47298786381E+02  0.14711325105E+03  0.89289418765E+02 0.  0.
         23    2    1    2    0    0  0.24969442723E+02  0.78631364224E+02 -0.59116161920E+02  0.13403897625E+03  0.87552053347E+02 0.  0.
        -11    1    3    3    0    0  0.12515011271E+02  0.18476247465E+02  0.17862553588E+02  0.28584402184E+02  0.00000000000E+00 0.  1.
         11    1    3    3    0    0 -0.11367250931E+03  0.16160347750E+02  0.29436232793E+02  0.11852884887E+03  0.00000000000E+00 0. -1.
        -13    1    4    4    0    0  0.14395886364E+02 -0.17831951946E+02 -0.74326853251E+01  0.24092838470E+02  0.00000000000E+00 0.  1.
         13    1    4    4    0    0  0.10573556359E+02  0.96463316170E+02 -0.51683476595E+02  0.10994613778E+03  0.00000000000E+00 0. -1.
          1    1    1    2  501    0  0.76188055318E+02 -0.11326795944E+03  0.29429905822E+03  0.32441668588E+03  0.00000000000E+00 0. -1.
<scales pt_clust_5="13000.00000" pt_clust_6="13000.00000" pt_clust_7="13000.00000" pt_clust_8="13000.00000" pt_clust_9="13000.00000"></scales>
<clustering>
<clus scale="   87.552">  7  8 -1 -1</clus>
<clus scale="   89.289">  5  6 -1 -1</clus>
<clus scale="  136.507">  7  9 -1 -1</clus>
<clus scale="  139.302">  2  5  1 -1</clus>
<clus scale="  393.536">  1  5  2 -1</clus>
</clustering>
</event>
<event>
 9    1  0.3312826E-006  0.2689128E+03  0.7546771E-02  0.1128249E+00
         21   -1    0    0  501  502  0.00000000000E+00  0.00000000000E+00  0.11257570369E+03  0.11257570369E+03  0.00000000000E+00 0. -1.
          1   -1    0    0  502    0 -0.00000000000E+00 -0.00000000000E+00 -0.37043386242E+03  0.37043386242E+03  0.00000000000E+00 0. -1.
         23    2    1    2    0    0  0.44704166019E+01 -0.10192022672E+03 -0.10537355136E+03  0.17387259877E+03  0.93382964393E+02 0.  0.
         23    2    1    2    0    0  0.80314516760E+02  0.52094174422E+02 -0.16188449470E+03  0.21034689549E+03  0.94207230121E+02 0.  0.
        -11    1    3    3    0    0  0.36593733601E+02 -0.73436348272E+02 -0.30444029484E+02  0.87514784565E+02  0.00000000000E+00 0.  1.
         11    1    3    3    0    0 -0.32123316999E+02 -0.28483878453E+02 -0.74929521873E+02  0.86357814209E+02  0.00000000000E+00 0. -1.
        -11    1    4    4    0    0  0.31682705799E+02 -0.21524400859E+02 -0.85334949131E+02  0.93536876269E+02  0.00000000000E+00 0.  1.
         11    1    4    4    0    0  0.48631810960E+02  0.73618575281E+02 -0.76549545572E+02  0.11681001922E+03  0.00000000000E+00 0. -1.
          1    1    1    2  501    0 -0.84784933362E+02  0.49826052302E+02  0.93998873202E+01  0.98790071843E+02  0.00000000000E+00 0. -1.
<scales pt_clust_5="13000.00000" pt_clust_6="13000.00000" pt_clust_7="13000.00000" pt_clust_8="13000.00000" pt_clust_9="13000.00000"></scales>
<clustering>
<clus scale="   93.383">  5  6 -1 -1</clus>
<clus scale="   94.207">  7  8 -1 -1</clus>
<clus scale="   98.342">  7  9 -1 -1</clus>
<clus scale="  138.304">  2  5  1 -1</clus>
<clus scale="  268.913">  1  5  2 -1</clus>
</clustering>
</event>
<event>
 9    1  0.3312826E-006  0.2057318E+03  0.7546771E-02  0.1175019E+00
          3   -1    0    0  502    0 -0.00000000000E+00  0.00000000000E+00  0.21097946328E+03  0.21097946328E+03  0.00000000000E+00 0. -1.
         21   -1    0    0  501  502  0.00000000000E+00 -0.00000000000E+00 -0.22842184589E+03  0.22842184589E+03  0.00000000000E+00 0. -1.
         23    2    1    2    0    0  0.33960705009E+02  0.34279229280E+02  0.14488926204E+03  0.17733811253E+03  0.90152719626E+02 0.  0.
         23    2    1    2    0    0  0.52466280783E+02 -0.43190412240E+02 -0.60081666442E+02  0.12788387223E+03  0.90146302225E+02 0.  0.
        -13    1    3    3    0    0  0.35311539859E+02 -0.10653716689E+02  0.12086580633E+03  0.12636830958E+03  0.00000000000E+00 0. -1.
         13    1    3    3    0    0 -0.13508348500E+01  0.44932945969E+02  0.24023455710E+02  0.50969802948E+02  0.00000000000E+00 0.  1.
        -13    1    4    4    0    0  0.36236367592E+02 -0.56532728016E+02 -0.76080707061E+02  0.10147560130E+03  0.00000000000E+00 0. -1.
         13    1    4    4    0    0  0.16229913191E+02  0.13342315776E+02  0.15999040619E+02  0.26408270923E+02  0.00000000000E+00 0.  1.
          3    1    1    2  501    0 -0.86426985792E+02  0.89111829606E+01 -0.10224997821E+03  0.13417932441E+03  0.00000000000E+00 0. -1.
<scales pt_clust_5="13000.00000" pt_clust_6="13000.00000" pt_clust_7="13000.00000" pt_clust_8="13000.00000" pt_clust_9="13000.00000"></scales>
<clustering>
<clus scale="   90.146">  7  8 -1 -1</clus>
<clus scale="   86.885">  7  9 -1 -1</clus>
<clus scale="   90.153">  5  6 -1 -1</clus>
<clus scale="  102.254">  1  5  2 -1</clus>
<clus scale="  205.732">  2  5  1 -1</clus>
</clustering>
</event>
<event>
 9    1  0.3312826E-006  0.3367125E+03  0.7546771E-02  0.1085675E+00
         21   -1    0    0  501  502  0.00000000000E+00  0.00000000000E+00  0.11663809317E+04  0.11663809317E+04  0.00000000000E+00 0.  1.
         -1   -1    0    0    0  501 -0.00000000000E+00 -0.00000000000E+00 -0.81699091211E+02  0.81699091211E+02  0.00000000000E+00 0.  1.
         23    2    1    2    0    0 -0.10912696429E+03 -0.15428926255E+03  0.15939328235E+03  0.26343074288E+03  0.90970692897E+02 0.  0.
         23    2    1    2    0    0  0.26644461561E+01  0.23045624434E+02  0.93130483697E+02  0.13550487465E+03  0.95656071330E+02 0.  0.
        -13    1    4    4    0    0  0.39054079450E+02  0.29133925963E+02  0.84613146695E+02  0.97639087241E+02  0.00000000000E+00 0.  1.
         13    1    4    4    0    0 -0.36389633294E+02 -0.60883015284E+01  0.85173370023E+01  0.37865787412E+02  0.00000000000E+00 0. -1.
        -13    1    3    3    0    0 -0.40559515956E+02 -0.11220035553E+03  0.54313656217E+02  0.13108763240E+03  0.00000000000E+00 0.  1.
         13    1    3    3    0    0 -0.68567448339E+02 -0.42088907012E+02  0.10507962613E+03  0.13234311048E+03  0.00000000000E+00 0. -1.
         -1    1    1    2    0  502  0.10646251814E+03  0.13124363811E+03  0.83215807447E+03  0.84914440539E+03  0.00000000000E+00 0.  1.
<scales pt_clust_5="13000.00000" pt_clust_6="13000.00000" pt_clust_7="13000.00000" pt_clust_8="13000.00000" pt_clust_9="13000.00000"></scales>
<clustering>
<clus scale="   90.971">  7  8 -1 -1</clus>
<clus scale="   95.656">  5  6 -1 -1</clus>
<clus scale="  168.995">  5  9 -1 -1</clus>
<clus scale="  209.737">  2  7  1 -1</clus>
<clus scale="  336.712">  1  5  2 -1</clus>
</clustering>
</event>
<event>
 9    1  0.3312826E-006  0.1996872E+03  0.7546771E-02  0.1171722E+00
         -3   -1    0    0    0  501 -0.00000000000E+00  0.00000000000E+00  0.40374172219E+03  0.40374172219E+03  0.00000000000E+00 0.  1.
         21   -1    0    0  501  502  0.00000000000E+00 -0.00000000000E+00 -0.22026281330E+03  0.22026281330E+03  0.00000000000E+00 0.  1.
         23    2    1    2    0    0 -0.34214619926E+02 -0.70127774977E+02  0.34609358989E+03  0.36648073589E+03  0.91863005509E+02 0.  0.
         23    2    1    2    0    0  0.28066114831E+02 -0.17528994156E+02 -0.13184809722E+03  0.16442118972E+03  0.92495591511E+02 0.  0.
        -11    1    3    3    0    0  0.29886069238E+02 -0.32835649650E+02  0.16299382658E+03  0.16893295867E+03  0.00000000000E+00 0.  1.
         11    1    3    3    0    0 -0.64100689164E+02 -0.37292125328E+02  0.18309976331E+03  0.19754777722E+03  0.00000000000E+00 0. -1.
        -13    1    4    4    0    0  0.60872447517E+02 -0.17019580427E+02 -0.10238459764E+03  0.12032342590E+03  0.00000000000E+00 0.  1.
         13    1    4    4    0    0 -0.32806332685E+02 -0.50941372840E+00 -0.29463499577E+02  0.44097763820E+02  0.00000000000E+00 0. -1.
         -3    1    1    2    0  502  0.61485050945E+01  0.87656769133E+02 -0.30766583776E+02  0.93102609883E+02  0.00000000000E+00 0.  1.
<scales pt_clust_5="13000.00000" pt_clust_6="13000.00000" pt_clust_7="13000.00000" pt_clust_8="13000.00000" pt_clust_9="13000.00000"></scales>
<clustering>
<clus scale="   91.863">  5  6 -1 -1</clus>
<clus scale="   92.496">  7  8 -1 -1</clus>
<clus scale="   87.872">  7  9 -1 -1</clus>
<clus scale="  120.529">  1  5  2 -1</clus>
<clus scale="  199.687">  2  5  1 -1</clus>
</clustering>
</event>
<event>
 9    1  0.3312826E-006  0.4943701E+03  0.7546771E-02  0.1024807E+00
         21   -1    0    0  501  502  0.00000000000E+00  0.00000000000E+00  0.13958073800E+03  0.13958073800E+03  0.00000000000E+00 0. -1.
          3   -1    0    0  502    0 -0.00000000000E+00 -0.00000000000E+00 -0.15004439340E+04  0.15004439340E+04  0.00000000000E+00 0. -1.
         23    2    1    2    0    0  0.27442730292E+03  0.23124115876E+03 -0.85973422442E+03  0.93608432555E+03  0.91258478024E+02 0.  0.
         23    2    1    2    0    0  0.34690493995E+02 -0.85415372444E+02 -0.47283127138E+02  0.13578981811E+03  0.87772230046E+02 0.  0.
        -13    1    4    4    0    0  0.45612449432E+02 -0.21221556497E+02  0.72847510344E+01  0.50832249615E+02  0.00000000000E+00 0. -1.
         13    1    4    4    0    0 -0.10921955437E+02 -0.64193815947E+02 -0.54567878173E+02  0.84957568495E+02  0.00000000000E+00 0.  1.
        -13    1    3    3    0    0  0.18715087019E+03  0.20392870459E+03 -0.60131135283E+03  0.66195748188E+03  0.00000000000E+00 0. -1.
         13    1    3    3    0    0  0.87276432734E+02  0.27312454170E+02 -0.25842287158E+03  0.27412684367E+03  0.00000000000E+00 0.  1.
          3    1    1    2  501    0 -0.30911779692E+03 -0.14582578632E+03 -0.45384584443E+03  0.56815052832E+03  0.00000000000E+00 0. -1.
<scales pt_clust_5="13000.00000" pt_clust_6="13000.00000" pt_clust_7="13000.00000" pt_clust_8="13000.00000" pt_clust_9="13000.00000"></scales>
<clustering>
<clus scale="   87.772">  5  6 -1 -1</clus>
<clus scale="   91.258">  7  8 -1 -1</clus>
<clus scale="  341.788">  5  9 -1 -1</clus>
<clus scale="  370.285">  2  7  1 -1</clus>
<clus scale="  494.370">  1  5  2 -1</clus>
</clustering>
</event>
<event>
 9    1  0.3312826E-006  0.1932767E+03  0.7546771E-02  0.1162463E+00
         21   -1    0    0  501  502  0.00000000000E+00  0.00000000000E+00  0.12505402358E+03  0.12505402358E+03  0.00000000000E+00 0. -1.
         -3   -1    0    0    0  501 -0.00000000000E+00 -0.00000000000E+00 -0.30874824323E+03  0.30874824323E+03  0.00000000000E+00 0.  1.
         23    2    1    2    0    0 -0.99479107770E+02  0.94762252625E+02 -0.17526589749E+03  0.24034184390E+03  0.90388548488E+02 0.  0.
         23    2    1    2    0    0  0.37390007475E+02 -0.70087912540E+02 -0.23890629705E+02  0.12488227487E+03  0.93351444800E+02 0.  0.
        -11    1    3    3    0    0 -0.39156800454E+02 -0.92264285714E-01 -0.99039167203E+01  0.40389987631E+02  0.00000000000E+00 0. -1.
         11    1    3    3    0    0 -0.60322307316E+02  0.94854516911E+02 -0.16536198077E+03  0.19995185626E+03  0.00000000000E+00 0.  1.
        -11    1    4    4    0    0  0.39557764086E+00 -0.81122436855E+02 -0.34430327234E+01  0.81196432910E+02  0.00000000000E+00 0. -1.
         11    1    4    4    0    0  0.36994429834E+02  0.11034524315E+02 -0.20447596982E+02  0.43685841962E+02  0.00000000000E+00 0.  1.
         -3    1    1    2    0  502  0.62089100295E+02 -0.24674340085E+02  0.15462307547E+02  0.68578148041E+02  0.00000000000E+00 0.  1.
<scales pt_clust_5="13000.00000" pt_clust_6="13000.00000" pt_clust_7="13000.00000" pt_clust_8="13000.00000" pt_clust_9="13000.00000"></scales>
<clustering>
<clus scale="   90.389">  5  6 -1 -1</clus>
<clus scale="   93.351">  7  8 -1 -1</clus>
<clus scale="   66.812">  7  9 -1 -1</clus>
<clus scale="  164.457">  2  5  1 -1</clus>
<clus scale="  193.277">  1  5  2 -1</clus>
</clustering>
</event>
<event>
 9    1  0.3312826E-006  0.2999809E+03  0.7546771E-02  0.1100990E+00
          2   -1    0    0  502    0 -0.00000000000E+00  0.00000000000E+00  0.39125113887E+03  0.39125113887E+03  0.00000000000E+00 0. -1.
         21   -1    0    0  501  502  0.00000000000E+00 -0.00000000000E+00 -0.17678317107E+03  0.17678317107E+03  0.00000000000E+00 0.  1.
         23    2    1    2    0    0 -0.17240045557E+03 -0.34879640798E+02 -0.15725032199E+01  0.19835607570E+03  0.91674170708E+02 0.  0.
         23    2    1    2    0    0  0.46339240192E+01  0.27067577613E+02  0.17218499775E+03  0.19609845438E+03  0.89737413321E+02 0.  0.
        -11    1    4    4    0    0  0.22920571498E+02  0.49346734622E+02  0.15048706608E+03  0.16002127944E+03  0.00000000000E+00 0. -1.
         11    1    4    4    0    0 -0.18286647479E+02 -0.22279157008E+02  0.21697931677E+02  0.36077174946E+02  0.00000000000E+00 0.  1.
        -13    1    3    3    0    0 -0.77682540464E+02 -0.46895908245E+02  0.33375828434E+02  0.96683758857E+02  0.00000000000E+00 0. -1.
         13    1    3    3    0    0 -0.94717915109E+02  0.12016267446E+02 -0.34948331654E+02  0.10167231684E+03  0.00000000000E+00 0.  1.
          2    1    1    2  501    0  0.16776653155E+03  0.78120631850E+01  0.43855473267E+02  0.17357977986E+03  0.00000000000E+00 0. -1.
<scales pt_clust_5="13000.00000" pt_clust_6="13000.00000" pt_clust_7="13000.00000" pt_clust_8="13000.00000" pt_clust_9="13000.00000"></scales>
<clustering>
<clus scale="   89.737">  5  6 -1 -1</clus>
<clus scale="   91.674">  7  8 -1 -1</clus>
<clus scale="  167.948">  5  9 -1 -1</clus>
<clus scale="  198.350">  1  7  2 -1</clus>
<clus scale="  299.981">  2  5  1 -1</clus>
</clustering>
</event>
<event>
 9    1  0.3312826E-006  0.4451404E+03  0.7546771E-02  0.1070378E+00
         21   -1    0    0  501  502  0.00000000000E+00  0.00000000000E+00  0.39160416589E+03  0.39160416589E+03  0.00000000000E+00 0.  1.
         -1   -1    0    0    0  501 -0.00000000000E+00 -0.00000000000E+00 -0.23046912427E+03  0.23046912427E+03  0.00000000000E+00 0.  1.
         23    2    1    2    0    0  0.51669580537E+02  0.80373810660E+02 -0.25088368823E+02  0.13954955812E+03  0.98564486137E+02 0.  0.
         23    2    1    2    0    0  0.17085742402E+03 -0.93548284506E+02  0.13622897975E+03  0.25406962807E+03  0.89719006383E+02 0.  0.
        -11    1    4    4    0    0  0.81073436978E+02 -0.94701724601E+02  0.78458111773E+02  0.14729899568E+03  0.00000000000E+00 0. -1.
         11    1    4    4    0    0  0.89783987046E+02  0.11534400958E+01  0.57770867981E+02  0.10677063239E+03  0.00000000000E+00 0.  1.
        -13    1    3    3    0    0  0.65657326092E+02  0.14143361850E+02 -0.25543144201E+02  0.71856602826E+02  0.00000000000E+00 0.  1.
         13    1    3    3    0    0 -0.13987745555E+02  0.66230448810E+02  0.45477537832E+00  0.67692955290E+02  0.00000000000E+00 0. -1.
         -1    1    1    2    0  502 -0.22252700456E+03  0.13174473846E+02  0.49994430689E+02  0.22845410397E+03  0.00000000000E+00 0.  1.
<scales pt_clust_5="13000.00000" pt_clust_6="13000.00000" pt_clust_7="13000.00000" pt_clust_8="13000.00000" pt_clust_9="13000.00000"></scales>
<clustering>
<clus scale="   89.719">  5  6 -1 -1</clus>
<clus scale="   98.564">  7  8 -1 -1</clus>
<clus scale="  137.276">  2  7  1 -1</clus>
<clus scale="  201.070">  5  9 -1 -1</clus>
<clus scale="  445.140">  1  5  2 -1</clus>
</clustering>
</event>
<event>
 9    1  0.3312826E-006  0.2487510E+03  0.7546771E-02  0.1152215E+00
         21   -1    0    0  501  502  0.00000000000E+00  0.00000000000E+00  0.64650456127E+02  0.64650456127E+02  0.00000000000E+00 0.  1.
          1   -1    0    0  502    0 -0.00000000000E+00 -0.00000000000E+00 -0.60558256809E+03  0.60558256809E+03  0.00000000000E+00 0. -1.
         23    2    1    2    0    0  0.38676244196E+02 -0.71991533116E+01 -0.32947003030E+03  0.34374674286E+03  0.89797787778E+02 0.  0.
         23    2    1    2    0    0 -0.97491092553E+02  0.71268680546E+02 -0.85296371646E+02  0.17324830600E+03  0.90309282808E+02 0.  0.
        -11    1    4    4    0    0 -0.11285685346E+03  0.54688914969E+02 -0.83302904926E+02  0.15055537440E+03  0.00000000000E+00 0. -1.
         11    1    4    4    0    0  0.15365760905E+02  0.16579765577E+02 -0.19934667194E+01  0.22692931594E+02  0.00000000000E+00 0.  1.
        -13    1    3    3    0    0  0.61274809317E+02  0.14147103720E+02 -0.26228173052E+03  0.26971549634E+03  0.00000000000E+00 0.  1.
         13    1    3    3    0    0 -0.22598565120E+02 -0.21346257031E+02 -0.67188299781E+02  0.74031246526E+02  0.00000000000E+00 0. -1.
          1    1    1    2  501    0  0.58814848356E+02 -0.64069527235E+02 -0.12616571002E+03  0.15323797536E+03  0.00000000000E+00 0. -1.
<scales pt_clust_5="13000.00000" pt_clust_6="13000.00000" pt_clust_7="13000.00000" pt_clust_8="13000.00000" pt_clust_9="13000.00000"></scales>
<clustering>
<clus scale="   89.798">  7  8 -1 -1</clus>
<clus scale="   90.309">  5  6 -1 -1</clus>
<clus scale="   86.972">  5  9 -1 -1</clus>
<clus scale="   98.037">  2  7  1 -1</clus>
<clus scale="  248.751">  1  5  2 -1</clus>
</clustering>
</event>
<event>
 9    1  0.3312826E-006  0.2679268E+03  0.7546771E-02  0.1141782E+00
         -3   -1    0    0    0  501 -0.00000000000E+00  0.00000000000E+00  0.27279130536E+02  0.27279130536E+02  0.00000000000E+00 0.  1.
         21   -1    0    0  501  502  0.00000000000E+00 -0.00000000000E+00 -0.12849340273E+04  0.12849340273E+04  0.00000000000E+00 0.  1.
         23    2    1    2    0    0 -0.42312115047E+02  0.64497621936E+01 -0.45623742775E+03  0.46719558107E+03  0.91034092410E+02 0.  0.
         23    2    1    2    0    0 -0.69676403569E+02  0.65785570802E+01 -0.18705153881E+03  0.22039235985E+03  0.93201048722E+02 0.  0.
        -11    1    3    3    0    0 -0.58203071504E+02  0.34367251242E+02 -0.33667311176E+03  0.34339116132E+03  0.00000000000E+00 0.  1.
         11    1    3    3    0    0  0.15890956458E+02 -0.27917489048E+02 -0.11956431598E+03  0.12380441975E+03  0.00000000000E+00 0. -1.
        -13    1    4    4    0    0 -0.44220086097E+02 -0.31766613106E+02 -0.15505667818E+03  0.16433839226E+03  0.00000000000E+00 0. -1.
         13    1    4    4    0    0 -0.25456317473E+02  0.38345170186E+02 -0.31994860623E+02  0.56053967586E+02  0.00000000000E+00 0.  1.
         -3    1    1    2    0  502  0.11198851862E+03 -0.13028319274E+02 -0.61436593025E+03  0.62462521695E+03  0.00000000000E+00 0.  1.
<scales pt_clust_5="13000.00000" pt_clust_6="13000.00000" pt_clust_7="13000.00000" pt_clust_8="13000.00000" pt_clust_9="13000.00000"></scales>
<clustering>
<clus scale="   91.034">  5  6 -1 -1</clus>
<clus scale="   93.201">  7  8 -1 -1</clus>
<clus scale="  100.594">  1  5  2 -1</clus>
<clus scale="  102.680">  7  9 -1 -1</clus>
<clus scale="  267.927">  2  5  1 -1</clus>
</clustering>
</event>
<event>
 9    1  0.3312826E-006  0.4251529E+03  0.7546771E-02  0.1042580E+00
          1   -1    0    0  502    0 -0.00000000000E+00  0.00000000000E+00  0.12360887680E+04  0.12360887680E+04  0.00000000000E+00 0. -1.
         21   -1    0    0  501  502  0.00000000000E+00 -0.00000000000E+00 -0.27426152056E+03  0.27426152056E+03  0.00000000000E+00 0. -1.
         23    2    1    2    0    0 -0.31220685264E+03 -0.11524386825E+03  0.10241429173E+04  0.10806548204E+04  0.90508883161E+02 0.  0.
         23    2    1    2    0    0  0.10432585153E+03 -0.16842537792E+02  0.62475552641E+02  0.15359009242E+03  0.92299336043E+02 0.  0.
        -11    1    3    3    0    0 -0.38251438901E+02 -0.29175161986E+02  0.75692114015E+02  0.89686447020E+02  0.00000000000E+00 0.  1.
         11    1    3    3    0    0 -0.27395541373E+03 -0.86068706263E+02  0.94845080325E+03  0.99096837341E+03  0.00000000000E+00 0. -1.
        -13    1    4    4    0    0  0.51185279816E+02 -0.40146260669E+02 -0.42176895890E+01  0.65187759749E+02  0.00000000000E+00 0. -1.
         13    1    4    4    0    0  0.53140571714E+02  0.23303722877E+02  0.66693242230E+02  0.88402332668E+02  0.00000000000E+00 0.  1.
          1    1    1    2  501    0  0.20788100111E+03  0.13208640604E+03 -0.12479122248E+03  0.27610537570E+03  0.00000000000E+00 0. -1.
<scales pt_clust_5="13000.00000" pt_clust_6="13000.00000" pt_clust_7="13000.00000" pt_clust_8="13000.00000" pt_clust_9="13000.00000"></scales>
<clustering>
<clus scale="   90.509">  5  6 -1 -1</clus>
<clus scale="   92.299">  7  8 -1 -1</clus>
<clus scale="  246.295">  7  9 -1 -1</clus>
<clus scale="  344.886">  1  5  2 -1</clus>
<clus scale="  425.153">  2  5  1 -1</clus>
</clustering>
</event>
<event>
 9    1  0.3312826E-006  0.8879162E+03  0.7546771E-02  0.9886582E-01
          1   -1    0    0  502    0 -0.00000000000E+00  0.00000000000E+00  0.10897571683E+04  0.10897571683E+04  0.00000000000E+00 0. -1.
         21   -1    0    0  501  502  0.00000000000E+00 -0.00000000000E+00 -0.27151006659E+03  0.27151006659E+03  0.00000000000E+00 0. -1.
         23    2    1    2    0    0 -0.87843359177E+02 -0.15172582633E+03  0.10918867232E+03  0.22497544323E+03  0.89188574179E+02 0.  0.
         23    2    1    2    0    0  0.16739172576E+03 -0.18419226231E+03  0.74176948986E+03  0.78953695262E+03  0.10582931597E+03 0.  0.
        -11    1    4    4    0    0  0.10485509286E+03 -0.10516058227E+03  0.28049356687E+03  0.31737986643E+03  0.00000000000E+00 0. -1.
         11    1    4    4    0    0  0.62536632894E+02 -0.79031680040E+02  0.46127592299E+03  0.47215708619E+03  0.00000000000E+00 0.  1.
        -13    1    3    3    0    0 -0.79092977421E+02 -0.52248425716E+02  0.37015989973E+02  0.10176335579E+03  0.00000000000E+00 0.  1.
         13    1    3    3    0    0 -0.87503817560E+01 -0.99477400613E+02  0.72172682349E+02  0.12321208744E+03  0.00000000000E+00 0. -1.
          1    1    1    2  501    0 -0.79548366580E+02  0.33591808864E+03 -0.32711060506E+02  0.34675483902E+03  0.00000000000E+00 0. -1.
<scales pt_clust_5="13000.00000" pt_clust_6="13000.00000" pt_clust_7="13000.00000" pt_clust_8="13000.00000" pt_clust_9="13000.00000"></scales>
<clustering>
<clus scale="   89.189">  7  8 -1 -1</clus>
<clus scale="  105.829">  5  6 -1 -1</clus>
<clus scale="  196.702">  1  7  2 -1</clus>
<clus scale="  324.176">  5  9 -1 -1</clus>
<clus scale="  887.916">  2  5  1 -1</clus>
</clustering>
</event>
<event>
 9    1  0.3312826E-006  0.1578483E+03  0.7546771E-02  0.1206272E+00
         21   -1    0    0  501  502  0.00000000000E+00  0.00000000000E+00  0.38166738174E+02  0.38166738174E+02  0.00000000000E+00 0. -1.
          1   -1    0    0  502    0 -0.00000000000E+00 -0.00000000000E+00 -0.48316120607E+03  0.48316120607E+03  0.00000000000E+00 0. -1.
         23    2    1    2    0    0  0.10228574714E+02 -0.66059410500E+02 -0.19548277709E+03  0.22607862051E+03  0.91812619280E+02 0.  0.
         23    2    1    2    0    0  0.28588249046E+02  0.71390410386E+02 -0.20338218717E+03  0.23472580374E+03  0.88419512564E+02 0.  0.
        -11    1    3    3    0    0 -0.38325843485E+02 -0.26129966156E+02 -0.11465143443E+03  0.12367941149E+03  0.00000000000E+00 0.  1.
         11    1    3    3    0    0  0.48554418199E+02 -0.39929444345E+02 -0.80831342656E+02  0.10239920902E+03  0.00000000000E+00 0. -1.
        -13    1    4    4    0    0  0.42897416084E+02  0.30480279386E+02 -0.41144881256E+02  0.66799228976E+02  0.00000000000E+00 0.  1.
         13    1    4    4    0    0 -0.14309167038E+02  0.40910131000E+02 -0.16223730592E+03  0.16792657476E+03  0.00000000000E+00 0. -1.
          1    1    1    2  501    0 -0.38816823760E+02 -0.53309998857E+01 -0.46129503630E+02  0.60523519988E+02  0.00000000000E+00 0. -1.
<scales pt_clust_5="13000.00000" pt_clust_6="13000.00000" pt_clust_7="13000.00000" pt_clust_8="13000.00000" pt_clust_9="13000.00000"></scales>
<clustering>
<clus scale="   88.420">  7  8 -1 -1</clus>
<clus scale="   39.181">  7  9 -1 -1</clus>
<clus scale="   91.813">  5  6 -1 -1</clus>
<clus scale="  113.569">  2  5  1 -1</clus>
<clus scale="  157.848">  1  5  2 -1</clus>
</clustering>
</event>
<event>
 9    1  0.3312826E-006  0.2097019E+03  0.7546771E-02  0.1175139E+00
         21   -1    0    0  501  502  0.00000000000E+00  0.00000000000E+00  0.79558722137E+02  0.79558722137E+02  0.00000000000E+00 0.  1.
          2   -1    0    0  502    0 -0.00000000000E+00 -0.00000000000E+00 -0.44977572546E+03  0.44977572546E+03  0.00000000000E+00 0. -1.
         23    2    1    2    0    0 -0.25512299244E+02 -0.74472513697E+00 -0.28871740015E+03  0.30435210975E+03  0.92849542435E+02 0.  0.
         23    2    1    2    0    0 -0.57150208899E+02 -0.37567772470E+02 -0.67447042939E+02  0.13279550487E+03  0.91695466664E+02 0.  0.
        -13    1    3    3    0    0 -0.57485217285E+02  0.16700660509E+02 -0.17747746524E+03  0.18730112903E+03  0.00000000000E+00 0.  1.
         13    1    3    3    0    0  0.31972918041E+02 -0.17445385646E+02 -0.11123993492E+03  0.11705098072E+03  0.00000000000E+00 0. -1.
        -13    1    4    4    0    0 -0.38803307597E+02 -0.67791801399E+02 -0.38415675737E+02  0.87047051413E+02  0.00000000000E+00 0.  1.
         13    1    4    4    0    0 -0.18346901301E+02  0.30224028928E+02 -0.29031367203E+02  0.45748453457E+02  0.00000000000E+00 0. -1.
          2    1    1    2  501    0  0.82662508143E+02  0.38312497607E+02 -0.14052560233E+02  0.92186832978E+02  0.00000000000E+00 0. -1.
<scales pt_clust_5="13000.00000" pt_clust_6="13000.00000" pt_clust_7="13000.00000" pt_clust_8="13000.00000" pt_clust_9="13000.00000"></scales>
<clustering>
<clus scale="   91.695">  7  8 -1 -1</clus>
<clus scale="   91.110">  7  9 -1 -1</clus>
<clus scale="   92.850">  5  6 -1 -1</clus>
<clus scale="   96.294">  2  5  1 -1</clus>
<clus scale="  209.702">  1  5  2 -1</clus>
</clustering>
</event>
<event>
 9    1  0.3312826E-006  0.3004179E+03  0.7546771E-02  0.1128392E+00
         -1   -1    0    0    0  501 -0.00000000000E+00  0.00000000000E+00  0.32474020104E+03  0.32474020104E+03  0.00000000000E+00 0.  1.
         21   -1    0    0  501  502  0.00000000000E+00 -0.00000000000E+00 -0.12310600429E+03  0.12310600429E+03  0.00000000000E+00 0.  1.
         23    2    1    2    0    0 -0.43468919684E+01 -0.37487010332E+02  0.60878448669E+02  0.11608860320E+03  0.91357576954E+02 0.  0.
         23    2    1    2    0    0  0.89626248372E+02  0.64571064857E+02  0.18348657495E+03  0.23260096745E+03  0.90739186993E+02 0.  0.
        -11    1    3    3    0    0 -0.44214364426E+02 -0.12201168797E+01  0.20531318116E+02  0.48764061873E+02  0.00000000000E+00 0. -1.
         11    1    3    3    0    0  0.39867472458E+02 -0.36266893452E+02  0.40347130552E+02  0.67324541325E+02  0.00000000000E+00 0.  1.
        -11    1    4    4    0    0  0.47814606433E+02  0.17350732556E+02  0.15515689703E+02  0.53179141922E+02  0.00000000000E+00 0. -1.
         11    1    4    4    0    0  0.41811641939E+02  0.47220332301E+02  0.16797088524E+03  0.17942182552E+03  0.00000000000E+00 0.  1.
         -1    1    1    2    0  502 -0.85279356404E+02 -0.27084054526E+02 -0.42730826859E+02  0.99156634686E+02  0.00000000000E+00 0.  1.
<scales pt_clust_5="13000.00000" pt_clust_6="13000.00000" pt_clust_7="13000.00000" pt_clust_8="13000.00000" pt_clust_9="13000.00000"></scales>
<clustering>
<clus scale="   90.739">  7  8 -1 -1</clus>
<clus scale="   89.477">  7  9 -1 -1</clus>
<clus scale="   91.358">  5  6 -1 -1</clus>
<clus scale="   98.845">  1  5  2 -1</clus>
<clus scale="  300.418">  2  5  1 -1</clus>
</clustering>
</event>
<event>
 9    1  0.3312826E-006  0.2883136E+03  0.7546771E-02  0.1131700E+00
         21   -1    0    0  501  502  0.00000000000E+00  0.00000000000E+00  0.62045647461E+02  0.62045647461E+02  0.00000000000E+00 0.  1.
          1   -1    0    0  502    0 -0.00000000000E+00 -0.00000000000E+00 -0.67458911087E+03  0.67458911087E+03  0.00000000000E+00 0. -1.
         23    2    1    2    0    0  0.33455377363E+02  0.22582605433E+00 -0.77949847064E+02  0.12925099252E+03  0.97520906158E+02 0.  0.
         23    2    1    2    0    0  0.63849505076E+02 -0.39638678507E+02 -0.83824909775E+02  0.14455113958E+03  0.90666599815E+02 0.  0.
        -11    1    4    4    0    0  0.34010315827E+02  0.19433284117E+02 -0.64750055290E+02  0.75676441343E+02  0.00000000000E+00 0.  1.
         11    1    4    4    0    0  0.29839189249E+02 -0.59071962624E+02 -0.19074854485E+02  0.68874698235E+02  0.00000000000E+00 0. -1.
        -11    1    3    3    0    0  0.29974470015E+02  0.36258592602E+02 -0.43682421702E+01  0.47246544104E+02  0.00000000000E+00 0.  1.
         11    1    3    3    0    0  0.34809073481E+01 -0.36032766548E+02 -0.73581604894E+02  0.82004448414E+02  0.00000000000E+00 0. -1.
          1    1    1    2  501    0 -0.97304882439E+02  0.39412852453E+02 -0.45076870657E+03  0.46283262624E+03  0.00000000000E+00 0. -1.
<scales pt_clust_5="13000.00000" pt_clust_6="13000.00000" pt_clust_7="13000.00000" pt_clust_8="13000.00000" pt_clust_9="13000.00000"></scales>
<clustering>
<clus scale="   90.667">  5  6 -1 -1</clus>
<clus scale="   97.521">  7  8 -1 -1</clus>
<clus scale="  103.100">  2  7  1 -1</clus>
<clus scale="   80.892">  5  9 -1 -1</clus>
<clus scale="  288.314">  1  5  2 -1</clus>
</clustering>
</event>
<event>
 9    1  0.3312826E-006  0.3527858E+03  0.7546771E-02  0.1103975E+00
         21   -1    0    0  501  502  0.00000000000E+00  0.00000000000E+00  0.85152418625E+02  0.85152418625E+02  0.00000000000E+00 0. -1.
          1   -1    0    0  502    0 -0.00000000000E+00 -0.00000000000E+00 -0.91318438103E+03  0.91318438103E+03  0.00000000000E+00 0. -1.
         23    2    1    2    0    0  0.61307215762E+02  0.18294694143E+02 -0.51328141488E+03  0.52555174688E+03  0.93024498145E+02 0.  0.
         23    2    1    2    0    0 -0.81438521204E+02  0.74592427862E+02 -0.34505935346E+03  0.37302578949E+03  0.88803261106E+02 0.  0.
        -11    1    4    4    0    0 -0.40267142530E+02  0.48957966001E+02 -0.30066834698E+03  0.30727801757E+03  0.00000000000E+00 0.  1.
         11    1    4    4    0    0 -0.41171378673E+02  0.25634461860E+02 -0.44391006482E+02  0.65747771926E+02  0.00000000000E+00 0. -1.
        -13    1    3    3    0    0 -0.23991842737E+02  0.11661097723E+01 -0.76226818481E+02  0.79921812953E+02  0.00000000000E+00 0.  1.
         13    1    3    3    0    0  0.85299058500E+02  0.17128584371E+02 -0.43705459640E+03  0.44562993393E+03  0.00000000000E+00 0. -1.
          1    1    1    2  501    0  0.20131305441E+02 -0.92887122005E+02  0.30308805936E+02  0.99759263281E+02  0.00000000000E+00 0. -1.
<scales pt_clust_5="13000.00000" pt_clust_6="13000.00000" pt_clust_7="13000.00000" pt_clust_8="13000.00000" pt_clust_9="13000.00000"></scales>
<clustering>
<clus scale="   88.803">  5  6 -1 -1</clus>
<clus scale="   93.024">  7  8 -1 -1</clus>
<clus scale="   95.044">  5  9 -1 -1</clus>
<clus scale="  112.902">  2  7  1 -1</clus>
<clus scale="  352.786">  1  5  2 -1</clus>
</clustering>
</event>
<event>
 9    1  0.3312826E-006  0.1602818E+03  0.7546771E-02  0.1213400E+00
         21   -1    0    0  501  502  0.00000000000E+00  0.00000000000E+00  0.23329725977E+02  0.23329725977E+02  0.00000000000E+00 0.  1.
          2   -1    0    0  502    0 -0.00000000000E+00 -0.00000000000E+00 -0.78065399160E+03  0.78065399160E+03  0.00000000000E+00 0. -1.
         23    2    1    2    0    0 -0.60005964274E+01 -0.64795221419E+01 -0.42416685144E+03  0.43427557350E+03  0.92734915281E+02 0.  0.
         23    2    1    2    0    0 -0.20083004529E+02  0.40025931385E+02 -0.14168528165E+03  0.17357733734E+03  0.89716056255E+02 0.  0.
        -13    1    3    3    0    0  0.19608548640E+02  0.35485097165E+02 -0.13488782548E+03  0.14084890047E+03  0.00000000000E+00 0.  1.
         13    1    3    3    0    0 -0.25609145068E+02 -0.41964619307E+02 -0.28927902596E+03  0.29342667303E+03  0.00000000000E+00 0. -1.
        -13    1    4    4    0    0  0.31158433833E+02  0.36449536455E+02 -0.56522346277E+02  0.74122819262E+02  0.00000000000E+00 0.  1.
         13    1    4    4    0    0 -0.51241438362E+02  0.35763949302E+01 -0.85162935369E+02  0.99454518081E+02  0.00000000000E+00 0. -1.
          2    1    1    2  501    0  0.26083600956E+02 -0.33546409243E+02 -0.19147213254E+03  0.19613080674E+03  0.00000000000E+00 0. -1.
<scales pt_clust_5="13000.00000" pt_clust_6="13000.00000" pt_clust_7="13000.00000" pt_clust_8="13000.00000" pt_clust_9="13000.00000"></scales>
<clustering>
<clus scale="   89.716">  7  8 -1 -1</clus>
<clus scale="   42.494">  7  9 -1 -1</clus>
<clus scale="   92.735">  5  6 -1 -1</clus>
<clus scale="   93.154">  2  5  1 -1</clus>
<clus scale="  160.282">  1  5  2 -1</clus>
</clustering>
</event>
<event>
 9    1  0.3312826E-006  0.1763463E+03  0.7546771E-02  0.1200068E+00
         21   -1    0    0  501  502  0.00000000000E+00  0.00000000000E+00  0.34374552574E+03  0.34374552574E+03  0.00000000000E+00 0.  1.
          4   -1    0    0  502    0 -0.00000000000E+00 -0.00000000000E+00 -0.60596691622E+02  0.60596691622E+02  0.00000000000E+00 0. -1.
         23    2    1    2    0    0 -0.19801581318E+02  0.48625718672E+01  0.17285218985E+03  0.19634373337E+03  0.90869328538E+02 0.  0.
         23    2    1    2    0    0  0.36017973255E+00  0.11567916878E+01  0.13950486049E+03  0.17239903557E+03  0.10128353009E+03 0.  0.
        -11    1    4    4    0    0 -0.46300098772E+02 -0.16617417658E+02  0.86992551809E+02  0.99937689518E+02  0.00000000000E+00 0.  1.
         11    1    4    4    0    0  0.46660278504E+02  0.17774209346E+02  0.52512308681E+02  0.72461346047E+02  0.00000000000E+00 0. -1.
        -11    1    3    3    0    0  0.27464005818E+02 -0.93828840961E+01  0.18810725855E+02  0.34585452675E+02  0.00000000000E+00 0. -1.
         11    1    3    3    0    0 -0.47265587136E+02  0.14245455963E+02  0.15404146399E+03  0.16175828069E+03  0.00000000000E+00 0.  1.
          4    1    1    2  501    0  0.19441401586E+02 -0.60193635550E+01 -0.29208216225E+02  0.35599448426E+02  0.00000000000E+00 0. -1.
<scales pt_clust_5="13000.00000" pt_clust_6="13000.00000" pt_clust_7="13000.00000" pt_clust_8="13000.00000" pt_clust_9="13000.00000"></scales>
<clustering>
<clus scale="   90.869">  7  8 -1 -1</clus>
<clus scale="   93.129">  2  7  1 -1</clus>
<clus scale="  101.284">  5  6 -1 -1</clus>
<clus scale="    6.898">  5  9 -1 -1</clus>
<clus scale="  176.346">  1  5  2 -1</clus>
</clustering>
</event>
<event>
 9    1  0.3312826E-006  0.1858113E+03  0.7546771E-02  0.1182591E+00
         21   -1    0    0  501  502  0.00000000000E+00  0.00000000000E+00  0.43002062700E+02  0.43002062700E+02  0.00000000000E+00 0. -1.
          1   -1    0    0  502    0 -0.00000000000E+00 -0.00000000000E+00 -0.54579727453E+03  0.54579727453E+03  0.00000000000E+00 0. -1.
         23    2    1    2    0    0 -0.73552693907E+02  0.10671502309E+02 -0.23923146340E+03  0.26632193891E+03  0.90398021657E+02 0.  0.
         23    2    1    2    0    0 -0.73148181622E+01  0.15869932648E+02 -0.18341466207E+03  0.20556769675E+03  0.91168955013E+02 0.  0.
        -11    1    3    3    0    0 -0.54820700281E+01  0.29495194232E+02 -0.20152961617E+02  0.36140855503E+02  0.00000000000E+00 0.  1.
         11    1    3    3    0    0 -0.68070623879E+02 -0.18823691923E+02 -0.21907850178E+03  0.23018108340E+03  0.00000000000E+00 0. -1.
        -13    1    4    4    0    0  0.27140095567E+02 -0.21144357655E+02 -0.11783769287E+03  0.12275744583E+03  0.00000000000E+00 0.  1.
         13    1    4    4    0    0 -0.34454913729E+02  0.37014290303E+02 -0.65576969203E+02  0.82810250915E+02  0.00000000000E+00 0. -1.
          1    1    1    2  501    0  0.80867512069E+02 -0.26541434957E+02 -0.80149086363E+02  0.11690970158E+03  0.00000000000E+00 0. -1.
<scales pt_clust_5="13000.00000" pt_clust_6="13000.00000" pt_clust_7="13000.00000" pt_clust_8="13000.00000" pt_clust_9="13000.00000"></scales>
<clustering>
<clus scale="   90.398">  5  6 -1 -1</clus>
<clus scale="   91.169">  7  8 -1 -1</clus>
<clus scale="   85.112">  7  9 -1 -1</clus>
<clus scale="  117.029">  2  5  1 -1</clus>
<clus scale="  185.811">  1  5  2 -1</clus>
</clustering>
</event>
<event>
 9    1  0.3312826E-006  0.1627286E+03  0.7546771E-02  0.1205917E+00
          1   -1    0    0  502    0 -0.00000000000E+00  0.00000000000E+00  0.90785739537E+03  0.90785739537E+03  0.00000000000E+00 0. -1.
         21   -1    0    0  501  502  0.00000000000E+00 -0.00000000000E+00 -0.21892161849E+02  0.21892161849E+02  0.00000000000E+00 0.  1.
         23    2    1    2    0    0 -0.23819514488E+02 -0.47197337796E+02  0.50154898822E+03  0.51230918724E+03  0.90079730103E+02 0.  0.
         23    2    1    2    0    0 -0.12594503986E+02 -0.61548285735E+01  0.16148265223E+03  0.18533732968E+03  0.89870881584E+02 0.  0.
        -11    1    4    4    0    0  0.26104178014E+02  0.12631087467E+02  0.12681731667E+03  0.13009075405E+03  0.00000000000E+00 0. -1.
         11    1    4    4    0    0 -0.38698682000E+02 -0.18785916041E+02  0.34665335556E+02  0.55246575634E+02  0.00000000000E+00 0.  1.
        -13    1    3    3    0    0  0.32196439787E+01  0.25585347355E+02  0.96521730307E+02  0.99907059451E+02  0.00000000000E+00 0. -1.
         13    1    3    3    0    0 -0.27039158467E+02 -0.72782685151E+02  0.40502725792E+03  0.41240212779E+03  0.00000000000E+00 0.  1.
          1    1    1    2  501    0  0.36414018474E+02  0.53352166370E+02  0.22293359307E+03  0.23210304030E+03  0.00000000000E+00 0. -1.
<scales pt_clust_5="13000.00000" pt_clust_6="13000.00000" pt_clust_7="13000.00000" pt_clust_8="13000.00000" pt_clust_9="13000.00000"></scales>
<clustering>
<clus scale="   89.871">  5  6 -1 -1</clus>
<clus scale="   64.594">  5  9 -1 -1</clus>
<clus scale="   90.080">  7  8 -1 -1</clus>
<clus scale="  104.448">  1  7  2 -1</clus>
<clus scale="  162.729">  2  5  1 -1</clus>
</clustering>
</event>
<event>
 9    1  0.3312826E-006  0.1257626E+03  0.7546771E-02  0.1244662E+00
         21   -1    0    0  501  502  0.00000000000E+00  0.00000000000E+00  0.37215945427E+02  0.37215945427E+02  0.00000000000E+00 0. -1.
          1   -1    0    0  502    0 -0.00000000000E+00 -0.00000000000E+00 -0.36488102985E+03  0.36488102985E+03  0.00000000000E+00 0. -1.
         23    2    1    2    0    0  0.30224657988E+02 -0.10015346538E+02 -0.10076781887E+03  0.14267723337E+03  0.95858241615E+02 0.  0.
         23    2    1    2    0    0 -0.10645631633E+02  0.27437612585E+02 -0.19914743089E+03  0.22125002942E+03  0.91791743816E+02 0.  0.
        -11    1    3    3    0    0 -0.12841483145E+02  0.28553732648E+02 -0.63194179461E+01  0.31939855677E+02  0.00000000000E+00 0. -1.
         11    1    3    3    0    0  0.43066141133E+02 -0.38569079186E+02 -0.94448400922E+02  0.11073737769E+03  0.00000000000E+00 0.  1.
        -13    1    4    4    0    0 -0.34663816335E+02  0.35731525804E+02 -0.18618340313E+03  0.19272410773E+03  0.00000000000E+00 0. -1.
         13    1    4    4    0    0  0.24018184702E+02 -0.82939132185E+01 -0.12964027764E+02  0.28525921698E+02  0.00000000000E+00 0.  1.
          1    1    1    2  501    0 -0.19579026355E+02 -0.17422266048E+02 -0.27749834665E+02  0.38169712485E+02  0.00000000000E+00 0. -1.
<scales pt_clust_5="13000.00000" pt_clust_6="13000.00000" pt_clust_7="13000.00000" pt_clust_8="13000.00000" pt_clust_9="13000.00000"></scales>
<clustering>
<clus scale="   91.792">  7  8 -1 -1</clus>
<clus scale="   26.208">  7  9 -1 -1</clus>
<clus scale="   95.858">  5  6 -1 -1</clus>
<clus scale="  101.008">  2  5  1 -1</clus>
<clus scale="  125.763">  1  5  2 -1</clus>
</clustering>
</event>
<event>
 9    1  0.3312826E-006  0.2117999E+03  0.7546771E-02  0.1168586E+00
          1   -1    0    0  502    0 -0.00000000000E+00  0.00000000000E+00  0.58165452344E+03  0.58165452344E+03  0.00000000000E+00 0. -1.
         21   -1    0    0  501  502  0.00000000000E+00 -0.00000000000E+00 -0.44246490107E+02  0.44246490107E+02  0.00000000000E+00 0. -1.
         23    2    1    2    0    0  0.54586345076E+02  0.24278233181E+02  0.19936040565E+03  0.22698322023E+03  0.90596408585E+02 0.  0.
         23    2    1    2    0    0 -0.30642724460E+02  0.57110271237E+02  0.26367736473E+03  0.28609792968E+03  0.90142737120E+02 0.  0.
        -11    1    4    4    0    0  0.15590923458E+02 -0.15652786039E+02  0.83269231231E+02  0.86150168165E+02  0.00000000000E+00 0.  1.
         11    1    4    4    0    0 -0.46233647918E+02  0.72763057275E+02  0.18040813350E+03  0.19994776152E+03  0.00000000000E+00 0. -1.
        -13    1    3    3    0    0 -0.12325199810E+01 -0.28639669707E+02  0.33063370162E+02  0.43759984380E+02  0.00000000000E+00 0.  1.
         13    1    3    3    0    0  0.55818865057E+02  0.52917902888E+02  0.16629703549E+03  0.18322323585E+03  0.00000000000E+00 0. -1.
          1    1    1    2  501    0 -0.23943620617E+02 -0.81388504417E+02  0.74370262958E+02  0.11281986364E+03  0.00000000000E+00 0. -1.
<scales pt_clust_5="13000.00000" pt_clust_6="13000.00000" pt_clust_7="13000.00000" pt_clust_8="13000.00000" pt_clust_9="13000.00000"></scales>
<clustering>
<clus scale="   90.143">  5  6 -1 -1</clus>
<clus scale="   84.837">  5  9 -1 -1</clus>
<clus scale="   90.596">  7  8 -1 -1</clus>
<clus scale="  108.521">  1  7  2 -1</clus>
<clus scale="  211.800">  2  5  1 -1</clus>
</clustering>
</event>
<event>
 9    1  0.3312826E-006  0.3659862E+03  0.7546771E-02  0.1079802E+00
         21   -1    0    0  501  502  0.00000000000E+00  0.00000000000E+00  0.19513016273E+03  0.19513016273E+03  0.00000000000E+00 0. -1.
          2   -1    0    0  502    0 -0.00000000000E+00 -0.00000000000E+00 -0.42233467687E+03  0.42233467687E+03  0.00000000000E+00 0. -1.
         23    2    1    2    0    0  0.29856007447E+02 -0.16624532320E+03 -0.15104250907E+03  0.24363795121E+03  0.89536155027E+02 0.  0.
         23    2    1    2    0    0  0.88869779086E+02  0.13147856778E+03 -0.14313422806E+03  0.23315059928E+03  0.93205918689E+02 0.  0.
        -11    1    4    4    0    0  0.71926817476E+01  0.18918123180E+02 -0.76138764519E+02  0.78782875791E+02  0.00000000000E+00 0.  1.
         11    1    4    4    0    0  0.81677097338E+02  0.11256044460E+03 -0.66995463545E+02  0.15436772348E+03  0.00000000000E+00 0. -1.
        -13    1    3    3    0    0 -0.28425283348E+02 -0.66152284799E+02 -0.80591768724E+02  0.10807013789E+03  0.00000000000E+00 0.  1.
         13    1    3    3    0    0  0.58281290795E+02 -0.10009303840E+03 -0.70450740345E+02  0.13556781332E+03  0.00000000000E+00 0. -1.
          2    1    1    2  501    0 -0.11872578653E+03  0.34766755415E+02  0.66972222991E+02  0.14067628913E+03  0.00000000000E+00 0. -1.
<scales pt_clust_5="13000.00000" pt_clust_6="13000.00000" pt_clust_7="13000.00000" pt_clust_8="13000.00000" pt_clust_9="13000.00000"></scales>
<clustering>
<clus scale="   89.536">  7  8 -1 -1</clus>
<clus scale="   93.206">  5  6 -1 -1</clus>
<clus scale="  123.712">  5  9 -1 -1</clus>
<clus scale="  191.169">  2  7  1 -1</clus>
<clus scale="  365.986">  1  5  2 -1</clus>
</clustering>
</event>
<event>
 9    1  0.3312826E-006  0.3252248E+03  0.7546771E-02  0.1084983E+00
          2   -1    0    0  502    0 -0.00000000000E+00  0.00000000000E+00  0.31073970000E+03  0.31073970000E+03  0.00000000000E+00 0. -1.
         21   -1    0    0  501  502  0.00000000000E+00 -0.00000000000E+00 -0.34470682932E+03  0.34470682932E+03  0.00000000000E+00 0. -1.
         23    2    1    2    0    0  0.17949463467E+03  0.12422519256E+03  0.15120371489E+03  0.28120136702E+03  0.92527958346E+02 0.  0.
         23    2    1    2    0    0 -0.44174527568E+02 -0.67986630291E+01  0.16097706196E+02  0.10478356836E+03  0.93396195578E+02 0.  0.
        -13    1    4    4    0    0  0.19104870616E+01 -0.38909608779E+02  0.27220054467E+02  0.47524088432E+02  0.00000000000E+00 0. -1.
         13    1    4    4    0    0 -0.46085014630E+02  0.32110945750E+02 -0.11122348270E+02  0.57259479926E+02  0.00000000000E+00 0.  1.
        -13    1    3    3    0    0  0.12130396663E+03  0.33341574120E+02  0.57667297138E+02  0.13839013709E+03  0.00000000000E+00 0.  1.
         13    1    3    3    0    0  0.58190668038E+02  0.90883618444E+02  0.93536417753E+02  0.14281122993E+03  0.00000000000E+00 0. -1.
          2    1    1    2  501    0 -0.13532010710E+03 -0.11742652953E+03 -0.20126855041E+03  0.26946159394E+03  0.00000000000E+00 0. -1.
<scales pt_clust_5="13000.00000" pt_clust_6="13000.00000" pt_clust_7="13000.00000" pt_clust_8="13000.00000" pt_clust_9="13000.00000"></scales>
<clustering>
<clus scale="   92.528">  7  8 -1 -1</clus>
<clus scale="   93.396">  5  6 -1 -1</clus>
<clus scale="  179.166">  5  9 -1 -1</clus>
<clus scale="  237.090">  1  7  2 -1</clus>
<clus scale="  325.225">  2  5  1 -1</clus>
</clustering>
</event>
<event>
 9    1  0.3312826E-006  0.1328952E+03  0.7546771E-02  0.1241014E+00
         21   -1    0    0  501  502  0.00000000000E+00  0.00000000000E+00  0.60294426668E+03  0.60294426668E+03  0.00000000000E+00 0.  1.
          2   -1    0    0  502    0 -0.00000000000E+00 -0.00000000000E+00 -0.39145705483E+02  0.39145705483E+02  0.00000000000E+00 0. -1.
         23    2    1    2    0    0 -0.64012553778E+00  0.10127161636E+02  0.37868705810E+02  0.99629516005E+02  0.91591661281E+02 0.  0.
         23    2    1    2    0    0 -0.34625770410E+02 -0.70205009315E+01  0.41477563486E+03  0.42580457119E+03  0.89568265354E+02 0.  0.
        -11    1    4    4    0    0 -0.30657835854E+02  0.38404571409E+02  0.17692641631E+03  0.18362399297E+03  0.00000000000E+00 0. -1.
         11    1    4    4    0    0 -0.39679345555E+01 -0.45425072340E+02  0.23784921855E+03  0.24218057822E+03  0.00000000000E+00 0.  1.
        -13    1    3    3    0    0  0.10346443326E+02  0.46665376860E+02  0.29191087738E+01  0.47887654808E+02  0.00000000000E+00 0. -1.
         13    1    3    3    0    0 -0.10986568864E+02 -0.36538215224E+02  0.34949597036E+02  0.51741861197E+02  0.00000000000E+00 0.  1.
          2    1    1    2  501    0  0.35265895947E+02 -0.31066607043E+01  0.11115422053E+03  0.11665588497E+03  0.00000000000E+00 0. -1.
<scales pt_clust_5="13000.00000" pt_clust_6="13000.00000" pt_clust_7="13000.00000" pt_clust_8="13000.00000" pt_clust_9="13000.00000"></scales>
<clustering>
<clus scale="   89.568">  5  6 -1 -1</clus>
<clus scale="   35.402">  5  9 -1 -1</clus>
<clus scale="   91.592">  7  8 -1 -1</clus>
<clus scale="   92.152">  2  7  1 -1</clus>
<clus scale="  132.895">  1  5  2 -1</clus>
</clustering>
</event>
<event>
 9    1  0.4963321E-006  0.4611321E+03  0.7546771E-02  0.1072815E+00
         21   -1    0    0  501  502  0.00000000000E+00  0.00000000000E+00  0.23542310958E+03  0.23542310958E+03  0.00000000000E+00 0.  1.
         -1   -1    0    0    0  501 -0.00000000000E+00 -0.00000000000E+00 -0.42089208715E+03  0.42089208715E+03  0.00000000000E+00 0.  1.
         23    2    1    2    0    0 -0.39786982309E+02 -0.63233754590E+02 -0.15617366451E+03  0.19425344559E+03  0.88106049477E+02 0.  0.
         23    2    1    2    0    0  0.47965713974E+02 -0.84943997118E+02 -0.19662266265E+03  0.23840581075E+03  0.93062703418E+02 0.  0.
        -11    1    3    3    0    0 -0.20200228483E+02 -0.81776970205E+02 -0.13817787787E+03  0.16182907038E+03  0.00000000000E+00 0.  1.
         11    1    3    3    0    0 -0.19586753826E+02  0.18543215615E+02 -0.17995786640E+02  0.32424375207E+02  0.00000000000E+00 0. -1.
        -11    1    4    4    0    0  0.21626687476E+02 -0.99633326709E+02 -0.12948458358E+03  0.16480525109E+03  0.00000000000E+00 0.  1.
         11    1    4    4    0    0  0.26339026499E+02  0.14689329591E+02 -0.67138079068E+02  0.73600559656E+02  0.00000000000E+00 0. -1.
         -1    1    1    2    0  502 -0.81787316652E+01  0.14817775171E+03  0.16732734959E+03  0.22365594040E+03  0.00000000000E+00 0.  1.
<scales pt_clust_5="13000.00000" pt_clust_6="13000.00000" pt_clust_7="13000.00000" pt_clust_8="13000.00000" pt_clust_9="13000.00000"></scales>
<clustering>
<clus scale="   88.106">  5  6 -1 -1</clus>
<clus scale="   93.063">  7  8 -1 -1</clus>
<clus scale="  115.517">  2  5  1 -1</clus>
<clus scale="  141.503">  7  9 -1 -1</clus>
<clus scale="  461.132">  1  5  2 -1</clus>
</clustering>
</event>
<event>
 9    1  0.3312826E-006  0.2003617E+03  0.7546771E-02  0.1173168E+00
         -1   -1    0    0    0  501 -0.00000000000E+00  0.00000000000E+00  0.13241167719E+03  0.13241167719E+03  0.00000000000E+00 0.  1.
         21   -1    0    0  501  502  0.00000000000E+00 -0.00000000000E+00 -0.19726999626E+03  0.19726999626E+03  0.00000000000E+00 0.  1.
         23    2    1    2    0    0 -0.14616742702E+02 -0.71228541598E+02  0.97919074905E+01  0.11586519630E+03  0.89675570561E+02 0.  0.
         23    2    1    2    0    0 -0.96169943775E+01  0.34474166901E+02  0.30554222291E+02  0.99772037866E+02  0.87976953094E+02 0.  0.
        -11    1    4    4    0    0 -0.26047382667E+02 -0.17297868648E+02  0.32921463548E+02  0.45403801225E+02  0.00000000000E+00 0.  1.
         11    1    4    4    0    0  0.16430388289E+02  0.51772035549E+02 -0.23672412573E+01  0.54368236641E+02  0.00000000000E+00 0. -1.
        -13    1    3    3    0    0  0.21226058167E+02 -0.75340991888E+02  0.14090422844E+02  0.79532072901E+02  0.00000000000E+00 0. -1.
         13    1    3    3    0    0 -0.35842800869E+02  0.41124502901E+01 -0.42985153531E+01  0.36333123397E+02  0.00000000000E+00 0.  1.
         -1    1    1    2    0  502  0.24233737080E+02  0.36754374697E+02 -0.10520444885E+03  0.11404443928E+03  0.00000000000E+00 0.  1.
<scales pt_clust_5="13000.00000" pt_clust_6="13000.00000" pt_clust_7="13000.00000" pt_clust_8="13000.00000" pt_clust_9="13000.00000"></scales>
<clustering>
<clus scale="   87.977">  5  6 -1 -1</clus>
<clus scale="   44.025">  5  9 -1 -1</clus>
<clus scale="   89.676">  7  8 -1 -1</clus>
<clus scale="  115.451">  1  7  2 -1</clus>
<clus scale="  200.362">  2  5  1 -1</clus>
</clustering>
</event>
<event>
 9    1  0.3312826E-006  0.3014436E+03  0.7546771E-02  0.1100184E+00
          2   -1    0    0  502    0 -0.00000000000E+00  0.00000000000E+00  0.61959252886E+03  0.61959252886E+03  0.00000000000E+00 0. -1.
         21   -1    0    0  501  502  0.00000000000E+00 -0.00000000000E+00 -0.10148115357E+03  0.10148115357E+03  0.00000000000E+00 0. -1.
         23    2    1    2    0    0  0.17719314073E+03 -0.22715813828E+02  0.19140539925E+03  0.27654580964E+03  0.89040106955E+02 0.  0.
         23    2    1    2    0    0 -0.44211254562E+02 -0.20944122883E+02  0.27553253173E+03  0.29550071579E+03  0.94916835566E+02 0.  0.
        -13    1    4    4    0    0 -0.48598062899E+02 -0.53677749277E+02  0.16618938551E+03  0.18127874762E+03  0.00000000000E+00 0.  1.
         13    1    4    4    0    0  0.43868083374E+01  0.32733626394E+02  0.10934314623E+03  0.11422196817E+03  0.00000000000E+00 0. -1.
        -13    1    3    3    0    0  0.15202751982E+03  0.23285441539E-01  0.18898239969E+03  0.24254219162E+03  0.00000000000E+00 0. -1.
         13    1    3    3    0    0  0.25165620914E+02 -0.22739099269E+02  0.24229995635E+01  0.34003618020E+02  0.00000000000E+00 0.  1.
          2    1    1    2  501    0 -0.13298188617E+03  0.43659936710E+02  0.51173444302E+02  0.14902715701E+03  0.00000000000E+00 0. -1.
<scales pt_clust_5="13000.00000" pt_clust_6="13000.00000" pt_clust_7="13000.00000" pt_clust_8="13000.00000" pt_clust_9="13000.00000"></scales>
<clustering>
<clus scale="   89.040">  7  8 -1 -1</clus>
<clus scale="   94.917">  5  6 -1 -1</clus>
<clus scale="  139.966">  5  9 -1 -1</clus>
<clus scale="  199.604">  1  7  2 -1</clus>
<clus scale="  301.444">  2  5  1 -1</clus>
</clustering>
</event>
<event>
 9    1  0.3312826E-006  0.6115586E+03  0.7546771E-02  0.1029769E+00
         21   -1    0    0  501  502  0.00000000000E+00  0.00000000000E+00  0.38357289610E+03  0.38357289610E+03  0.00000000000E+00 0. -1.
          2   -1    0    0  502    0 -0.00000000000E+00 -0.00000000000E+00 -0.50196103632E+03  0.50196103632E+03  0.00000000000E+00 0. -1.
         23    2    1    2    0    0  0.21004501897E+02 -0.14204958092E+03 -0.20760585277E+03  0.26750174970E+03  0.88530918029E+02 0.  0.
         23    2    1    2    0    0  0.24451696497E+03  0.24559016209E+02 -0.89335524355E+02  0.27717012768E+03  0.91927973585E+02 0.  0.
        -11    1    3    3    0    0  0.19740567777E+02 -0.99198090028E+02 -0.69051086835E+02  0.12246633690E+03  0.00000000000E+00 0. -1.
         11    1    3    3    0    0  0.12639341196E+01 -0.42851490894E+02 -0.13855476593E+03  0.14503541279E+03  0.00000000000E+00 0.  1.
        -11    1    4    4    0    0  0.17778709519E+03  0.28279961517E+02 -0.10516298847E+03  0.20848803703E+03  0.00000000000E+00 0. -1.
         11    1    4    4    0    0  0.66729869783E+02 -0.37209453076E+01  0.15827464119E+02  0.68682090647E+02  0.00000000000E+00 0.  1.
          2    1    1    2  501    0 -0.26552146687E+03  0.11749056471E+03  0.17855323689E+03  0.34086205505E+03  0.00000000000E+00 0. -1.
<scales pt_clust_5="13000.00000" pt_clust_6="13000.00000" pt_clust_7="13000.00000" pt_clust_8="13000.00000" pt_clust_9="13000.00000"></scales>
<clustering>
<clus scale="   88.531">  5  6 -1 -1</clus>
<clus scale="   91.928">  7  8 -1 -1</clus>
<clus scale="  168.692">  2  5  1 -1</clus>
<clus scale="  269.406">  7  9 -1 -1</clus>
<clus scale="  611.559">  1  5  2 -1</clus>
</clustering>
</event>
<event>
 9    1  0.3312826E-006  0.4964832E+03  0.7546771E-02  0.1047848E+00
          1   -1    0    0  502    0 -0.00000000000E+00  0.00000000000E+00  0.48783283729E+03  0.48783283729E+03  0.00000000000E+00 0. -1.
         21   -1    0    0  501  502  0.00000000000E+00 -0.00000000000E+00 -0.33730697813E+03  0.33730697813E+03  0.00000000000E+00 0. -1.
         23    2    1    2    0    0  0.15562853343E+03 -0.45275139709E+02  0.25707382997E+03  0.31735239202E+03  0.91408467717E+02 0.  0.
         23    2    1    2    0    0 -0.57821863075E+02 -0.10004425274E+03  0.14121637504E+03  0.20435531953E+03  0.92015279642E+02 0.  0.
        -13    1    4    4    0    0 -0.65788809945E+02 -0.22665468321E+02  0.73625016647E+02  0.10130416598E+03  0.00000000000E+00 0.  1.
         13    1    4    4    0    0  0.79669468695E+01 -0.77378784416E+02  0.67591358392E+02  0.10305115356E+03  0.00000000000E+00 0. -1.
        -13    1    3    3    0    0  0.11162301039E+03 -0.23007651022E+02  0.23907739058E+03  0.26485287829E+03  0.00000000000E+00 0. -1.
         13    1    3    3    0    0  0.44005523040E+02 -0.22267488687E+02  0.17996439390E+02  0.52499513723E+02  0.00000000000E+00 0.  1.
          1    1    1    2  501    0 -0.97806670353E+02  0.14531939245E+03 -0.24776434584E+03  0.30343210387E+03  0.00000000000E+00 0. -1.
<scales pt_clust_5="13000.00000" pt_clust_6="13000.00000" pt_clust_7="13000.00000" pt_clust_8="13000.00000" pt_clust_9="13000.00000"></scales>
<clustering>
<clus scale="   91.408">  7  8 -1 -1</clus>
<clus scale="   92.015">  5  6 -1 -1</clus>
<clus scale="  175.168">  5  9 -1 -1</clus>
<clus scale="  186.080">  1  7  2 -1</clus>
<clus scale="  496.483">  2  5  1 -1</clus>
</clustering>
</event>
<event>
 9    1  0.3312826E-006  0.1808228E+03  0.7546771E-02  0.1191810E+00
         21   -1    0    0  501  502  0.00000000000E+00  0.00000000000E+00  0.53132071191E+02  0.53132071191E+02  0.00000000000E+00 0.  1.
          4   -1    0    0  502    0 -0.00000000000E+00 -0.00000000000E+00 -0.51679572608E+03  0.51679572608E+03  0.00000000000E+00 0. -1.
         23    2    1    2    0    0 -0.47767766932E+02  0.19717261436E+01 -0.32781569236E+03  0.34376071305E+03  0.91775009746E+02 0.  0.
         23    2    1    2    0    0  0.14062834705E+02  0.31919522745E+02 -0.17592963905E+02  0.98617549114E+02  0.90549927454E+02 0.  0.
        -11    1    3    3    0    0 -0.64905703241E+02  0.26443602693E+02 -0.18448150560E+03  0.19734599146E+03  0.00000000000E+00 0.  1.
         11    1    3    3    0    0  0.17137936309E+02 -0.24471876550E+02 -0.14333418676E+03  0.14641472159E+03  0.00000000000E+00 0. -1.
        -13    1    4    4    0    0 -0.34404278710E+02 -0.53304854124E+01  0.66516405121E+00  0.34821127372E+02  0.00000000000E+00 0. -1.
         13    1    4    4    0    0  0.48467113415E+02  0.37250008158E+02 -0.18258127956E+02  0.63796421741E+02  0.00000000000E+00 0.  1.
          4    1    1    2  501    0  0.33704932226E+02 -0.33891248889E+02 -0.11825499862E+03  0.12754953511E+03  0.00000000000E+00 0. -1.
<scales pt_clust_5="13000.00000" pt_clust_6="13000.00000" pt_clust_7="13000.00000" pt_clust_8="13000.00000" pt_clust_9="13000.00000"></scales>
<clustering>
<clus scale="   90.550">  7  8 -1 -1</clus>
<clus scale="   47.798">  7  9 -1 -1</clus>
<clus scale="   91.775">  5  6 -1 -1</clus>
<clus scale="  103.481">  2  5  1 -1</clus>
<clus scale="  180.823">  1  5  2 -1</clus>
</clustering>
</event>
<event>
 9    1  0.3312826E-006  0.1397973E+03  0.7546771E-02  0.1233980E+00
         21   -1    0    0  501  502  0.00000000000E+00  0.00000000000E+00  0.66346859079E+02  0.66346859079E+02  0.00000000000E+00 0. -1.
         -1   -1    0    0    0  501 -0.00000000000E+00 -0.00000000000E+00 -0.20180240632E+03  0.20180240632E+03  0.00000000000E+00 0.  1.
         23    2    1    2    0    0 -0.50344268978E+00 -0.53713105168E+01 -0.59623592348E+02  0.10910912900E+03  0.91218007187E+02 0.  0.
         23    2    1    2    0    0 -0.31392070457E+02  0.28395523561E+02 -0.57479847320E+02  0.11563232607E+03  0.90967764285E+02 0.  0.
        -11    1    4    4    0    0  0.30455672753E+02  0.22682877981E+02 -0.17896392571E+02  0.41980255161E+02  0.00000000000E+00 0. -1.
         11    1    4    4    0    0 -0.61847743209E+02  0.57126455806E+01 -0.39583454749E+02  0.73652070911E+02  0.00000000000E+00 0.  1.
        -11    1    3    3    0    0  0.25533577506E+02 -0.38899806000E+02 -0.43504466754E+02  0.63700840769E+02  0.00000000000E+00 0.  1.
         11    1    3    3    0    0 -0.26037020196E+02  0.33528495483E+02 -0.16119125594E+02  0.45408288230E+02  0.00000000000E+00 0. -1.
         -1    1    1    2    0  502  0.31895513147E+02 -0.23024213045E+02 -0.18352107576E+02  0.43407810331E+02  0.00000000000E+00 0.  1.
<scales pt_clust_5="13000.00000" pt_clust_6="13000.00000" pt_clust_7="13000.00000" pt_clust_8="13000.00000" pt_clust_9="13000.00000"></scales>
<clustering>
<clus scale="   90.968">  5  6 -1 -1</clus>
<clus scale="   39.338">  5  9 -1 -1</clus>
<clus scale="   91.218">  7  8 -1 -1</clus>
<clus scale="   91.377">  2  7  1 -1</clus>
<clus scale="  139.797">  1  5  2 -1</clus>
</clustering>
</event>
<event>
 9    1  0.3312826E-006  0.8748307E+03  0.7546771E-02  0.9705873E-01
          3   -1    0    0  502    0 -0.00000000000E+00  0.00000000000E+00  0.13804693786E+04  0.13804693786E+04  0.00000000000E+00 0. -1.
         21   -1    0    0  501  502  0.00000000000E+00 -0.00000000000E+00 -0.60798534190E+03  0.60798534190E+03  0.00000000000E+00 0. -1.
         23    2    1    2    0    0 -0.28598384387E+03  0.22047226680E+03  0.10145340160E+04  0.10807560150E+04  0.91430383301E+02 0.  0.
         23    2    1    2    0    0 -0.13696415423E+03  0.11888676775E+03  0.13790220433E+03  0.24557090404E+03  0.91623184099E+02 0.  0.
        -13    1    3    3    0    0 -0.26586162052E+02  0.58746922156E+02  0.22685601939E+03  0.23584248644E+03  0.00000000000E+00 0.  1.
         13    1    3    3    0    0 -0.25939768182E+03  0.16172534465E+03  0.78767799664E+03  0.84491352861E+03  0.00000000000E+00 0. -1.
        -13    1    4    4    0    0 -0.13664142182E+03  0.84452884293E+02  0.83120317851E+02  0.18086501890E+03  0.00000000000E+00 0. -1.
         13    1    4    4    0    0 -0.32273241069E+00  0.34433883453E+02  0.54781886478E+02  0.64705885142E+02  0.00000000000E+00 0.  1.
          3    1    1    2  501    0  0.42294799811E+03 -0.33935903455E+03 -0.37995218370E+03  0.66212780136E+03  0.00000000000E+00 0. -1.
<scales pt_clust_5="13000.00000" pt_clust_6="13000.00000" pt_clust_7="13000.00000" pt_clust_8="13000.00000" pt_clust_9="13000.00000"></scales>
<clustering>
<clus scale="   91.430">  5  6 -1 -1</clus>
<clus scale="   91.623">  7  8 -1 -1</clus>
<clus scale="  372.497">  1  5  2 -1</clus>
<clus scale="  389.229">  7  9 -1 -1</clus>
<clus scale="  874.831">  2  5  1 -1</clus>
</clustering>
</event>
<event>
 9    1  0.3312826E-006  0.2143342E+03  0.7546771E-02  0.1170577E+00
         21   -1    0    0  501  502  0.00000000000E+00  0.00000000000E+00  0.50581809241E+03  0.50581809241E+03  0.00000000000E+00 0. -1.
         -1   -1    0    0    0  501 -0.00000000000E+00 -0.00000000000E+00 -0.50009205751E+02  0.50009205751E+02  0.00000000000E+00 0.  1.
         23    2    1    2    0    0 -0.40841224673E+02 -0.69512388318E+01  0.10749928544E+03  0.14685452900E+03  0.91070472521E+02 0.  0.
         23    2    1    2    0    0  0.10587271702E+03 -0.11790799317E+01  0.15861143560E+03  0.20827251724E+03  0.83722347651E+02 0.  0.
        -11    1    3    3    0    0 -0.10499022054E+02  0.40324737009E+02  0.61301626849E+02  0.74122893449E+02  0.00000000000E+00 0. -1.
         11    1    3    3    0    0 -0.30342202619E+02 -0.47275975840E+02  0.46197658590E+02  0.72731635556E+02  0.00000000000E+00 0.  1.
        -11    1    4    4    0    0  0.36517362941E+02  0.39566175448E+02  0.53375555347E+02  0.75815235569E+02  0.00000000000E+00 0.  1.
         11    1    4    4    0    0  0.69355354076E+02 -0.40745255380E+02  0.10523588025E+03  0.13245728167E+03  0.00000000000E+00 0. -1.
         -1    1    1    2    0  502 -0.65031492344E+02  0.81303187635E+01  0.18969816563E+03  0.20070025192E+03  0.00000000000E+00 0.  1.
<scales pt_clust_5="13000.00000" pt_clust_6="13000.00000" pt_clust_7="13000.00000" pt_clust_8="13000.00000" pt_clust_9="13000.00000"></scales>
<clustering>
<clus scale="   83.722">  7  8 -1 -1</clus>
<clus scale="   65.538">  7  9 -1 -1</clus>
<clus scale="   91.070">  5  6 -1 -1</clus>
<clus scale="  100.051">  2  5  1 -1</clus>
<clus scale="  214.334">  1  5  2 -1</clus>
</clustering>
</event>
<event>
 9    1  0.3312826E-006  0.1468882E+03  0.7546771E-02  0.1224006E+00
          1   -1    0    0  502    0 -0.00000000000E+00  0.00000000000E+00  0.48871324724E+03  0.48871324724E+03  0.00000000000E+00 0. -1.
         21   -1    0    0  501  502  0.00000000000E+00 -0.00000000000E+00 -0.31350960368E+02  0.31350960368E+02  0.00000000000E+00 0. -1.
         23    2    1    2    0    0  0.25760825786E+02 -0.10182931022E+02  0.22790171210E+03  0.24761551902E+03  0.92773609678E+02 0.  0.
         23    2    1    2    0    0  0.18224114622E+02  0.31566931452E+02  0.15833773967E+03  0.18613294188E+03  0.90807723974E+02 0.  0.
        -11    1    3    3    0    0 -0.13521575803E+02 -0.14843466890E+02  0.42903677702E+01  0.20532140101E+02  0.00000000000E+00 0.  1.
         11    1    3    3    0    0  0.39282401589E+02  0.46605358685E+01  0.22361134433E+03  0.22708337892E+03  0.00000000000E+00 0. -1.
        -13    1    4    4    0    0 -0.33747986821E+02 -0.23490049299E+01  0.39036469573E+02  0.51655497242E+02  0.00000000000E+00 0.  1.
         13    1    4    4    0    0  0.51972101442E+02  0.33915936382E+02  0.11930127010E+03  0.13447744464E+03  0.00000000000E+00 0. -1.
          1    1    1    2  501    0 -0.43984940407E+02 -0.21384000430E+02  0.71122835105E+02  0.86315746712E+02  0.00000000000E+00 0. -1.
<scales pt_clust_5="13000.00000" pt_clust_6="13000.00000" pt_clust_7="13000.00000" pt_clust_8="13000.00000" pt_clust_9="13000.00000"></scales>
<clustering>
<clus scale="   90.808">  7  8 -1 -1</clus>
<clus scale="   48.908">  7  9 -1 -1</clus>
<clus scale="   92.774">  5  6 -1 -1</clus>
<clus scale="   96.821">  1  5  2 -1</clus>
<clus scale="  146.888">  2  5  1 -1</clus>
</clustering>
</event>
<event>
 9    1  0.3312826E-006  0.1866117E+03  0.7546771E-02  0.1194658E+00
         21   -1    0    0  501  502  0.00000000000E+00  0.00000000000E+00  0.12144685257E+03  0.12144685257E+03  0.00000000000E+00 0. -1.
         -1   -1    0    0    0  501 -0.00000000000E+00 -0.00000000000E+00 -0.15818032174E+03  0.15818032174E+03  0.00000000000E+00 0.  1.
         23    2    1    2    0    0 -0.82828285542E+01 -0.83675169952E+01 -0.28190426106E+02  0.92820042758E+02  0.87648386317E+02 0.  0.
         23    2    1    2    0    0  0.29431632445E+02  0.71410663970E+02 -0.26313429191E+01  0.12004892243E+03  0.91864660750E+02 0.  0.
        -11    1    4    4    0    0  0.38789307980E+02  0.22087670826E+02 -0.38013747104E+02  0.58630372547E+02  0.00000000000E+00 0.  1.
         11    1    4    4    0    0 -0.93576755349E+01  0.49322993144E+02  0.35382404185E+02  0.61418549886E+02  0.00000000000E+00 0. -1.
        -13    1    3    3    0    0 -0.60347139046E+01 -0.38553933032E+02  0.13506137374E+02  0.41294542871E+02  0.00000000000E+00 0.  1.
         13    1    3    3    0    0 -0.22481146496E+01  0.30186416037E+02 -0.41696563480E+02  0.51525499887E+02  0.00000000000E+00 0. -1.
         -1    1    1    2    0  502 -0.21148803891E+02 -0.63043146975E+02 -0.59117001473E+01  0.66758209121E+02  0.00000000000E+00 0.  1.
<scales pt_clust_5="13000.00000" pt_clust_6="13000.00000" pt_clust_7="13000.00000" pt_clust_8="13000.00000" pt_clust_9="13000.00000"></scales>
<clustering>
<clus scale="   87.648">  7  8 -1 -1</clus>
<clus scale="   88.436">  2  7  1 -1</clus>
<clus scale="   91.865">  5  6 -1 -1</clus>
<clus scale="   70.453">  5  9 -1 -1</clus>
<clus scale="  186.612">  1  5  2 -1</clus>
</clustering>
</event>
<event>
 9    1  0.3312826E-006  0.2222161E+03  0.7546771E-02  0.1164666E+00
         21   -1    0    0  501  502  0.00000000000E+00  0.00000000000E+00  0.46738670694E+02  0.46738670694E+02  0.00000000000E+00 0. -1.
          1   -1    0    0  502    0 -0.00000000000E+00 -0.00000000000E+00 -0.71162754360E+03  0.71162754360E+03  0.00000000000E+00 0. -1.
         23    2    1    2    0    0  0.53529263671E+02  0.87900909897E+01 -0.39803635487E+03  0.41110510353E+03  0.87360280337E+02 0.  0.
         23    2    1    2    0    0  0.11427379936E+02 -0.11296757655E+01 -0.23585181888E+02  0.95354293973E+02  0.91675075101E+02 0.  0.
        -11    1    4    4    0    0  0.98482903875E+01  0.27915199920E+02  0.24987594080E+02  0.38737928030E+02  0.00000000000E+00 0. -1.
         11    1    4    4    0    0  0.15790895489E+01 -0.29044875685E+02 -0.48572775968E+02  0.56616365943E+02  0.00000000000E+00 0.  1.
        -13    1    3    3    0    0  0.11461295977E+02  0.45495010355E+02 -0.19015269953E+03  0.19585506481E+03  0.00000000000E+00 0.  1.
         13    1    3    3    0    0  0.42067967694E+02 -0.36704919365E+02 -0.20788365534E+03  0.21525003872E+03  0.00000000000E+00 0. -1.
          1    1    1    2  501    0 -0.64956643607E+02 -0.76604152243E+01 -0.24326733615E+03  0.25190681679E+03  0.00000000000E+00 0. -1.
<scales pt_clust_5="13000.00000" pt_clust_6="13000.00000" pt_clust_7="13000.00000" pt_clust_8="13000.00000" pt_clust_9="13000.00000"></scales>
<clustering>
<clus scale="   87.360">  7  8 -1 -1</clus>
<clus scale="   91.675">  5  6 -1 -1</clus>
<clus scale="   65.407">  5  9 -1 -1</clus>
<clus scale="  102.832">  2  7  1 -1</clus>
<clus scale="  222.216">  1  5  2 -1</clus>
</clustering>
</event>
<event>
 9    1  0.3312826E-006  0.2338413E+03  0.7546771E-02  0.1162495E+00
          2   -1    0    0  502    0 -0.00000000000E+00  0.00000000000E+00  0.90308985121E+02  0.90308985121E+02  0.00000000000E+00 0. -1.
         21   -1    0    0  501  502  0.00000000000E+00 -0.00000000000E+00 -0.31039211813E+03  0.31039211813E+03  0.00000000000E+00 0.  1.
         23    2    1    2    0    0  0.20943405609E+02 -0.15006193694E+02 -0.10483803828E+03  0.14000362192E+03  0.89141392139E+02 0.  0.
         23    2    1    2    0    0  0.27047268131E+01  0.22253863502E+02  0.40674759355E+02  0.10282802962E+03  0.91742125765E+02 0.  0.
        -11    1    4    4    0    0 -0.71611619764E+01 -0.27000916918E+02  0.44400402849E+02  0.52456911160E+02  0.00000000000E+00 0.  1.
         11    1    4    4    0    0  0.98658887895E+01  0.49254780420E+02 -0.37256434939E+01  0.50371118464E+02  0.00000000000E+00 0. -1.
        -13    1    3    3    0    0 -0.27437902662E+02 -0.15760467819E+02 -0.79106226019E+02  0.85199916921E+02  0.00000000000E+00 0.  1.
         13    1    3    3    0    0  0.48381308271E+02  0.75427412496E+00 -0.25731812264E+02  0.54803705001E+02  0.00000000000E+00 0. -1.
          2    1    1    2  501    0 -0.23648132422E+02 -0.72476698075E+01 -0.15591985408E+03  0.15786945171E+03  0.00000000000E+00 0. -1.
<scales pt_clust_5="13000.00000" pt_clust_6="13000.00000" pt_clust_7="13000.00000" pt_clust_8="13000.00000" pt_clust_9="13000.00000"></scales>
<clustering>
<clus scale="   89.141">  7  8 -1 -1</clus>
<clus scale="   91.742">  5  6 -1 -1</clus>
<clus scale="   24.734">  5  9 -1 -1</clus>
<clus scale="   92.790">  1  7  2 -1</clus>
<clus scale="  233.841">  2  5  1 -1</clus>
</clustering>
</event>
<event>
 9    1  0.3312826E-006  0.2410683E+03  0.7546771E-02  0.1148653E+00
          1   -1    0    0  502    0 -0.00000000000E+00  0.00000000000E+00  0.13719692064E+03  0.13719692064E+03  0.00000000000E+00 0. -1.
         21   -1    0    0  501  502  0.00000000000E+00 -0.00000000000E+00 -0.69551631740E+03  0.69551631740E+03  0.00000000000E+00 0. -1.
         23    2    1    2    0    0 -0.65050993381E+02  0.32873314841E+02  0.85616202706E+02  0.14513269510E+03  0.91766434238E+02 0.  0.
         23    2    1    2    0    0  0.36330629651E+02  0.54444806541E+02 -0.15534522957E+03  0.19041873511E+03  0.88560729007E+02 0.  0.
        -11    1    4    4    0    0 -0.18145296292E+02  0.35349489561E+02 -0.11017343469E+03  0.11711969903E+03  0.00000000000E+00 0.  1.
         11    1    4    4    0    0  0.54475925943E+02  0.19095316981E+02 -0.45171794877E+02  0.73299036080E+02  0.00000000000E+00 0. -1.
        -13    1    3    3    0    0 -0.22321679603E+02 -0.29505917720E+02  0.48223265745E+02  0.60781081924E+02  0.00000000000E+00 0.  1.
         13    1    3    3    0    0 -0.42729313778E+02  0.62379232561E+02  0.37392936961E+02  0.84351613176E+02  0.00000000000E+00 0. -1.
          1    1    1    2  501    0  0.28720363730E+02 -0.87318121382E+02 -0.48859036989E+03  0.49716180783E+03  0.00000000000E+00 0. -1.
<scales pt_clust_5="13000.00000" pt_clust_6="13000.00000" pt_clust_7="13000.00000" pt_clust_8="13000.00000" pt_clust_9="13000.00000"></scales>
<clustering>
<clus scale="   88.561">  5  6 -1 -1</clus>
<clus scale="   91.766">  7  8 -1 -1</clus>
<clus scale="   91.920">  5  9 -1 -1</clus>
<clus scale="  117.189">  1  7  2 -1</clus>
<clus scale="  241.068">  2  5  1 -1</clus>
</clustering>
</event>
<event>
 9    1  0.3312826E-006  0.1853214E+03  0.7546771E-02  0.1193854E+00
          1   -1    0    0  502    0 -0.00000000000E+00  0.00000000000E+00  0.52393080647E+03  0.52393080647E+03  0.00000000000E+00 0. -1.
         21   -1    0    0  501  502  0.00000000000E+00 -0.00000000000E+00 -0.36749300422E+02  0.36749300422E+02  0.00000000000E+00 0.  1.
         23    2    1    2    0    0  0.57757771556E+01  0.14303459254E+02  0.17385365171E+03  0.19664936469E+03  0.90597637218E+02 0.  0.
         23    2    1    2    0    0  0.40741143542E+02  0.21107359414E+02  0.27908956793E+03  0.29628112784E+03  0.88239211188E+02 0.  0.
        -11    1    3    3    0    0  0.28168029708E+02 -0.30638316929E+02  0.82656402178E+02  0.92543099056E+02  0.00000000000E+00 0.  1.
         11    1    3    3    0    0 -0.22392252552E+02  0.44941776183E+02  0.91197249536E+02  0.10410626563E+03  0.00000000000E+00 0. -1.
        -13    1    4    4    0    0  0.39343675639E+02  0.53653447747E+02  0.19864707387E+03  0.20949290495E+03  0.00000000000E+00 0.  1.
         13    1    4    4    0    0  0.13974679025E+01 -0.32546088333E+02  0.80442494063E+02  0.86788222896E+02  0.00000000000E+00 0. -1.
          1    1    1    2  501    0 -0.46516920697E+02 -0.35410818668E+02  0.34238286401E+02  0.67749614357E+02  0.00000000000E+00 0. -1.
<scales pt_clust_5="13000.00000" pt_clust_6="13000.00000" pt_clust_7="13000.00000" pt_clust_8="13000.00000" pt_clust_9="13000.00000"></scales>
<clustering>
<clus scale="   88.239">  7  8 -1 -1</clus>
<clus scale="   58.462">  7  9 -1 -1</clus>
<clus scale="   90.598">  5  6 -1 -1</clus>
<clus scale="   91.901">  1  5  2 -1</clus>
<clus scale="  185.321">  2  5  1 -1</clus>
</clustering>
</event>
<event>
 9    1  0.3312826E-006  0.1499527E+03  0.7546771E-02  0.1206664E+00
          2   -1    0    0  502    0 -0.00000000000E+00  0.00000000000E+00  0.27388573082E+03  0.27388573082E+03  0.00000000000E+00 0. -1.
         21   -1    0    0  501  502  0.00000000000E+00 -0.00000000000E+00 -0.78794126553E+02  0.78794126553E+02  0.00000000000E+00 0. -1.
         23    2    1    2    0    0  0.46012316261E+02  0.83146798473E+02  0.14241170650E+03  0.19374282797E+03  0.90689943746E+02 0.  0.
         23    2    1    2    0    0 -0.45923138076E+02 -0.52104996263E+02  0.53312572395E+02  0.12788865240E+03  0.93217014495E+02 0.  0.
        -11    1    3    3    0    0 -0.53677605740E+01  0.45858189036E+02  0.10501175291E+02  0.47350406944E+02  0.00000000000E+00 0.  1.
         11    1    3    3    0    0  0.51380076835E+02  0.37288609437E+02  0.13191053121E+03  0.14639242102E+03  0.00000000000E+00 0. -1.
        -11    1    4    4    0    0 -0.29504162066E+02  0.12280019825E+02 -0.12548270623E+02  0.34332980671E+02  0.00000000000E+00 0.  1.
         11    1    4    4    0    0 -0.16418976010E+02 -0.64385016088E+02  0.65860843019E+02  0.93555671731E+02  0.00000000000E+00 0. -1.
          2    1    1    2  501    0 -0.89178185384E-01 -0.31041802210E+02 -0.63267463107E+00  0.31048377001E+02  0.00000000000E+00 0. -1.
<scales pt_clust_5="13000.00000" pt_clust_6="13000.00000" pt_clust_7="13000.00000" pt_clust_8="13000.00000" pt_clust_9="13000.00000"></scales>
<clustering>
<clus scale="   90.690">  5  6 -1 -1</clus>
<clus scale="   93.217">  7  8 -1 -1</clus>
<clus scale="   31.042">  7  9 -1 -1</clus>
<clus scale="  131.359">  1  5  2 -1</clus>
<clus scale="  149.953">  2  5  1 -1</clus>
</clustering>
</event>
<event>
 9    1  0.3312826E-006  0.2867649E+03  0.7546771E-02  0.1125711E+00
         -1   -1    0    0    0  501 -0.00000000000E+00  0.00000000000E+00  0.10465568691E+03  0.10465568691E+03  0.00000000000E+00 0.  1.
         21   -1    0    0  501  502  0.00000000000E+00 -0.00000000000E+00 -0.42839046763E+03  0.42839046763E+03  0.00000000000E+00 0.  1.
         23    2    1    2    0    0  0.29614493953E+02  0.22916007609E+02 -0.35614475483E+02  0.12653977284E+03  0.11550654349E+03 0.  0.
         23    2    1    2    0    0  0.35596552908E+02  0.26630052856E+02  0.73889600477E+01  0.99858344675E+02  0.89111267394E+02 0.  0.
        -11    1    4    4    0    0  0.92703116229E+01  0.57782156707E+02  0.80138246918E+01  0.59067230319E+02  0.00000000000E+00 0.  1.
         11    1    4    4    0    0  0.26326241285E+02 -0.31152103851E+02 -0.62486464408E+00  0.40791114356E+02  0.00000000000E+00 0. -1.
        -11    1    3    3    0    0  0.54930160823E+02  0.56769812398E+02 -0.20114484374E+02  0.81515192751E+02  0.00000000000E+00 0.  1.
         11    1    3    3    0    0 -0.25315666870E+02 -0.33853804789E+02 -0.15499991109E+02  0.45024580088E+02  0.00000000000E+00 0. -1.
         -1    1    1    2    0  502 -0.65211046861E+02 -0.49546060465E+02 -0.29550926529E+03  0.30664803703E+03  0.00000000000E+00 0.  1.
<scales pt_clust_5="13000.00000" pt_clust_6="13000.00000" pt_clust_7="13000.00000" pt_clust_8="13000.00000" pt_clust_9="13000.00000"></scales>
<clustering>
<clus scale="   89.111">  5  6 -1 -1</clus>
<clus scale="   81.898">  5  9 -1 -1</clus>
<clus scale="  115.507">  7  8 -1 -1</clus>
<clus scale="  121.425">  1  7  2 -1</clus>
<clus scale="  286.765">  2  5  1 -1</clus>
</clustering>
</event>
<event>
 9    1  0.3312826E-006  0.2851695E+03  0.7546771E-02  0.1110132E+00
         21   -1    0    0  501  502  0.00000000000E+00  0.00000000000E+00  0.53726668963E+02  0.53726668963E+02  0.00000000000E+00 0. -1.
          2   -1    0    0  502    0 -0.00000000000E+00 -0.00000000000E+00 -0.10181833292E+04  0.10181833292E+04  0.00000000000E+00 0. -1.
         23    2    1    2    0    0 -0.15224322922E+03  0.35779029364E+02 -0.38258213576E+03  0.42391337892E+03  0.94208929722E+02 0.  0.
         23    2    1    2    0    0 -0.17098076662E+02 -0.16436903001E+02 -0.10156809969E+03  0.13834491717E+03  0.90888509873E+02 0.  0.
        -11    1    4    4    0    0 -0.29967680100E+02  0.26738325540E+02 -0.19323287971E+02  0.44568928204E+02  0.00000000000E+00 0. -1.
         11    1    4    4    0    0  0.12869603438E+02 -0.43175228541E+02 -0.82244811722E+02  0.93775988970E+02  0.00000000000E+00 0.  1.
        -13    1    3    3    0    0 -0.48351028977E+02 -0.17574267308E+02 -0.20508292196E+03  0.21143718158E+03  0.00000000000E+00 0. -1.
         13    1    3    3    0    0 -0.10389220024E+03  0.53353296671E+02 -0.17749921381E+03  0.21247619735E+03  0.00000000000E+00 0.  1.
          2    1    1    2  501    0  0.16934130588E+03 -0.19342126363E+02 -0.48030642476E+03  0.50965170205E+03  0.00000000000E+00 0. -1.
<scales pt_clust_5="13000.00000" pt_clust_6="13000.00000" pt_clust_7="13000.00000" pt_clust_8="13000.00000" pt_clust_9="13000.00000"></scales>
<clustering>
<clus scale="   90.889">  5  6 -1 -1</clus>
<clus scale="   94.209">  7  8 -1 -1</clus>
<clus scale="  170.442">  5  9 -1 -1</clus>
<clus scale="  182.575">  2  7  1 -1</clus>
<clus scale="  285.170">  1  5  2 -1</clus>
</clustering>
</event>
<event>
 9    1  0.6711117E-006  0.3020650E+03  0.7546771E-02  0.1131126E+00
         21   -1    0    0  501  502  0.00000000000E+00  0.00000000000E+00  0.95982330543E+02  0.95982330543E+02  0.00000000000E+00 0. -1.
          2   -1    0    0  502    0 -0.00000000000E+00 -0.00000000000E+00 -0.49973209307E+03  0.49973209307E+03  0.00000000000E+00 0. -1.
         23    2    1    2    0    0  0.26464541646E+02 -0.22630891315E+02  0.68904576844E+00  0.90923342557E+02  0.83988393433E+02 0.  0.
         23    2    1    2    0    0  0.24366962158E+02  0.25076124687E+02 -0.43474766001E+03  0.44555893237E+03  0.91075097923E+02 0.  0.
        -11    1    4    4    0    0  0.39562897715E+02  0.51278426557E+02 -0.33910230036E+03  0.34523190759E+03  0.00000000000E+00 0. -1.
         11    1    4    4    0    0 -0.15195935556E+02 -0.26202301869E+02 -0.95645359643E+02  0.10032702478E+03  0.00000000000E+00 0.  1.
        -11    1    3    3    0    0 -0.21645477716E+02 -0.34555134759E+02 -0.47922893308E+01  0.41055451292E+02  0.00000000000E+00 0.  1.
         11    1    3    3    0    0  0.48110019362E+02  0.11924243444E+02  0.54813350992E+01  0.49867891265E+02  0.00000000000E+00 0. -1.
          2    1    1    2  501    0 -0.50831503805E+02 -0.24452333723E+01  0.30308851713E+02  0.59232148682E+02  0.00000000000E+00 0. -1.
<scales pt_clust_5="13000.00000" pt_clust_6="13000.00000" pt_clust_7="13000.00000" pt_clust_8="13000.00000" pt_clust_9="13000.00000"></scales>
<clustering>
<clus scale="   83.988">  7  8 -1 -1</clus>
<clus scale="   90.921">  2  7  1 -1</clus>
<clus scale="   91.075">  5  6 -1 -1</clus>
<clus scale="   50.090">  5  9 -1 -1</clus>
<clus scale="  302.065">  1  5  2 -1</clus>
</clustering>
</event>
<event>
 9    1  0.3312826E-006  0.3705549E+03  0.7546771E-02  0.1097343E+00
          1   -1    0    0  502    0 -0.00000000000E+00  0.00000000000E+00  0.23975918923E+03  0.23975918923E+03  0.00000000000E+00 0. -1.
         21   -1    0    0  501  502  0.00000000000E+00 -0.00000000000E+00 -0.24878732120E+03  0.24878732120E+03  0.00000000000E+00 0. -1.
         23    2    1    2    0    0  0.35259610488E+02  0.60803967853E+02 -0.21981413834E+02  0.11776529027E+03  0.91897325311E+02 0.  0.
         23    2    1    2    0    0 -0.58005190030E+01 -0.51530799853E+02  0.17611503856E+03  0.20472222895E+03  0.90584848979E+02 0.  0.
        -13    1    4    4    0    0 -0.43390331994E+02 -0.43824080604E+02  0.78439616519E+02  0.99779979911E+02  0.00000000000E+00 0. -1.
         13    1    4    4    0    0  0.37589812991E+02 -0.77067192491E+01  0.97675422039E+02  0.10494224904E+03  0.00000000000E+00 0.  1.
        -13    1    3    3    0    0 -0.21491767168E+02  0.29444415038E+02 -0.36212020734E+02  0.51382682672E+02  0.00000000000E+00 0.  1.
         13    1    3    3    0    0  0.56751377655E+02  0.31359552816E+02  0.14230606900E+02  0.66382607597E+02  0.00000000000E+00 0. -1.
          1    1    1    2  501    0 -0.29459091485E+02 -0.92731680005E+01 -0.16316175669E+03  0.16605899122E+03  0.00000000000E+00 0. -1.
<scales pt_clust_5="13000.00000" pt_clust_6="13000.00000" pt_clust_7="13000.00000" pt_clust_8="13000.00000" pt_clust_9="13000.00000"></scales>
<clustering>
<clus scale="   90.585">  5  6 -1 -1</clus>
<clus scale="   30.884">  5  9 -1 -1</clus>
<clus scale="   91.897">  7  8 -1 -1</clus>
<clus scale="  115.696">  1  7  2 -1</clus>
<clus scale="  370.555">  2  5  1 -1</clus>
</clustering>
</event>
<event>
 9    1  0.3312826E-006  0.2641621E+03  0.7546771E-02  0.1143931E+00
         21   -1    0    0  501  502  0.00000000000E+00  0.00000000000E+00  0.65781241466E+03  0.65781241466E+03  0.00000000000E+00 0. -1.
         -4   -1    0    0    0  501 -0.00000000000E+00 -0.00000000000E+00 -0.56596133864E+02  0.56596133864E+02  0.00000000000E+00 0.  1.
         23    2    1    2    0    0 -0.31393109569E+02 -0.15500319611E+02  0.72123920621E+02  0.12303699388E+03  0.93329816778E+02 0.  0.
         23    2    1    2    0    0  0.92928851188E+02 -0.49400123952E+02  0.44080876555E+03  0.46570251251E+03  0.10719290436E+03 0.  0.
        -11    1    4    4    0    0  0.27581139043E+02 -0.72273002854E+02  0.18123274955E+03  0.19705180964E+03  0.00000000000E+00 0. -1.
         11    1    4    4    0    0  0.65347712145E+02  0.22872878901E+02  0.25957601600E+03  0.26865070288E+03  0.00000000000E+00 0.  1.
        -13    1    3    3    0    0 -0.62586789278E+02 -0.10593338921E+02  0.64616938567E+02  0.90579654291E+02  0.00000000000E+00 0.  1.
         13    1    3    3    0    0  0.31193679710E+02 -0.49069806896E+01  0.75069820535E+01  0.32457339584E+02  0.00000000000E+00 0. -1.
         -4    1    1    2    0  502 -0.61535741620E+02  0.64900443564E+02  0.88283594623E+02  0.12566904213E+03  0.00000000000E+00 0.  1.
<scales pt_clust_5="13000.00000" pt_clust_6="13000.00000" pt_clust_7="13000.00000" pt_clust_8="13000.00000" pt_clust_9="13000.00000"></scales>
<clustering>
<clus scale="   93.330">  7  8 -1 -1</clus>
<clus scale="   99.681">  2  7  1 -1</clus>
<clus scale="  107.193">  5  6 -1 -1</clus>
<clus scale="   97.734">  5  9 -1 -1</clus>
<clus scale="  264.162">  1  5  2 -1</clus>
</clustering>
</event>
<event>
 9    1  0.3312826E-006  0.3120556E+03  0.7546771E-02  0.1120561E+00
         21   -1    0    0  501  502  0.00000000000E+00  0.00000000000E+00  0.31670197467E+03  0.31670197467E+03  0.00000000000E+00 0.  1.
         -3   -1    0    0    0  501 -0.00000000000E+00 -0.00000000000E+00 -0.14173757452E+03  0.14173757452E+03  0.00000000000E+00 0.  1.
         23    2    1    2    0    0 -0.24483987929E+02  0.51057911224E+02  0.16217990080E+02  0.10832651258E+03  0.90913333249E+02 0.  0.
         23    2    1    2    0    0 -0.49637312170E+02  0.60268306560E+02 -0.25400904064E+02  0.12252189619E+03  0.90941066536E+02 0.  0.
        -11    1    3    3    0    0  0.41226476583E+01  0.63373498527E+02 -0.13889112783E+02  0.65008491700E+02  0.00000000000E+00 0.  1.
         11    1    3    3    0    0 -0.28606635587E+02 -0.12315587303E+02  0.30107102864E+02  0.43318020881E+02  0.00000000000E+00 0. -1.
        -11    1    4    4    0    0 -0.45489543059E+02  0.17173301119E+02  0.26144816421E+02  0.55206632072E+02  0.00000000000E+00 0.  1.
         11    1    4    4    0    0 -0.41477691114E+01  0.43095005441E+02 -0.51545720485E+02  0.67315264115E+02  0.00000000000E+00 0. -1.
         -3    1    1    2    0  502  0.74121300099E+02 -0.11132621778E+03  0.18414731413E+03  0.22759114042E+03  0.00000000000E+00 0.  1.
<scales pt_clust_5="13000.00000" pt_clust_6="13000.00000" pt_clust_7="13000.00000" pt_clust_8="13000.00000" pt_clust_9="13000.00000"></scales>
<clustering>
<clus scale="   90.913">  5  6 -1 -1</clus>
<clus scale="   90.941">  7  8 -1 -1</clus>
<clus scale="  107.106">  2  5  1 -1</clus>
<clus scale="  121.029">  7  9 -1 -1</clus>
<clus scale="  312.056">  1  5  2 -1</clus>
</clustering>
</event>
<event>
 9    1  0.3312826E-006  0.3299147E+03  0.7546771E-02  0.1112887E+00
         21   -1    0    0  501  502  0.00000000000E+00  0.00000000000E+00  0.83724921441E+03  0.83724921441E+03  0.00000000000E+00 0. -1.
          1   -1    0    0  502    0 -0.00000000000E+00 -0.00000000000E+00 -0.75213836610E+02  0.75213836610E+02  0.00000000000E+00 0. -1.
         23    2    1    2    0    0  0.40929516474E+02 -0.45766699518E+02  0.37174895703E+02  0.11605457749E+03  0.91196907739E+02 0.  0.
         23    2    1    2    0    0 -0.11763694504E+03 -0.63847039959E+02  0.21618306042E+03  0.27043136301E+03  0.92103806293E+02 0.  0.
        -11    1    4    4    0    0 -0.25606296777E+02 -0.61692335494E+02  0.11971249117E+03  0.13708649545E+03  0.00000000000E+00 0.  1.
         11    1    4    4    0    0 -0.92030648262E+02 -0.21547044653E+01  0.96470569253E+02  0.13334486755E+03  0.00000000000E+00 0. -1.
        -13    1    3    3    0    0  0.60549137650E+01  0.22905407627E+02  0.30677113239E+02  0.38760868875E+02  0.00000000000E+00 0.  1.
         13    1    3    3    0    0  0.34874602709E+02 -0.68672107145E+02  0.64977824644E+01  0.77293708611E+02  0.00000000000E+00 0. -1.
          1    1    1    2  501    0  0.76707428566E+02  0.10961373948E+03  0.50867742167E+03  0.52597711053E+03  0.00000000000E+00 0. -1.
<scales pt_clust_5="13000.00000" pt_clust_6="13000.00000" pt_clust_7="13000.00000" pt_clust_8="13000.00000" pt_clust_9="13000.00000"></scales>
<clustering>
<clus scale="   91.197">  7  8 -1 -1</clus>
<clus scale="   92.104">  5  6 -1 -1</clus>
<clus scale="  109.939">  2  7  1 -1</clus>
<clus scale="  131.194">  5  9 -1 -1</clus>
<clus scale="  329.915">  1  5  2 -1</clus>
</clustering>
</event>
<event>
 9    1  0.3312826E-006  0.1225485E+03  0.7546771E-02  0.1253727E+00
         21   -1    0    0  501  502  0.00000000000E+00  0.00000000000E+00  0.35132052796E+03  0.35132052796E+03  0.00000000000E+00 0. -1.
         -3   -1    0    0    0  501 -0.00000000000E+00 -0.00000000000E+00 -0.41536814423E+02  0.41536814423E+02  0.00000000000E+00 0.  1.
         23    2    1    2    0    0  0.67045056046E+01 -0.19873963010E+01  0.46048628318E+02  0.10204067721E+03  0.90790547397E+02 0.  0.
         23    2    1    2    0    0 -0.30182079205E+02 -0.60236416922E+01  0.19914022760E+03  0.22162223749E+03  0.92262363586E+02 0.  0.
        -11    1    3    3    0    0 -0.37539685698E+02  0.12340282956E+02  0.46698952560E+01  0.39790934991E+02  0.00000000000E+00 0. -1.
         11    1    3    3    0    0  0.44244191303E+02 -0.14327679257E+02  0.41378733062E+02  0.62249742222E+02  0.00000000000E+00 0.  1.
        -11    1    4    4    0    0 -0.38373099234E+02 -0.42824339823E+02  0.14160996168E+03  0.15283913136E+03  0.00000000000E+00 0.  1.
         11    1    4    4    0    0  0.81910200295E+01  0.36800698131E+02  0.57530265922E+02  0.68783106131E+02  0.00000000000E+00 0. -1.
         -3    1    1    2    0  502  0.23477573600E+02  0.80110379932E+01  0.64594857614E+02  0.69194427680E+02  0.00000000000E+00 0.  1.
<scales pt_clust_5="13000.00000" pt_clust_6="13000.00000" pt_clust_7="13000.00000" pt_clust_8="13000.00000" pt_clust_9="13000.00000"></scales>
<clustering>
<clus scale="   90.791">  5  6 -1 -1</clus>
<clus scale="   91.059">  2  5  1 -1</clus>
<clus scale="   92.262">  7  8 -1 -1</clus>
<clus scale="   25.785">  7  9 -1 -1</clus>
<clus scale="  122.549">  1  5  2 -1</clus>
</clustering>
</event>
<event>
 9    1  0.3312826E-006  0.3520440E+03  0.7546771E-02  0.1110482E+00
         21   -1    0    0  501  502  0.00000000000E+00  0.00000000000E+00  0.14355823535E+03  0.14355823535E+03  0.00000000000E+00 0. -1.
          2   -1    0    0  502    0 -0.00000000000E+00 -0.00000000000E+00 -0.56702940095E+03  0.56702940095E+03  0.00000000000E+00 0. -1.
         23    2    1    2    0    0  0.32868135320E+02 -0.10320032077E+02 -0.33369090535E+03  0.34727581502E+03  0.89800077988E+02 0.  0.
         23    2    1    2    0    0  0.12903006798E+03 -0.62718259158E+02 -0.11942722449E+02  0.16939353305E+03  0.89270386730E+02 0.  0.
        -11    1    4    4    0    0  0.30622461629E+02 -0.61271533287E+02 -0.17891175839E+02  0.70795692810E+02  0.00000000000E+00 0.  1.
         11    1    4    4    0    0  0.98407606348E+02 -0.14467258706E+01  0.59484533899E+01  0.98597840244E+02  0.00000000000E+00 0. -1.
        -11    1    3    3    0    0  0.23908548034E+02  0.38415266282E+02 -0.18878334129E+03  0.19413011436E+03  0.00000000000E+00 0.  1.
         11    1    3    3    0    0  0.89595872864E+01 -0.48735298360E+02 -0.14490756406E+03  0.15314570066E+03  0.00000000000E+00 0. -1.
          2    1    1    2  501    0 -0.16189820330E+03  0.73038291235E+02 -0.77837537797E+02  0.19391828822E+03  0.00000000000E+00 0. -1.
<scales pt_clust_5="13000.00000" pt_clust_6="13000.00000" pt_clust_7="13000.00000" pt_clust_8="13000.00000" pt_clust_9="13000.00000"></scales>
<clustering>
<clus scale="   89.270">  5  6 -1 -1</clus>
<clus scale="   89.800">  7  8 -1 -1</clus>
<clus scale="   96.181">  2  7  1 -1</clus>
<clus scale="  157.115">  5  9 -1 -1</clus>
<clus scale="  352.044">  1  5  2 -1</clus>
</clustering>
</event>
<event>
 9    1  0.3312826E-006  0.3008668E+03  0.7546771E-02  0.1121528E+00
         21   -1    0    0  501  502  0.00000000000E+00  0.00000000000E+00  0.35422994258E+03  0.35422994258E+03  0.00000000000E+00 0. -1.
          4   -1    0    0  502    0 -0.00000000000E+00 -0.00000000000E+00 -0.19053394464E+03  0.19053394464E+03  0.00000000000E+00 0. -1.
         23    2    1    2    0    0  0.22389607772E+02  0.68008905753E+02 -0.93065236267E+02  0.14922983518E+03  0.92097229651E+02 0.  0.
         23    2    1    2    0    0  0.14713264586E+02  0.52441999600E+02 -0.45915649697E+01  0.10537835354E+03  0.90093681511E+02 0.  0.
        -13    1    4    4    0    0  0.43753288514E+02  0.10540991727E+01 -0.13234396710E+02  0.45723195833E+02  0.00000000000E+00 0.  1.
         13    1    4    4    0    0 -0.29040023928E+02  0.51387900428E+02  0.86428317401E+01  0.59655157703E+02  0.00000000000E+00 0. -1.
        -13    1    3    3    0    0 -0.98680695157E+01  0.45903029846E+02 -0.99101674116E+02  0.10966133666E+03  0.00000000000E+00 0. -1.
         13    1    3    3    0    0  0.32257677287E+02  0.22105875907E+02  0.60364378492E+01  0.39568498525E+02  0.00000000000E+00 0.  1.
          4    1    1    2  501    0 -0.37102872357E+02 -0.12045090535E+03  0.26135279917E+03  0.29015569850E+03  0.00000000000E+00 0. -1.
<scales pt_clust_5="13000.00000" pt_clust_6="13000.00000" pt_clust_7="13000.00000" pt_clust_8="13000.00000" pt_clust_9="13000.00000"></scales>
<clustering>
<clus scale="   90.094">  5  6 -1 -1</clus>
<clus scale="   92.097">  7  8 -1 -1</clus>
<clus scale="  116.655">  2  7  1 -1</clus>
<clus scale="  111.178">  5  9 -1 -1</clus>
<clus scale="  300.867">  1  5  2 -1</clus>
</clustering>
</event>
<event>
 9    1  0.3312826E-006  0.2356921E+03  0.7546771E-02  0.1134736E+00
         21   -1    0    0  501  502  0.00000000000E+00  0.00000000000E+00  0.14046568439E+03  0.14046568439E+03  0.00000000000E+00 0.  1.
         -1   -1    0    0    0  501 -0.00000000000E+00 -0.00000000000E+00 -0.31605832224E+03  0.31605832224E+03  0.00000000000E+00 0.  1.
         23    2    1    2    0    0  0.14927020598E+03 -0.14286087296E+02 -0.12557083591E+03  0.21558218279E+03  0.90675002183E+02 0.  0.
         23    2    1    2    0    0 -0.39941850556E+02 -0.33362028415E+02 -0.61360274004E+02  0.12114368871E+03  0.90566736296E+02 0.  0.
        -11    1    4    4    0    0 -0.20151259512E+01  0.23143991508E+02  0.74180772962E+01  0.24387147154E+02  0.00000000000E+00 0.  1.
         11    1    4    4    0    0 -0.37926724605E+02 -0.56506019923E+02 -0.68778351300E+02  0.96756541559E+02  0.00000000000E+00 0. -1.
        -13    1    3    3    0    0  0.10817043830E+03 -0.51188723787E+02 -0.91970193564E+02  0.15092927373E+03  0.00000000000E+00 0.  1.
         13    1    3    3    0    0  0.41099767685E+02  0.36902636491E+02 -0.33600642343E+02  0.64652909058E+02  0.00000000000E+00 0. -1.
         -1    1    1    2    0  502 -0.10932835542E+03  0.47648115711E+02  0.11338472061E+02  0.11979813512E+03  0.00000000000E+00 0.  1.
<scales pt_clust_5="13000.00000" pt_clust_6="13000.00000" pt_clust_7="13000.00000" pt_clust_8="13000.00000" pt_clust_9="13000.00000"></scales>
<clustering>
<clus scale="   90.567">  5  6 -1 -1</clus>
<clus scale="   90.675">  7  8 -1 -1</clus>
<clus scale="  119.260">  5  9 -1 -1</clus>
<clus scale="  175.236">  2  7  1 -1</clus>
<clus scale="  235.692">  1  5  2 -1</clus>
</clustering>
</event>
<event>
 9    1  0.3312826E-006  0.1241347E+03  0.7546771E-02  0.1251730E+00
         21   -1    0    0  501  502  0.00000000000E+00  0.00000000000E+00  0.28001718110E+03  0.28001718110E+03  0.00000000000E+00 0.  1.
         -1   -1    0    0    0  501 -0.00000000000E+00 -0.00000000000E+00 -0.14849085890E+03  0.14849085890E+03  0.00000000000E+00 0.  1.
         23    2    1    2    0    0 -0.12943204227E+02  0.35313262951E+01 -0.11841259991E+03  0.14944014210E+03  0.90171034446E+02 0.  0.
         23    2    1    2    0    0 -0.15148597661E+02 -0.38768813304E+01  0.18114878105E+03  0.20476209565E+03  0.94170721124E+02 0.  0.
        -13    1    3    3    0    0  0.36353296491E+02 -0.52923259754E+01 -0.28400682547E+02  0.46434573856E+02  0.00000000000E+00 0. -1.
         13    1    3    3    0    0 -0.49296500719E+02  0.88236522705E+01 -0.90011917360E+02  0.10300556824E+03  0.00000000000E+00 0.  1.
        -13    1    4    4    0    0  0.33406255939E+02 -0.97895093959E+01  0.30197163970E+02  0.46083415042E+02  0.00000000000E+00 0. -1.
         13    1    4    4    0    0 -0.48554853601E+02  0.59126280654E+01  0.15095161708E+03  0.15867868061E+03  0.00000000000E+00 0.  1.
         -1    1    1    2    0  502  0.28091801889E+02  0.34555503537E+00  0.68790141059E+02  0.74305802253E+02  0.00000000000E+00 0.  1.
<scales pt_clust_5="13000.00000" pt_clust_6="13000.00000" pt_clust_7="13000.00000" pt_clust_8="13000.00000" pt_clust_9="13000.00000"></scales>
<clustering>
<clus scale="   90.171">  5  6 -1 -1</clus>
<clus scale="   91.164">  2  5  1 -1</clus>
<clus scale="   94.171">  7  8 -1 -1</clus>
<clus scale="   25.661">  7  9 -1 -1</clus>
<clus scale="  124.135">  1  5  2 -1</clus>
</clustering>
</event>
<event>
 9    1  0.3312826E-006  0.1940220E+03  0.7546771E-02  0.1181864E+00
         -4   -1    0    0    0  501 -0.00000000000E+00  0.00000000000E+00  0.17946390079E+03  0.17946390079E+03  0.00000000000E+00 0.  1.
         21   -1    0    0  501  502  0.00000000000E+00 -0.00000000000E+00 -0.24981528834E+03  0.24981528834E+03  0.00000000000E+00 0. -1.
         23    2    1    2    0    0  0.43433282484E+02  0.34151403993E+02  0.11887324378E+03  0.15826168692E+03  0.88674376441E+02 0.  0.
         23    2    1    2    0    0  0.27443559502E+02 -0.66630972040E+02 -0.11964619757E+03  0.16652057633E+03  0.90670030096E+02 0.  0.
        -13    1    3    3    0    0  0.51600174105E+02  0.56348731016E+02  0.10783790785E+03  0.13216191518E+03  0.00000000000E+00 0.  1.
         13    1    3    3    0    0 -0.81668916213E+01 -0.22197327023E+02  0.11035335936E+02  0.26099771741E+02  0.00000000000E+00 0. -1.
        -13    1    4    4    0    0  0.10721258536E+02 -0.85600195615E+02 -0.71137559229E+02  0.11181632800E+03  0.00000000000E+00 0. -1.
         13    1    4    4    0    0  0.16722300966E+02  0.18969223576E+02 -0.48508638337E+02  0.54704248336E+02  0.00000000000E+00 0.  1.
         -4    1    1    2    0  502 -0.70876841986E+02  0.32479568047E+02 -0.69578433770E+02  0.10449692587E+03  0.00000000000E+00 0.  1.
<scales pt_clust_5="13000.00000" pt_clust_6="13000.00000" pt_clust_7="13000.00000" pt_clust_8="13000.00000" pt_clust_9="13000.00000"></scales>
<clustering>
<clus scale="   88.674">  5  6 -1 -1</clus>
<clus scale="   90.670">  7  8 -1 -1</clus>
<clus scale="   77.964">  7  9 -1 -1</clus>
<clus scale="  104.479">  1  5  2 -1</clus>
<clus scale="  194.022">  2  5  1 -1</clus>
</clustering>
</event>
<event>
 9    1  0.3312826E-006  0.3738145E+03  0.7546771E-02  0.1082462E+00
         21   -1    0    0  501  502  0.00000000000E+00  0.00000000000E+00  0.11587904950E+03  0.11587904950E+03  0.00000000000E+00 0.  1.
         -3   -1    0    0    0  501 -0.00000000000E+00 -0.00000000000E+00 -0.96149550963E+03  0.96149550963E+03  0.00000000000E+00 0.  1.
         23    2    1    2    0    0  0.12745997098E+03  0.58355978168E+02 -0.61696696117E+03  0.63917614286E+03  0.90809944613E+02 0.  0.
         23    2    1    2    0    0 -0.38307626444E+02 -0.11223816252E+03 -0.28308451159E+03  0.32066288578E+03  0.92859928085E+02 0.  0.
        -11    1    4    4    0    0 -0.30504468387E+02  0.67083386734E+01 -0.65504437677E+02  0.72569661393E+02  0.00000000000E+00 0. -1.
         11    1    4    4    0    0 -0.78031580571E+01 -0.11894650120E+03 -0.21758007391E+03  0.24809322439E+03  0.00000000000E+00 0.  1.
        -11    1    3    3    0    0  0.67489142847E+02 -0.75319508980E+01 -0.37987431759E+03  0.38589637450E+03  0.00000000000E+00 0.  1.
         11    1    3    3    0    0  0.59970828129E+02  0.65887929066E+02 -0.23709264358E+03  0.25327976837E+03  0.00000000000E+00 0. -1.
         -3    1    1    2    0  502 -0.89152344533E+02  0.53882184355E+02  0.54435012624E+02  0.11753553048E+03  0.00000000000E+00 0.  1.
<scales pt_clust_5="13000.00000" pt_clust_6="13000.00000" pt_clust_7="13000.00000" pt_clust_8="13000.00000" pt_clust_9="13000.00000"></scales>
<clustering>
<clus scale="   90.810">  7  8 -1 -1</clus>
<clus scale="   92.860">  5  6 -1 -1</clus>
<clus scale="  104.170">  5  9 -1 -1</clus>
<clus scale="  167.027">  2  7  1 -1</clus>
<clus scale="  373.814">  1  5  2 -1</clus>
</clustering>
</event>
<event>
 9    1  0.3312826E-006  0.2649926E+03  0.7546771E-02  0.1146643E+00
          1   -1    0    0  502    0 -0.00000000000E+00  0.00000000000E+00  0.36373513173E+03  0.36373513173E+03  0.00000000000E+00 0. -1.
         21   -1    0    0  501  502  0.00000000000E+00 -0.00000000000E+00 -0.88785777303E+02  0.88785777303E+02  0.00000000000E+00 0. -1.
         23    2    1    2    0    0 -0.16197203988E+01 -0.35029658926E+00  0.92086818814E+02  0.13055850042E+03  0.92535364216E+02 0.  0.
         23    2    1    2    0    0 -0.26456008119E+01  0.53996930793E+02  0.22829930767E+03  0.25153049411E+03  0.90688190235E+02 0.  0.
        -11    1    4    4    0    0 -0.32043777456E+02  0.30641534479E+01  0.15105966501E+03  0.15445133571E+03  0.00000000000E+00 0.  1.
         11    1    4    4    0    0  0.29398176644E+02  0.50932777345E+02  0.77239642660E+02  0.97079158404E+02  0.00000000000E+00 0. -1.
        -13    1    3    3    0    0 -0.17778543226E+02 -0.40644634689E+02  0.67184814936E+02  0.80510013577E+02  0.00000000000E+00 0.  1.
         13    1    3    3    0    0  0.16158822827E+02  0.40294338100E+02  0.24902003879E+02  0.50048486842E+02  0.00000000000E+00 0. -1.
          1    1    1    2  501    0  0.42653212107E+01 -0.53646634203E+02 -0.45436772051E+02  0.70431914505E+02  0.00000000000E+00 0. -1.
<scales pt_clust_5="13000.00000" pt_clust_6="13000.00000" pt_clust_7="13000.00000" pt_clust_8="13000.00000" pt_clust_9="13000.00000"></scales>
<clustering>
<clus scale="   90.688">  5  6 -1 -1</clus>
<clus scale="   53.816">  5  9 -1 -1</clus>
<clus scale="   92.535">  7  8 -1 -1</clus>
<clus scale="   92.550">  1  7  2 -1</clus>
<clus scale="  264.993">  2  5  1 -1</clus>
</clustering>
</event>
<event>
 9    1  0.3312826E-006  0.1694667E+03  0.7546771E-02  0.1201725E+00
          1   -1    0    0  502    0 -0.00000000000E+00  0.00000000000E+00  0.50287199789E+03  0.50287199789E+03  0.00000000000E+00 0. -1.
         21   -1    0    0  501  502  0.00000000000E+00 -0.00000000000E+00 -0.41260125746E+02  0.41260125746E+02  0.00000000000E+00 0.  1.
         23    2    1    2    0    0 -0.44151772303E+02  0.86734045019E+01  0.26987628283E+03  0.28823860256E+03  0.90684491670E+02 0.  0.
         23    2    1    2    0    0  0.63415558433E+02  0.35856159877E+02  0.10758791118E+03  0.15876058487E+03  0.91228106547E+02 0.  0.
        -11    1    4    4    0    0  0.45153249074E+02 -0.16198042971E+02  0.13739140791E+02  0.49899463802E+02  0.00000000000E+00 0.  1.
         11    1    4    4    0    0  0.18262309360E+02  0.52054202848E+02  0.93848770384E+02  0.10886112107E+03  0.00000000000E+00 0. -1.
        -13    1    3    3    0    0  0.47465856640E+01 -0.34975696732E+02  0.82690803677E+02  0.89908834105E+02  0.00000000000E+00 0.  1.
         13    1    3    3    0    0 -0.48898357967E+02  0.43649101234E+02  0.18718547916E+03  0.19832976846E+03  0.00000000000E+00 0. -1.
          1    1    1    2  501    0 -0.19263786130E+02 -0.44529564379E+02  0.84147678140E+02  0.97132936207E+02  0.00000000000E+00 0. -1.
<scales pt_clust_5="13000.00000" pt_clust_6="13000.00000" pt_clust_7="13000.00000" pt_clust_8="13000.00000" pt_clust_9="13000.00000"></scales>
<clustering>
<clus scale="   90.684">  7  8 -1 -1</clus>
<clus scale="   91.228">  5  6 -1 -1</clus>
<clus scale="   48.518">  5  9 -1 -1</clus>
<clus scale="  101.234">  1  7  2 -1</clus>
<clus scale="  169.467">  2  5  1 -1</clus>
</clustering>
</event>
<event>
 9    1  0.3312826E-006  0.1924343E+03  0.7546771E-02  0.1172495E+00
         21   -1    0    0  501  502  0.00000000000E+00  0.00000000000E+00  0.26346730899E+03  0.26346730899E+03  0.00000000000E+00 0. -1.
          1   -1    0    0  502    0 -0.00000000000E+00 -0.00000000000E+00 -0.10163396648E+03  0.10163396648E+03  0.00000000000E+00 0. -1.
         23    2    1    2    0    0  0.81422092602E+01  0.94214849901E+02  0.43967471241E+02  0.13943929320E+03  0.92560490741E+02 0.  0.
         23    2    1    2    0    0  0.19592843944E+02 -0.24276085740E+02  0.15440874163E+02  0.98573257589E+02  0.92222874843E+02 0.  0.
        -11    1    4    4    0    0 -0.17036115244E+02  0.22175286604E+02  0.26346967972E+02  0.38420505982E+02  0.00000000000E+00 0. -1.
         11    1    4    4    0    0  0.36628959187E+02 -0.46451372344E+02 -0.10906093809E+02  0.60152751608E+02  0.00000000000E+00 0.  1.
        -11    1    3    3    0    0 -0.25120654280E+02  0.26308419729E+02 -0.19000277335E+02  0.41038893246E+02  0.00000000000E+00 0.  1.
         11    1    3    3    0    0  0.33262863540E+02  0.67906430172E+02  0.62967748576E+02  0.98400399950E+02  0.00000000000E+00 0. -1.
          1    1    1    2  501    0 -0.27735053204E+02 -0.69938764161E+02  0.10242499711E+03  0.12708872468E+03  0.00000000000E+00 0. -1.
<scales pt_clust_5="13000.00000" pt_clust_6="13000.00000" pt_clust_7="13000.00000" pt_clust_8="13000.00000" pt_clust_9="13000.00000"></scales>
<clustering>
<clus scale="   92.223">  5  6 -1 -1</clus>
<clus scale="   75.237">  5  9 -1 -1</clus>
<clus scale="   92.560">  7  8 -1 -1</clus>
<clus scale="  132.326">  2  7  1 -1</clus>
<clus scale="  192.434">  1  5  2 -1</clus>
</clustering>
</event>
<event>
 9    1  0.3312826E-006  0.2973898E+03  0.7546771E-02  0.1105755E+00
         21   -1    0    0  501  502  0.00000000000E+00  0.00000000000E+00  0.89162060291E+02  0.89162060291E+02  0.00000000000E+00 0. -1.
          1   -1    0    0  502    0 -0.00000000000E+00 -0.00000000000E+00 -0.64385745463E+03  0.64385745463E+03  0.00000000000E+00 0. -1.
         23    2    1    2    0    0 -0.11022092907E+03 -0.10954757439E+03 -0.24015267090E+03  0.30014790769E+03  0.90918297883E+02 0.  0.
         23    2    1    2    0    0  0.20122581037E+02 -0.32067600727E+02 -0.21596552077E+03  0.23821797890E+03  0.93131358974E+02 0.  0.
        -11    1    3    3    0    0  0.44744281143E+00 -0.49468024156E+02 -0.39728575710E+02  0.63447973545E+02  0.00000000000E+00 0. -1.
         11    1    3    3    0    0 -0.11066837188E+03 -0.60079550229E+02 -0.20042409519E+03  0.23669993414E+03  0.00000000000E+00 0.  1.
        -11    1    4    4    0    0 -0.35146629468E+02 -0.11890147841E+01 -0.55368640125E+02  0.65592572967E+02  0.00000000000E+00 0. -1.
         11    1    4    4    0    0  0.55269210505E+02 -0.30878585943E+02 -0.16059688065E+03  0.17262540593E+03  0.00000000000E+00 0.  1.
          1    1    1    2  501    0  0.90098348028E+02  0.14161517511E+03 -0.98577202671E+02  0.19465362834E+03  0.00000000000E+00 0. -1.
<scales pt_clust_5="13000.00000" pt_clust_6="13000.00000" pt_clust_7="13000.00000" pt_clust_8="13000.00000" pt_clust_9="13000.00000"></scales>
<clustering>
<clus scale="   90.918">  5  6 -1 -1</clus>
<clus scale="   93.131">  7  8 -1 -1</clus>
<clus scale="  167.847">  7  9 -1 -1</clus>
<clus scale="  180.043">  2  5  1 -1</clus>
<clus scale="  297.390">  1  5  2 -1</clus>
</clustering>
</event>
<event>
 9    1  0.3312826E-006  0.4847328E+03  0.7546771E-02  0.1078484E+00
          2   -1    0    0  502    0 -0.00000000000E+00  0.00000000000E+00  0.31787069495E+03  0.31787069495E+03  0.00000000000E+00 0. -1.
         21   -1    0    0  501  502  0.00000000000E+00 -0.00000000000E+00 -0.28753212931E+03  0.28753212931E+03  0.00000000000E+00 0. -1.
         23    2    1    2    0    0 -0.31027047848E+02 -0.36924368158E+02  0.81537823569E+02  0.11797362736E+03  0.70308416402E+02 0.  0.
         23    2    1    2    0    0  0.13547647876E+03 -0.17071213496E+02 -0.22480034174E+03  0.27775673147E+03  0.89265366200E+02 0.  0.
        -11    1    3    3    0    0 -0.39572653501E+02  0.19709420052E+01  0.19266838331E+02  0.44057809487E+02  0.00000000000E+00 0.  1.
         11    1    3    3    0    0  0.85456056533E+01 -0.38895310163E+02  0.62270985238E+02  0.73915817868E+02  0.00000000000E+00 0. -1.
        -13    1    4    4    0    0  0.35680686671E+02  0.27767244174E+02 -0.11119818799E+03  0.12003819501E+03  0.00000000000E+00 0.  1.
         13    1    4    4    0    0  0.99795792089E+02 -0.44838457670E+02 -0.11360215376E+03  0.15771853646E+03  0.00000000000E+00 0. -1.
          2    1    1    2  501    0 -0.10444943091E+03  0.53995581654E+02  0.17360108382E+03  0.20967246543E+03  0.00000000000E+00 0. -1.
<scales pt_clust_5="13000.00000" pt_clust_6="13000.00000" pt_clust_7="13000.00000" pt_clust_8="13000.00000" pt_clust_9="13000.00000"></scales>
<clustering>
<clus scale="   70.308">  5  6 -1 -1</clus>
<clus scale="   85.261">  1  5  2 -1</clus>
<clus scale="   89.265">  7  8 -1 -1</clus>
<clus scale="  133.462">  7  9 -1 -1</clus>
<clus scale="  484.733">  2  5  1 -1</clus>
</clustering>
</event>
<event>
 9    1  0.3312826E-006  0.1918476E+03  0.7546771E-02  0.1191278E+00
         21   -1    0    0  501  502  0.00000000000E+00  0.00000000000E+00  0.17992116092E+03  0.17992116092E+03  0.00000000000E+00 0.  1.
          2   -1    0    0  502    0 -0.00000000000E+00 -0.00000000000E+00 -0.11938820614E+03  0.11938820614E+03  0.00000000000E+00 0. -1.
         23    2    1    2    0    0 -0.14056803832E+02  0.41572919301E+02  0.62135362649E+02  0.10745504383E+03  0.75893885130E+02 0.  0.
         23    2    1    2    0    0  0.35029675285E+02  0.33881710118E+02 -0.33324456029E+02  0.10735846075E+03  0.89667559871E+02 0.  0.
        -11    1    4    4    0    0 -0.83732419310E+00 -0.20842131650E+02 -0.36293566691E+02  0.41860704087E+02  0.00000000000E+00 0. -1.
         11    1    4    4    0    0  0.35866999478E+02  0.54723841768E+02  0.29691106621E+01  0.65497756660E+02  0.00000000000E+00 0.  1.
        -13    1    3    3    0    0  0.18934921535E+02  0.46621480212E+02  0.52489368142E+02  0.72713323667E+02  0.00000000000E+00 0.  1.
         13    1    3    3    0    0 -0.32991725367E+02 -0.50485609112E+01  0.96459945067E+01  0.34741720165E+02  0.00000000000E+00 0. -1.
          2    1    1    2  501    0 -0.20972871453E+02 -0.75454629419E+02  0.31722048155E+02  0.84495862484E+02  0.00000000000E+00 0. -1.
<scales pt_clust_5="13000.00000" pt_clust_6="13000.00000" pt_clust_7="13000.00000" pt_clust_8="13000.00000" pt_clust_9="13000.00000"></scales>
<clustering>
<clus scale="   75.894">  7  8 -1 -1</clus>
<clus scale="   87.669">  2  7  1 -1</clus>
<clus scale="   89.668">  5  6 -1 -1</clus>
<clus scale="   68.746">  5  9 -1 -1</clus>
<clus scale="  191.848">  1  5  2 -1</clus>
</clustering>
</event>
<event>
 9    1  0.3312826E-006  0.3770745E+03  0.7546771E-02  0.1072672E+00
         21   -1    0    0  501  502  0.00000000000E+00  0.00000000000E+00  0.66425295735E+02  0.66425295735E+02  0.00000000000E+00 0. -1.
          1   -1    0    0  502    0 -0.00000000000E+00 -0.00000000000E+00 -0.15578236686E+04  0.15578236686E+04  0.00000000000E+00 0. -1.
         23    2    1    2    0    0  0.18924089062E+03 -0.15100645540E+02 -0.88591082435E+03  0.91094654223E+03  0.94580494445E+02 0.  0.
         23    2    1    2    0    0 -0.16228866350E+02  0.93169646208E+02 -0.44743140530E+03  0.46630105809E+03  0.91092564188E+02 0.  0.
        -11    1    3    3    0    0  0.49083732629E+02 -0.47296421656E+02 -0.29984295510E+03  0.30749302762E+03  0.00000000000E+00 0.  1.
         11    1    3    3    0    0  0.14015715799E+03  0.32195776117E+02 -0.58606786925E+03  0.60345351462E+03  0.00000000000E+00 0. -1.
        -11    1    4    4    0    0 -0.37813197939E+02  0.10132282777E+03 -0.37501150021E+03  0.39029447684E+03  0.00000000000E+00 0.  1.
         11    1    4    4    0    0  0.21584331588E+02 -0.81531815583E+01 -0.72419905096E+02  0.76006581253E+02  0.00000000000E+00 0. -1.
          1    1    1    2  501    0 -0.17301202427E+03 -0.78069000668E+02 -0.15805614318E+03  0.24700136398E+03  0.00000000000E+00 0. -1.
<scales pt_clust_5="13000.00000" pt_clust_6="13000.00000" pt_clust_7="13000.00000" pt_clust_8="13000.00000" pt_clust_9="13000.00000"></scales>
<clustering>
<clus scale="   91.093">  7  8 -1 -1</clus>
<clus scale="   94.580">  5  6 -1 -1</clus>
<clus scale="  189.810">  7  9 -1 -1</clus>
<clus scale="  212.098">  2  5  1 -1</clus>
<clus scale="  377.074">  1  5  2 -1</clus>
</clustering>
</event>
<event>
 9    1  0.3312826E-006  0.1866756E+03  0.7546771E-02  0.1179568E+00
         -2   -1    0    0    0  501 -0.00000000000E+00  0.00000000000E+00  0.38053574370E+03  0.38053574370E+03  0.00000000000E+00 0.  1.
         21   -1    0    0  501  502  0.00000000000E+00 -0.00000000000E+00 -0.65540023932E+02  0.65540023932E+02  0.00000000000E+00 0.  1.
         23    2    1    2    0    0 -0.34596107838E+02  0.77222996194E+02  0.16776418473E+03  0.20832607153E+03  0.89970264991E+02 0.  0.
         23    2    1    2    0    0 -0.48610372275E+01  0.41164069761E+01  0.88785501911E+02  0.13009792606E+03  0.94879031017E+02 0.  0.
        -11    1    4    4    0    0 -0.47363363674E+02 -0.58288597228E+01  0.28215174408E+02  0.55437892196E+02  0.00000000000E+00 0. -1.
         11    1    4    4    0    0  0.42502326447E+02  0.99452666989E+01  0.60570327503E+02  0.74660033867E+02  0.00000000000E+00 0.  1.
        -13    1    3    3    0    0 -0.60143334492E+02  0.25074545762E+02  0.95684029969E+02  0.11576436032E+03  0.00000000000E+00 0. -1.
         13    1    3    3    0    0  0.25547226653E+02  0.52148450431E+02  0.72080154758E+02  0.92561711209E+02  0.00000000000E+00 0.  1.
         -2    1    1    2    0  502  0.39457145066E+02 -0.81339403170E+02  0.58446033133E+02  0.10765177004E+03  0.00000000000E+00 0.  1.
<scales pt_clust_5="13000.00000" pt_clust_6="13000.00000" pt_clust_7="13000.00000" pt_clust_8="13000.00000" pt_clust_9="13000.00000"></scales>
<clustering>
<clus scale="   89.970">  7  8 -1 -1</clus>
<clus scale="   94.879">  5  6 -1 -1</clus>
<clus scale="   90.404">  5  9 -1 -1</clus>
<clus scale="  123.511">  1  7  2 -1</clus>
<clus scale="  186.676">  2  5  1 -1</clus>
</clustering>
</event>
<event>
 9    1  0.3312826E-006  0.1146800E+03  0.7546771E-02  0.1263298E+00
          2   -1    0    0  502    0 -0.00000000000E+00  0.00000000000E+00  0.27831234675E+03  0.27831234675E+03  0.00000000000E+00 0. -1.
         21   -1    0    0  501  502  0.00000000000E+00 -0.00000000000E+00 -0.14645103001E+03  0.14645103001E+03  0.00000000000E+00 0. -1.
         23    2    1    2    0    0  0.51567400581E+00 -0.13495143559E+02  0.24619220911E+03  0.26282800163E+03  0.91025105289E+02 0.  0.
         23    2    1    2    0    0 -0.77192089257E+01 -0.67213988461E+01 -0.10430788134E+03  0.13824866467E+03  0.90154288776E+02 0.  0.
        -11    1    3    3    0    0 -0.39683020151E+01 -0.44877261888E+02  0.66266192049E+02  0.80130669934E+02  0.00000000000E+00 0. -1.
         11    1    3    3    0    0  0.44839760209E+01  0.31382118329E+02  0.17992601707E+03  0.18269733170E+03  0.00000000000E+00 0.  1.
        -13    1    4    4    0    0  0.35953492545E+02  0.11090933470E+02 -0.22560782484E+02  0.43870848381E+02  0.00000000000E+00 0.  1.
         13    1    4    4    0    0 -0.43672701471E+02 -0.17812332316E+02 -0.81747098852E+02  0.94377816286E+02  0.00000000000E+00 0. -1.
          2    1    1    2  501    0  0.72035349199E+01  0.20216542405E+02 -0.10023011045E+02  0.23686710464E+02  0.00000000000E+00 0. -1.
<scales pt_clust_5="13000.00000" pt_clust_6="13000.00000" pt_clust_7="13000.00000" pt_clust_8="13000.00000" pt_clust_9="13000.00000"></scales>
<clustering>
<clus scale="   90.154">  7  8 -1 -1</clus>
<clus scale="   21.462">  7  9 -1 -1</clus>
<clus scale="   91.025">  5  6 -1 -1</clus>
<clus scale="   92.021">  1  5  2 -1</clus>
<clus scale="  114.680">  2  5  1 -1</clus>
</clustering>
</event>
<event>
 9    1  0.3312826E-006  0.2440051E+03  0.7546771E-02  0.1149945E+00
         21   -1    0    0  501  502  0.00000000000E+00  0.00000000000E+00  0.63475143836E+02  0.63475143836E+02  0.00000000000E+00 0. -1.
          1   -1    0    0  502    0 -0.00000000000E+00 -0.00000000000E+00 -0.50136614823E+03  0.50136614823E+03  0.00000000000E+00 0. -1.
         23    2    1    2    0    0 -0.58651631775E+02  0.30507906357E+02 -0.10232800052E+03  0.14994246974E+03  0.87412689481E+02 0.  0.
         23    2    1    2    0    0 -0.32179036697E+02  0.51286590491E+02 -0.89641168422E+02  0.14027526324E+03  0.89307366073E+02 0.  0.
        -11    1    4    4    0    0 -0.18647767967E+02  0.75632960353E+02 -0.77522795984E+02  0.10989935322E+03  0.00000000000E+00 0. -1.
         11    1    4    4    0    0 -0.13531268730E+02 -0.24346369862E+02 -0.12118372438E+02  0.30375910019E+02  0.00000000000E+00 0.  1.
        -13    1    3    3    0    0 -0.76269199286E+02  0.23559318297E+01 -0.73938343481E+02  0.10625168145E+03  0.00000000000E+00 0. -1.
         13    1    3    3    0    0  0.17617567512E+02  0.28151974527E+02 -0.28389657039E+02  0.43690788292E+02  0.00000000000E+00 0.  1.
          1    1    1    2  501    0  0.90830668471E+02 -0.81794496848E+02 -0.24592183545E+03  0.27462355908E+03  0.00000000000E+00 0. -1.
<scales pt_clust_5="13000.00000" pt_clust_6="13000.00000" pt_clust_7="13000.00000" pt_clust_8="13000.00000" pt_clust_9="13000.00000"></scales>
<clustering>
<clus scale="   87.413">  7  8 -1 -1</clus>
<clus scale="   89.307">  5  6 -1 -1</clus>
<clus scale="  109.598">  2  7  1 -1</clus>
<clus scale="   78.684">  5  9 -1 -1</clus>
<clus scale="  244.005">  1  5  2 -1</clus>
</clustering>
</event>
<event>
 9    1  0.3312826E-006  0.1509471E+03  0.7546771E-02  0.1225486E+00
          1   -1    0    0  502    0 -0.00000000000E+00  0.00000000000E+00  0.16773021880E+03  0.16773021880E+03  0.00000000000E+00 0. -1.
         21   -1    0    0  501  502  0.00000000000E+00 -0.00000000000E+00 -0.16466353384E+03  0.16466353384E+03  0.00000000000E+00 0. -1.
         23    2    1    2    0    0 -0.14564484781E+02  0.34453650853E+02  0.11540594942E+03  0.14423121570E+03  0.78005975057E+02 0.  0.
         23    2    1    2    0    0 -0.29041854197E+01  0.15966411523E+02 -0.65843992420E+02  0.11738720613E+03  0.95817348301E+02 0.  0.
        -13    1    3    3    0    0  0.15712750037E+02  0.47850523099E+02  0.87370245085E+02  0.10084702673E+03  0.00000000000E+00 0.  1.
         13    1    3    3    0    0 -0.30277234818E+02 -0.13396872246E+02  0.28035704339E+02  0.43384188963E+02  0.00000000000E+00 0. -1.
        -13    1    4    4    0    0 -0.25599048094E+02 -0.21222742996E+02  0.55869534166E+01  0.33718394565E+02  0.00000000000E+00 0.  1.
         13    1    4    4    0    0  0.22694862674E+02  0.37189154518E+02 -0.71430945837E+02  0.83668811565E+02  0.00000000000E+00 0. -1.
          1    1    1    2  501    0  0.17468670200E+02 -0.50420062376E+02 -0.46495272051E+02  0.70775330813E+02  0.00000000000E+00 0. -1.
<scales pt_clust_5="13000.00000" pt_clust_6="13000.00000" pt_clust_7="13000.00000" pt_clust_8="13000.00000" pt_clust_9="13000.00000"></scales>
<clustering>
<clus scale="   78.006">  5  6 -1 -1</clus>
<clus scale="   86.511">  1  5  2 -1</clus>
<clus scale="   95.817">  7  8 -1 -1</clus>
<clus scale="   41.417">  7  9 -1 -1</clus>
<clus scale="  150.947">  2  5  1 -1</clus>
</clustering>
</event>
<event>
 9    1  0.3312826E-006  0.3197744E+03  0.7546771E-02  0.1103317E+00
         -2   -1    0    0    0  501 -0.00000000000E+00  0.00000000000E+00  0.30967232753E+03  0.30967232753E+03  0.00000000000E+00 0.  1.
         21   -1    0    0  501  502  0.00000000000E+00 -0.00000000000E+00 -0.28797548521E+03  0.28797548521E+03  0.00000000000E+00 0.  1.
         23    2    1    2    0    0 -0.25569236754E+02 -0.12141204225E+03  0.18315908491E+03  0.23942197493E+03  0.91547593222E+02 0.  0.
         23    2    1    2    0    0  0.53042562285E+02 -0.42953138972E+02  0.15700540568E+02  0.11500300141E+03  0.91217858981E+02 0.  0.
        -11    1    4    4    0    0  0.72452326851E+02 -0.35614871527E+02 -0.10683604444E+02  0.81436466917E+02  0.00000000000E+00 0.  1.
         11    1    4    4    0    0 -0.19409764566E+02 -0.73382674452E+01  0.26384145012E+02  0.33566534490E+02  0.00000000000E+00 0. -1.
        -13    1    3    3    0    0 -0.65351197696E+01 -0.10711072765E+03  0.80793594392E+02  0.13432431151E+03  0.00000000000E+00 0.  1.
         13    1    3    3    0    0 -0.19034116984E+02 -0.14301314603E+02  0.10236549052E+03  0.10509766342E+03  0.00000000000E+00 0. -1.
         -2    1    1    2    0  502 -0.27473325531E+02  0.16436518122E+03 -0.17716278316E+03  0.24322283641E+03  0.00000000000E+00 0.  1.
<scales pt_clust_5="13000.00000" pt_clust_6="13000.00000" pt_clust_7="13000.00000" pt_clust_8="13000.00000" pt_clust_9="13000.00000"></scales>
<clustering>
<clus scale="   91.218">  5  6 -1 -1</clus>
<clus scale="   91.548">  7  8 -1 -1</clus>
<clus scale="  154.193">  1  7  2 -1</clus>
<clus scale="  128.755">  5  9 -1 -1</clus>
<clus scale="  319.774">  2  5  1 -1</clus>
</clustering>
</event>
<event>
 9    1  0.3312826E-006  0.2661843E+03  0.7546771E-02  0.1138456E+00
         -1   -1    0    0    0  501 -0.00000000000E+00  0.00000000000E+00  0.68982645643E+03  0.68982645643E+03  0.00000000000E+00 0.  1.
         21   -1    0    0  501  502  0.00000000000E+00 -0.00000000000E+00 -0.51604944965E+02  0.51604944965E+02  0.00000000000E+00 0.  1.
         23    2    1    2    0    0  0.63052686918E+02  0.13213666535E+02  0.18488386604E+03  0.21572321139E+03  0.90577136739E+02 0.  0.
         23    2    1    2    0    0 -0.42120439824E+02 -0.53675329784E+02  0.46521892245E+03  0.47862879000E+03  0.89452223704E+02 0.  0.
        -11    1    3    3    0    0  0.83369766239E+02  0.25739564145E+02  0.14309016693E+03  0.16759426887E+03  0.00000000000E+00 0.  1.
         11    1    3    3    0    0 -0.20317079321E+02 -0.12525897610E+02  0.41793699116E+02  0.48128942528E+02  0.00000000000E+00 0. -1.
        -13    1    4    4    0    0  0.22115669762E+02  0.73040206828E+01  0.11919178523E+03  0.12144600954E+03  0.00000000000E+00 0. -1.
         13    1    4    4    0    0 -0.64236109586E+02 -0.60979350467E+02  0.34602713722E+03  0.35718278046E+03  0.00000000000E+00 0.  1.
         -1    1    1    2    0  502 -0.20932247094E+02  0.40461663249E+02 -0.11881277030E+02  0.47079400008E+02  0.00000000000E+00 0.  1.
<scales pt_clust_5="13000.00000" pt_clust_6="13000.00000" pt_clust_7="13000.00000" pt_clust_8="13000.00000" pt_clust_9="13000.00000"></scales>
<clustering>
<clus scale="   89.452">  7  8 -1 -1</clus>
<clus scale="   45.556">  7  9 -1 -1</clus>
<clus scale="   90.577">  5  6 -1 -1</clus>
<clus scale="  111.151">  1  5  2 -1</clus>
<clus scale="  266.184">  2  5  1 -1</clus>
</clustering>
</event>
<event>
 9    1  0.3312826E-006  0.1467874E+03  0.7546771E-02  0.1221067E+00
         -3   -1    0    0    0  501 -0.00000000000E+00  0.00000000000E+00  0.61829393133E+02  0.61829393133E+02  0.00000000000E+00 0.  1.
         21   -1    0    0  501  502  0.00000000000E+00 -0.00000000000E+00 -0.25553842125E+03  0.25553842125E+03  0.00000000000E+00 0. -1.
         23    2    1    2    0    0  0.14934620989E+02 -0.46004011678E+02 -0.63461759906E+02  0.12112589905E+03  0.91129997565E+02 0.  0.
         23    2    1    2    0    0 -0.43673339342E+02  0.39685545546E+02 -0.70960991844E+02  0.13005506231E+03  0.91632711274E+02 0.  0.
        -11    1    3    3    0    0  0.22952867265E+02 -0.71667364746E+02 -0.53998787465E+02  0.92622428887E+02  0.00000000000E+00 0.  1.
         11    1    3    3    0    0 -0.80182462755E+01  0.25663353068E+02 -0.94629724407E+01  0.28503470165E+02  0.00000000000E+00 0. -1.
        -13    1    4    4    0    0  0.28376634533E+02  0.79186898872E+01 -0.26511670370E+02  0.39633416491E+02  0.00000000000E+00 0.  1.
         13    1    4    4    0    0 -0.72049973875E+02  0.31766855659E+02 -0.44449321474E+02  0.90421645823E+02  0.00000000000E+00 0. -1.
         -3    1    1    2    0  502  0.28738718352E+02  0.63184661322E+01 -0.59286276368E+02  0.66186853018E+02  0.00000000000E+00 0.  1.
<scales pt_clust_5="13000.00000" pt_clust_6="13000.00000" pt_clust_7="13000.00000" pt_clust_8="13000.00000" pt_clust_9="13000.00000"></scales>
<clustering>
<clus scale="   91.130">  5  6 -1 -1</clus>
<clus scale="   91.633">  7  8 -1 -1</clus>
<clus scale="   29.425">  7  9 -1 -1</clus>
<clus scale="  103.170">  1  5  2 -1</clus>
<clus scale="  146.787">  2  5  1 -1</clus>
</clustering>
</event>
<event>
 9    1  0.3312826E-006  0.3793428E+03  0.7546771E-02  0.1101502E+00
          3   -1    0    0  502    0 -0.00000000000E+00  0.00000000000E+00  0.86450973464E+02  0.86450973464E+02  0.00000000000E+00 0. -1.
         21   -1    0    0  501  502  0.00000000000E+00 -0.00000000000E+00 -0.69345674985E+03  0.69345674985E+03  0.00000000000E+00 0. -1.
         23    2    1    2    0    0 -0.34801160187E+02  0.56593134502E+01 -0.58815909519E+02  0.11326454661E+03  0.90146534746E+02 0.  0.
         23    2    1    2    0    0  0.79050911396E+02  0.67697118493E+02 -0.29613624109E+02  0.14103826221E+03  0.90459262819E+02 0.  0.
        -11    1    4    4    0    0  0.99322742582E+02  0.59262959767E+02 -0.28134291499E+02  0.11903211311E+03  0.00000000000E+00 0. -1.
         11    1    4    4    0    0 -0.20271831186E+02  0.84341587259E+01 -0.14793326102E+01  0.22006149096E+02  0.00000000000E+00 0.  1.
        -11    1    3    3    0    0  0.26487730014E+02  0.13081768969E+02 -0.37958598290E+02  0.48099768241E+02  0.00000000000E+00 0. -1.
         11    1    3    3    0    0 -0.61288890201E+02 -0.74224555191E+01 -0.20857311230E+02  0.65164778368E+02  0.00000000000E+00 0.  1.
          3    1    1    2  501    0 -0.44249751209E+02 -0.73356431944E+02 -0.51857624276E+03  0.52560491450E+03  0.00000000000E+00 0. -1.
<scales pt_clust_5="13000.00000" pt_clust_6="13000.00000" pt_clust_7="13000.00000" pt_clust_8="13000.00000" pt_clust_9="13000.00000"></scales>
<clustering>
<clus scale="   90.147">  7  8 -1 -1</clus>
<clus scale="   90.459">  5  6 -1 -1</clus>
<clus scale="   85.669">  5  9 -1 -1</clus>
<clus scale="   96.796">  1  7  2 -1</clus>
<clus scale="  379.343">  2  5  1 -1</clus>
</clustering>
</event>
<event>
 9    1  0.3312826E-006  0.5011796E+03  0.7546771E-02  0.1041313E+00
         21   -1    0    0  501  502  0.00000000000E+00  0.00000000000E+00  0.38058416429E+03  0.38058416429E+03  0.00000000000E+00 0. -1.
          4   -1    0    0  502    0 -0.00000000000E+00 -0.00000000000E+00 -0.34772339267E+03  0.34772339267E+03  0.00000000000E+00 0. -1.
         23    2    1    2    0    0  0.19766414667E+03  0.19577219384E+02  0.59662014696E+02  0.22641186116E+03  0.90820661061E+02 0.  0.
         23    2    1    2    0    0 -0.37190915686E+02  0.84265939177E+02 -0.20370211518E+03  0.24145572577E+03  0.91227205704E+02 0.  0.
        -11    1    4    4    0    0 -0.48311258658E+02  0.41827154709E+02 -0.48642688071E+02  0.80309399742E+02  0.00000000000E+00 0.  1.
         11    1    4    4    0    0  0.11120342972E+02  0.42438784469E+02 -0.15505942711E+03  0.16114632602E+03  0.00000000000E+00 0. -1.
        -11    1    3    3    0    0  0.10376680398E+03  0.53274122569E+02  0.47376177771E+02  0.12589751373E+03  0.00000000000E+00 0.  1.
         11    1    3    3    0    0  0.93897342690E+02 -0.33696903185E+02  0.12285836925E+02  0.10051434742E+03  0.00000000000E+00 0. -1.
          4    1    1    2  501    0 -0.16047323099E+03 -0.10384315856E+03  0.17690087211E+03  0.26043997004E+03  0.00000000000E+00 0. -1.
<scales pt_clust_5="13000.00000" pt_clust_6="13000.00000" pt_clust_7="13000.00000" pt_clust_8="13000.00000" pt_clust_9="13000.00000"></scales>
<clustering>
<clus scale="   90.821">  7  8 -1 -1</clus>
<clus scale="   91.227">  5  6 -1 -1</clus>
<clus scale="  191.142">  5  9 -1 -1</clus>
<clus scale="  218.410">  2  7  1 -1</clus>
<clus scale="  501.180">  1  5  2 -1</clus>
</clustering>
</event>
<event>
 9    1  0.3312826E-006  0.3875308E+03  0.7546771E-02  0.1098912E+00
         21   -1    0    0  501  502  0.00000000000E+00  0.00000000000E+00  0.10921112024E+03  0.10921112024E+03  0.00000000000E+00 0. -1.
          2   -1    0    0  502    0 -0.00000000000E+00 -0.00000000000E+00 -0.57324208750E+03  0.57324208750E+03  0.00000000000E+00 0. -1.
         23    2    1    2    0    0 -0.22865974569E+02 -0.23246742429E+02 -0.17085399733E+03  0.19651813784E+03  0.91460517554E+02 0.  0.
         23    2    1    2    0    0 -0.92568868694E+02  0.16457765330E+02 -0.33761512838E+03  0.36205592244E+03  0.90888187191E+02 0.  0.
        -11    1    4    4    0    0 -0.23899886013E+02 -0.64772013855E+01 -0.10281665777E+02  0.26811776151E+02  0.00000000000E+00 0.  1.
         11    1    4    4    0    0 -0.68668982681E+02  0.22934966716E+02 -0.32733346260E+03  0.33524414629E+03  0.00000000000E+00 0. -1.
        -11    1    3    3    0    0  0.35404842180E+02 -0.87163752106E+01 -0.75216758947E+02  0.83588509217E+02  0.00000000000E+00 0.  1.
         11    1    3    3    0    0 -0.58270816749E+02 -0.14530367218E+02 -0.95637238383E+02  0.11292962863E+03  0.00000000000E+00 0. -1.
          2    1    1    2  501    0  0.11543484326E+03  0.67889770988E+01  0.44438158447E+02  0.12387914746E+03  0.00000000000E+00 0. -1.
<scales pt_clust_5="13000.00000" pt_clust_6="13000.00000" pt_clust_7="13000.00000" pt_clust_8="13000.00000" pt_clust_9="13000.00000"></scales>
<clustering>
<clus scale="   90.888">  5  6 -1 -1</clus>
<clus scale="   91.461">  7  8 -1 -1</clus>
<clus scale="   97.099">  2  7  1 -1</clus>
<clus scale="  113.190">  5  9 -1 -1</clus>
<clus scale="  387.531">  1  5  2 -1</clus>
</clustering>
</event>
<event>
 9    1  0.3312826E-006  0.2023521E+03  0.7546771E-02  0.1180176E+00
         -4   -1    0    0    0  501 -0.00000000000E+00  0.00000000000E+00  0.24426642571E+03  0.24426642571E+03  0.00000000000E+00 0.  1.
         21   -1    0    0  501  502  0.00000000000E+00 -0.00000000000E+00 -0.96579606219E+02  0.96579606219E+02  0.00000000000E+00 0. -1.
         23    2    1    2    0    0  0.23255784034E+02 -0.13620499154E+02  0.87741339402E+02  0.12980141355E+03  0.91779708172E+02 0.  0.
         23    2    1    2    0    0 -0.76763222643E+02  0.11284084292E+01 -0.12935914220E+02  0.11977142432E+03  0.91016430111E+02 0.  0.
        -11    1    3    3    0    0 -0.21220052327E+02 -0.28661298887E+02  0.69115807331E+01  0.36325344085E+02  0.00000000000E+00 0.  1.
         11    1    3    3    0    0  0.44475836361E+02  0.15040799733E+02  0.80829758669E+02  0.93476069468E+02  0.00000000000E+00 0. -1.
        -11    1    4    4    0    0 -0.25823875792E+01  0.23137995972E+02 -0.32481810653E+02  0.39963778681E+02  0.00000000000E+00 0. -1.
         11    1    4    4    0    0 -0.74180835064E+02 -0.22009587543E+02  0.19545896433E+02  0.79807645636E+02  0.00000000000E+00 0.  1.
         -4    1    1    2    0  502  0.53507438609E+02  0.12492090725E+02  0.72881394308E+02  0.91273194058E+02  0.00000000000E+00 0.  1.
<scales pt_clust_5="13000.00000" pt_clust_6="13000.00000" pt_clust_7="13000.00000" pt_clust_8="13000.00000" pt_clust_9="13000.00000"></scales>
<clustering>
<clus scale="   91.016">  7  8 -1 -1</clus>
<clus scale="   54.946">  7  9 -1 -1</clus>
<clus scale="   91.780">  5  6 -1 -1</clus>
<clus scale="   95.655">  1  5  2 -1</clus>
<clus scale="  202.352">  2  5  1 -1</clus>
</clustering>
</event>
<event>
 9    1  0.3312826E-006  0.2590826E+03  0.7546771E-02  0.1117536E+00
          1   -1    0    0  502    0 -0.00000000000E+00  0.00000000000E+00  0.74674035714E+03  0.74674035714E+03  0.00000000000E+00 0. -1.
         21   -1    0    0  501  502  0.00000000000E+00 -0.00000000000E+00 -0.91383990635E+02  0.91383990635E+02  0.00000000000E+00 0. -1.
         23    2    1    2    0    0 -0.50661300980E+02  0.17328258055E+03  0.99965796341E+02  0.22527651073E+03  0.90348910944E+02 0.  0.
         23    2    1    2    0    0  0.67470032123E+02 -0.54847611457E+02  0.20830265637E+03  0.24572470342E+03  0.97109049523E+02 0.  0.
        -11    1    4    4    0    0 -0.23628804329E+02 -0.56179280828E+01  0.22986680523E+02  0.33440529174E+02  0.00000000000E+00 0.  1.
         11    1    4    4    0    0  0.91098836452E+02 -0.49229683375E+02  0.18531597585E+03  0.21228417424E+03  0.00000000000E+00 0. -1.
        -11    1    3    3    0    0 -0.46009456536E+02  0.80501600556E+02  0.56517237627E+01  0.92894132023E+02  0.00000000000E+00 0. -1.
         11    1    3    3    0    0 -0.46518444437E+01  0.92780979995E+02  0.94314072579E+02  0.13238237871E+03  0.00000000000E+00 0.  1.
          1    1    1    2  501    0 -0.16808731143E+02 -0.11843496909E+03  0.34708791379E+03  0.36712313363E+03  0.00000000000E+00 0. -1.
<scales pt_clust_5="13000.00000" pt_clust_6="13000.00000" pt_clust_7="13000.00000" pt_clust_8="13000.00000" pt_clust_9="13000.00000"></scales>
<clustering>
<clus scale="   90.349">  7  8 -1 -1</clus>
<clus scale="   97.109">  5  6 -1 -1</clus>
<clus scale="  119.622">  5  9 -1 -1</clus>
<clus scale="  201.882">  1  7  2 -1</clus>
<clus scale="  259.083">  2  5  1 -1</clus>
</clustering>
</event>
<event>
 9    1  0.3312826E-006  0.2799236E+03  0.7546771E-02  0.1104219E+00
          2   -1    0    0  502    0 -0.00000000000E+00  0.00000000000E+00  0.89733561729E+03  0.89733561729E+03  0.00000000000E+00 0. -1.
         21   -1    0    0  501  502  0.00000000000E+00 -0.00000000000E+00 -0.71033234754E+02  0.71033234754E+02  0.00000000000E+00 0. -1.
         23    2    1    2    0    0  0.15761944525E+03 -0.13074655948E+03  0.38773504165E+03  0.44808188328E+03  0.92197392918E+02 0.  0.
         23    2    1    2    0    0 -0.63153840725E+02  0.49108405227E+02  0.34206251711E+03  0.36248418146E+03  0.89375461598E+02 0.  0.
        -13    1    4    4    0    0 -0.82687950545E+02  0.24310377741E+02  0.27821256695E+03  0.29125680084E+03  0.00000000000E+00 0.  1.
         13    1    4    4    0    0  0.19534109820E+02  0.24798027487E+02  0.63849950168E+02  0.71227380621E+02  0.00000000000E+00 0. -1.
        -13    1    3    3    0    0  0.10912473124E+03 -0.10061960802E+03  0.34854233879E+03  0.37883277896E+03  0.00000000000E+00 0.  1.
         13    1    3    3    0    0  0.48494714008E+02 -0.30126951460E+02  0.39192702859E+02  0.69249104314E+02  0.00000000000E+00 0. -1.
          2    1    1    2  501    0 -0.94465604526E+02  0.81638154256E+02  0.96504823773E+02  0.15780278730E+03  0.00000000000E+00 0. -1.
<scales pt_clust_5="13000.00000" pt_clust_6="13000.00000" pt_clust_7="13000.00000" pt_clust_8="13000.00000" pt_clust_9="13000.00000"></scales>
<clustering>
<clus scale="   89.375">  5  6 -1 -1</clus>
<clus scale="   92.197">  7  8 -1 -1</clus>
<clus scale="  124.854">  5  9 -1 -1</clus>
<clus scale="  224.586">  1  7  2 -1</clus>
<clus scale="  279.924">  2  5  1 -1</clus>
</clustering>
</event>
<event>
 9    1  0.3312826E-006  0.1615756E+03  0.7546771E-02  0.1198561E+00
         21   -1    0    0  501  502  0.00000000000E+00  0.00000000000E+00  0.52114291526E+03  0.52114291526E+03  0.00000000000E+00 0.  1.
         -1   -1    0    0    0  501 -0.00000000000E+00 -0.00000000000E+00 -0.78531786496E+02  0.78531786496E+02  0.00000000000E+00 0.  1.
         23    2    1    2    0    0  0.85234415100E+02 -0.98925569158E+01  0.41789392819E+03  0.43621942415E+03  0.91045497341E+02 0.  0.
         23    2    1    2    0    0 -0.57441212528E+02 -0.27793784093E+02  0.11451678479E+02  0.11478602156E+03  0.94724349954E+02 0.  0.
        -13    1    3    3    0    0  0.10439072312E+03 -0.36665594029E+01  0.36372601772E+03  0.37842764526E+03  0.00000000000E+00 0.  1.
         13    1    3    3    0    0 -0.19156308023E+02 -0.62259975129E+01  0.54167910473E+02  0.57791778889E+02  0.00000000000E+00 0. -1.
        -13    1    4    4    0    0 -0.79036447462E+02 -0.31581721174E+02  0.25373749227E+02  0.88814369837E+02  0.00000000000E+00 0.  1.
         13    1    4    4    0    0  0.21595234934E+02  0.37879370801E+01 -0.13922070749E+02  0.25971651721E+02  0.00000000000E+00 0. -1.
         -1    1    1    2    0  502 -0.27793202572E+02  0.37686341009E+02  0.13265522094E+02  0.48669256048E+02  0.00000000000E+00 0.  1.
<scales pt_clust_5="13000.00000" pt_clust_6="13000.00000" pt_clust_7="13000.00000" pt_clust_8="13000.00000" pt_clust_9="13000.00000"></scales>
<clustering>
<clus scale="   91.045">  5  6 -1 -1</clus>
<clus scale="   94.724">  7  8 -1 -1</clus>
<clus scale="   46.827">  7  9 -1 -1</clus>
<clus scale="  125.108">  2  5  1 -1</clus>
<clus scale="  161.576">  1  5  2 -1</clus>
</clustering>
</event>
<event>
 9    1  0.3312826E-006  0.1767029E+03  0.7546771E-02  0.1194769E+00
          2   -1    0    0  502    0 -0.00000000000E+00  0.00000000000E+00  0.85343610930E+03  0.85343610930E+03  0.00000000000E+00 0. -1.
         21   -1    0    0  501  502  0.00000000000E+00 -0.00000000000E+00 -0.25541872709E+02  0.25541872709E+02  0.00000000000E+00 0. -1.
         23    2    1    2    0    0  0.14553263350E+02  0.45286383216E+02  0.44956743153E+03  0.46141951940E+03  0.92382051352E+02 0.  0.
         23    2    1    2    0    0  0.31286543827E+02 -0.74956820525E+02  0.25419902596E+03  0.28195120500E+03  0.91005298928E+02 0.  0.
        -11    1    4    4    0    0  0.19688523499E+02  0.17597454554E+02  0.81502497429E+02  0.85673598334E+02  0.00000000000E+00 0.  1.
         11    1    4    4    0    0  0.11598020328E+02 -0.92554275080E+02  0.17269652853E+03  0.19627760666E+03  0.00000000000E+00 0. -1.
        -13    1    3    3    0    0 -0.25393318450E+02  0.56898678580E+02  0.27055044257E+03  0.27763253091E+03  0.00000000000E+00 0.  1.
         13    1    3    3    0    0  0.39946581800E+02 -0.11612295364E+02  0.17901698896E+03  0.18378698849E+03  0.00000000000E+00 0. -1.
          2    1    1    2  501    0 -0.45839807177E+02  0.29670437309E+02  0.12412777910E+03  0.13560725761E+03  0.00000000000E+00 0. -1.
<scales pt_clust_5="13000.00000" pt_clust_6="13000.00000" pt_clust_7="13000.00000" pt_clust_8="13000.00000" pt_clust_9="13000.00000"></scales>
<clustering>
<clus scale="   91.005">  5  6 -1 -1</clus>
<clus scale="   54.604">  5  9 -1 -1</clus>
<clus scale="   92.382">  7  8 -1 -1</clus>
<clus scale="  103.909">  1  7  2 -1</clus>
<clus scale="  176.703">  2  5  1 -1</clus>
</clustering>
</event>
<event>
 9    1  0.3312826E-006  0.2342436E+03  0.7546771E-02  0.1154808E+00
         21   -1    0    0  501  502  0.00000000000E+00  0.00000000000E+00  0.52417228485E+02  0.52417228485E+02  0.00000000000E+00 0. -1.
          4   -1    0    0  502    0 -0.00000000000E+00 -0.00000000000E+00 -0.69258798499E+03  0.69258798499E+03  0.00000000000E+00 0. -1.
         23    2    1    2    0    0 -0.49133110573E+02  0.38325474459E+02 -0.37624296365E+03  0.39212001375E+03  0.91194478697E+02 0.  0.
         23    2    1    2    0    0  0.34740652575E+02  0.35536934302E+02 -0.25734760862E+03  0.27734648713E+03  0.90683491445E+02 0.  0.
        -11    1    3    3    0    0 -0.45597285537E+02  0.66785301541E+02 -0.29836060566E+03  0.30912528199E+03  0.00000000000E+00 0. -1.
         11    1    3    3    0    0 -0.35358250362E+01 -0.28459827082E+02 -0.77882357983E+02  0.82994731768E+02  0.00000000000E+00 0.  1.
        -13    1    4    4    0    0  0.59092850822E+02  0.18371440308E+02 -0.10308529524E+03  0.12023332704E+03  0.00000000000E+00 0. -1.
         13    1    4    4    0    0 -0.24352198247E+02  0.17165493995E+02 -0.15426231338E+03  0.15711316008E+03  0.00000000000E+00 0.  1.
          4    1    1    2  501    0  0.14392457998E+02 -0.73862408761E+02 -0.65801842386E+01  0.75538712591E+02  0.00000000000E+00 0. -1.
<scales pt_clust_5="13000.00000" pt_clust_6="13000.00000" pt_clust_7="13000.00000" pt_clust_8="13000.00000" pt_clust_9="13000.00000"></scales>
<clustering>
<clus scale="   90.683">  7  8 -1 -1</clus>
<clus scale="   75.252">  7  9 -1 -1</clus>
<clus scale="   91.194">  5  6 -1 -1</clus>
<clus scale="  110.451">  2  5  1 -1</clus>
<clus scale="  234.244">  1  5  2 -1</clus>
</clustering>
</event>
<event>
 9    1  0.3312826E-006  0.5270892E+03  0.7546771E-02  0.1065063E+00
         21   -1    0    0  501  502  0.00000000000E+00  0.00000000000E+00  0.33487426564E+03  0.33487426564E+03  0.00000000000E+00 0.  1.
         -3   -1    0    0    0  501 -0.00000000000E+00 -0.00000000000E+00 -0.30133245853E+03  0.30133245853E+03  0.00000000000E+00 0.  1.
         23    2    1    2    0    0  0.26603381548E+02  0.13296380190E+02  0.51699059950E+02  0.10880482577E+03  0.91000899309E+02 0.  0.
         23    2    1    2    0    0 -0.22095931629E+03  0.49853533912E+02 -0.14732889069E+03  0.28564281782E+03  0.92615457917E+02 0.  0.
        -11    1    3    3    0    0  0.14168840231E+02  0.50158326024E+02  0.12544045160E+02  0.53609390708E+02  0.00000000000E+00 0. -1.
         11    1    3    3    0    0  0.12434541316E+02 -0.36861945835E+02  0.39155014789E+02  0.55195435061E+02  0.00000000000E+00 0.  1.
        -13    1    4    4    0    0 -0.37146413392E+02 -0.26128522287E+02 -0.33918322462E+02  0.56683404127E+02  0.00000000000E+00 0. -1.
         13    1    4    4    0    0 -0.18381290290E+03  0.75982056198E+02 -0.11341056822E+03  0.22895941370E+03  0.00000000000E+00 0.  1.
         -3    1    1    2    0  502  0.19435593474E+03 -0.63149914101E+02  0.12917163784E+03  0.24175908058E+03  0.00000000000E+00 0.  1.
<scales pt_clust_5="13000.00000" pt_clust_6="13000.00000" pt_clust_7="13000.00000" pt_clust_8="13000.00000" pt_clust_9="13000.00000"></scales>
<clustering>
<clus scale="   91.001">  5  6 -1 -1</clus>
<clus scale="   92.615">  7  8 -1 -1</clus>
<clus scale="   95.738">  2  5  1 -1</clus>
<clus scale="  208.776">  7  9 -1 -1</clus>
<clus scale="  527.089">  1  5  2 -1</clus>
</clustering>
</event>
<event>
 9    1  0.3312826E-006  0.3697814E+03  0.7546771E-02  0.1083626E+00
         21   -1    0    0  501  502  0.00000000000E+00  0.00000000000E+00  0.15005930441E+03  0.15005930441E+03  0.00000000000E+00 0.  1.
         -1   -1    0    0    0  501 -0.00000000000E+00 -0.00000000000E+00 -0.56397407545E+03  0.56397407545E+03  0.00000000000E+00 0.  1.
         23    2    1    2    0    0 -0.13913537015E+03 -0.24222109450E+02 -0.26923073597E+03  0.31695437650E+03  0.89607621205E+02 0.  0.
         23    2    1    2    0    0 -0.13679104038E+01  0.24552071183E+01 -0.22148711701E+03  0.23548171600E+03  0.79919937113E+02 0.  0.
        -11    1    3    3    0    0 -0.10804755279E+03  0.23239988961E+02 -0.17846084240E+03  0.20991103596E+03  0.00000000000E+00 0.  1.
         11    1    3    3    0    0 -0.31087817365E+02 -0.47462098410E+02 -0.90769893574E+02  0.10704334054E+03  0.00000000000E+00 0. -1.
        -11    1    4    4    0    0 -0.38883503238E+02 -0.97484715852E+01 -0.12383921072E+03  0.13016570068E+03  0.00000000000E+00 0. -1.
         11    1    4    4    0    0  0.37515592835E+02  0.12203678704E+02 -0.97647906292E+02  0.10531601532E+03  0.00000000000E+00 0.  1.
         -1    1    1    2    0  502  0.14050328056E+03  0.21766902331E+02  0.76803081952E+02  0.16159728736E+03  0.00000000000E+00 0.  1.
<scales pt_clust_5="13000.00000" pt_clust_6="13000.00000" pt_clust_7="13000.00000" pt_clust_8="13000.00000" pt_clust_9="13000.00000"></scales>
<clustering>
<clus scale="   79.920">  7  8 -1 -1</clus>
<clus scale="   89.608">  5  6 -1 -1</clus>
<clus scale="  142.179">  7  9 -1 -1</clus>
<clus scale="  167.257">  2  5  1 -1</clus>
<clus scale="  369.781">  1  5  2 -1</clus>
</clustering>
</event>
<event>
 9    1  0.3312826E-006  0.2431486E+03  0.7546771E-02  0.1143717E+00
         21   -1    0    0  501  502  0.00000000000E+00  0.00000000000E+00  0.30388233989E+03  0.30388233989E+03  0.00000000000E+00 0. -1.
         -3   -1    0    0    0  501 -0.00000000000E+00 -0.00000000000E+00 -0.11499684252E+03  0.11499684252E+03  0.00000000000E+00 0.  1.
         23    2    1    2    0    0  0.37559104340E+02  0.76123466529E+02  0.43828904384E+02  0.13574905385E+03  0.96443580850E+02 0.  0.
         23    2    1    2    0    0 -0.14340141959E+02  0.43422156689E+02  0.11967947563E+03  0.15873449226E+03  0.93714133316E+02 0.  0.
        -11    1    4    4    0    0  0.29668035457E+02  0.11911849293E+02  0.55875042337E+01  0.32454655830E+02  0.00000000000E+00 0.  1.
         11    1    4    4    0    0 -0.44008177416E+02  0.31510307395E+02  0.11409197140E+03  0.12627983643E+03  0.00000000000E+00 0. -1.
        -13    1    3    3    0    0  0.33742320179E+02 -0.44271929253E+01 -0.13705362600E+02  0.36687616061E+02  0.00000000000E+00 0. -1.
         13    1    3    3    0    0  0.38167841606E+01  0.80550659455E+02  0.57534266984E+02  0.99061437791E+02  0.00000000000E+00 0.  1.
         -3    1    1    2    0  502 -0.23218962381E+02 -0.11954562322E+03  0.25377117350E+02  0.12439563630E+03  0.00000000000E+00 0.  1.
<scales pt_clust_5="13000.00000" pt_clust_6="13000.00000" pt_clust_7="13000.00000" pt_clust_8="13000.00000" pt_clust_9="13000.00000"></scales>
<clustering>
<clus scale="   93.714">  5  6 -1 -1</clus>
<clus scale="   96.444">  7  8 -1 -1</clus>
<clus scale="  121.780">  5  9 -1 -1</clus>
<clus scale="  128.479">  2  7  1 -1</clus>
<clus scale="  243.149">  1  5  2 -1</clus>
</clustering>
</event>
<event>
 9    1  0.3312826E-006  0.2649047E+03  0.7546771E-02  0.1137846E+00
         21   -1    0    0  501  502  0.00000000000E+00  0.00000000000E+00  0.29284025778E+02  0.29284025778E+02  0.00000000000E+00 0.  1.
          1   -1    0    0  502    0 -0.00000000000E+00 -0.00000000000E+00 -0.13403116430E+04  0.13403116430E+04  0.00000000000E+00 0. -1.
         23    2    1    2    0    0 -0.60621184696E+02  0.30212401577E+02 -0.60014474411E+03  0.61095942631E+03  0.92249604144E+02 0.  0.
         23    2    1    2    0    0 -0.23983414401E+02 -0.98465952826E+02 -0.25245364035E+03  0.28749523715E+03  0.93004961294E+02 0.  0.
        -11    1    4    4    0    0  0.15029248776E+02 -0.74932183521E+02 -0.86612538679E+02  0.11550949010E+03  0.00000000000E+00 0.  1.
         11    1    4    4    0    0 -0.39012663177E+02 -0.23533769305E+02 -0.16584110167E+03  0.17198574705E+03  0.00000000000E+00 0. -1.
        -13    1    3    3    0    0 -0.27691038465E+02 -0.33053849820E+02 -0.22450014379E+03  0.22860372954E+03  0.00000000000E+00 0.  1.
         13    1    3    3    0    0 -0.32930146231E+02  0.63266251397E+02 -0.37564460032E+03  0.38235569677E+03  0.00000000000E+00 0. -1.
          1    1    1    2  501    0  0.84604599097E+02  0.68253551249E+02 -0.45842923272E+03  0.47114100528E+03  0.00000000000E+00 0. -1.
<scales pt_clust_5="13000.00000" pt_clust_6="13000.00000" pt_clust_7="13000.00000" pt_clust_8="13000.00000" pt_clust_9="13000.00000"></scales>
<clustering>
<clus scale="   92.250">  7  8 -1 -1</clus>
<clus scale="   93.005">  5  6 -1 -1</clus>
<clus scale="  108.704">  5  9 -1 -1</clus>
<clus scale="  114.445">  2  7  1 -1</clus>
<clus scale="  264.905">  1  5  2 -1</clus>
</clustering>
</event>
<event>
 9    1  0.3312826E-006  0.3041732E+03  0.7546771E-02  0.1110866E+00
         21   -1    0    0  501  502  0.00000000000E+00  0.00000000000E+00  0.80396895913E+03  0.80396895913E+03  0.00000000000E+00 0.  1.
         -4   -1    0    0    0  501 -0.00000000000E+00 -0.00000000000E+00 -0.65101748843E+02  0.65101748843E+02  0.00000000000E+00 0.  1.
         23    2    1    2    0    0 -0.11479607797E+03 -0.87537837710E+01  0.18028870043E+03  0.23304295225E+03  0.92467474525E+02 0.  0.
         23    2    1    2    0    0  0.81976729218E+02  0.84060509877E+02  0.52739853752E+03  0.54816193003E+03  0.92444203182E+02 0.  0.
        -11    1    3    3    0    0 -0.21270577790E+02  0.35789395382E+02  0.33794694414E+02  0.53622753304E+02  0.00000000000E+00 0.  1.
         11    1    3    3    0    0 -0.93525500175E+02 -0.44543179153E+02  0.14649400602E+03  0.17942019895E+03  0.00000000000E+00 0. -1.
        -11    1    4    4    0    0  0.94364022085E+02  0.39962380868E+02  0.33141861135E+03  0.34690035529E+03  0.00000000000E+00 0. -1.
         11    1    4    4    0    0 -0.12387292867E+02  0.44098129010E+02  0.19597992617E+03  0.20126157474E+03  0.00000000000E+00 0.  1.
         -4    1    1    2    0  502  0.32819348747E+02 -0.75306726106E+02  0.31179972332E+02  0.87865825687E+02  0.00000000000E+00 0.  1.
<scales pt_clust_5="13000.00000" pt_clust_6="13000.00000" pt_clust_7="13000.00000" pt_clust_8="13000.00000" pt_clust_9="13000.00000"></scales>
<clustering>
<clus scale="   92.444">  7  8 -1 -1</clus>
<clus scale="   82.148">  7  9 -1 -1</clus>
<clus scale="   92.467">  5  6 -1 -1</clus>
<clus scale="  147.665">  2  5  1 -1</clus>
<clus scale="  304.173">  1  5  2 -1</clus>
</clustering>
</event>
<event>
 9    1  0.3312826E-006  0.3840369E+03  0.7546771E-02  0.1092623E+00
         21   -1    0    0  501  502  0.00000000000E+00  0.00000000000E+00  0.15760173026E+03  0.15760173026E+03  0.00000000000E+00 0. -1.
          1   -1    0    0  502    0 -0.00000000000E+00 -0.00000000000E+00 -0.39968081531E+03  0.39968081531E+03  0.00000000000E+00 0. -1.
         23    2    1    2    0    0 -0.13684551169E+02  0.70324751346E+02 -0.65149153864E+02  0.13444858600E+03  0.93269354219E+02 0.  0.
         23    2    1    2    0    0  0.16604989395E+03 -0.97032309901E+02 -0.85201741985E+02  0.24299360798E+03  0.12164999070E+03 0.  0.
        -11    1    4    4    0    0  0.85968627852E+02  0.16279274059E+02 -0.45776661221E+02  0.98747771880E+02  0.00000000000E+00 0.  1.
         11    1    4    4    0    0  0.80081266095E+02 -0.11331158396E+03 -0.39425080765E+02  0.14424583610E+03  0.00000000000E+00 0. -1.
        -13    1    3    3    0    0 -0.29927636840E+02  0.10374166032E+02  0.13329022683E+02  0.34364947452E+02  0.00000000000E+00 0.  1.
         13    1    3    3    0    0  0.16243085671E+02  0.59950585314E+02 -0.78478176546E+02  0.10008363855E+03  0.00000000000E+00 0. -1.
          1    1    1    2  501    0 -0.15236534278E+03  0.26707558555E+02 -0.91728189200E+02  0.17984035158E+03  0.00000000000E+00 0. -1.
<scales pt_clust_5="13000.00000" pt_clust_6="13000.00000" pt_clust_7="13000.00000" pt_clust_8="13000.00000" pt_clust_9="13000.00000"></scales>
<clustering>
<clus scale="   93.269">  7  8 -1 -1</clus>
<clus scale="  117.610">  2  7  1 -1</clus>
<clus scale="  121.650">  5  6 -1 -1</clus>
<clus scale="  169.026">  5  9 -1 -1</clus>
<clus scale="  384.037">  1  5  2 -1</clus>
</clustering>
</event>
<event>
 9    1  0.3312826E-006  0.3101364E+03  0.7546771E-02  0.1122652E+00
          1   -1    0    0  502    0 -0.00000000000E+00  0.00000000000E+00  0.13341744914E+03  0.13341744914E+03  0.00000000000E+00 0. -1.
         21   -1    0    0  501  502  0.00000000000E+00 -0.00000000000E+00 -0.35514571186E+03  0.35514571186E+03  0.00000000000E+00 0. -1.
         23    2    1    2    0    0 -0.42896124945E+02 -0.24993182112E+02  0.60949085478E+01  0.10374111004E+03  0.90886375843E+02 0.  0.
         23    2    1    2    0    0 -0.21071001108E+02 -0.15494447091E+02 -0.27843422435E+03  0.29375877611E+03  0.89914049367E+02 0.  0.
        -11    1    4    4    0    0 -0.21179834178E+01  0.27373024163E+02 -0.28904495521E+02  0.39865250117E+02  0.00000000000E+00 0.  1.
         11    1    4    4    0    0 -0.18953017691E+02 -0.42867471254E+02 -0.24952972883E+03  0.25389352599E+03  0.00000000000E+00 0. -1.
        -13    1    3    3    0    0  0.59721776143E+01 -0.47809325931E+02  0.11513164371E+02  0.49537374833E+02  0.00000000000E+00 0. -1.
         13    1    3    3    0    0 -0.48868302559E+02  0.22816143819E+02 -0.54182558235E+01  0.54203735203E+02  0.00000000000E+00 0.  1.
          1    1    1    2  501    0  0.63967126054E+02  0.40487629203E+02  0.50611053083E+02  0.91063274860E+02  0.00000000000E+00 0. -1.
<scales pt_clust_5="13000.00000" pt_clust_6="13000.00000" pt_clust_7="13000.00000" pt_clust_8="13000.00000" pt_clust_9="13000.00000"></scales>
<clustering>
<clus scale="   89.914">  5  6 -1 -1</clus>
<clus scale="   75.704">  5  9 -1 -1</clus>
<clus scale="   90.886">  7  8 -1 -1</clus>
<clus scale="  103.562">  1  7  2 -1</clus>
<clus scale="  310.136">  2  5  1 -1</clus>
</clustering>
</event>
<event>
 9    1  0.3312826E-006  0.2213342E+03  0.7546771E-02  0.1169304E+00
         21   -1    0    0  501  502  0.00000000000E+00  0.00000000000E+00  0.19460693376E+03  0.19460693376E+03  0.00000000000E+00 0. -1.
          2   -1    0    0  502    0 -0.00000000000E+00 -0.00000000000E+00 -0.15497479966E+03  0.15497479966E+03  0.00000000000E+00 0. -1.
         23    2    1    2    0    0 -0.15060930624E+02  0.16100675687E+02 -0.55393988363E+02  0.10871086672E+03  0.90903768944E+02 0.  0.
         23    2    1    2    0    0  0.13914916587E+02 -0.57368367189E+02 -0.27228365356E+02  0.11183406768E+03  0.90998463485E+02 0.  0.
        -11    1    4    4    0    0 -0.23111058845E+02 -0.48700367352E+02  0.14052776889E+02  0.55707516184E+02  0.00000000000E+00 0. -1.
         11    1    4    4    0    0  0.37025975432E+02 -0.86679998368E+01 -0.41281142245E+02  0.56126551497E+02  0.00000000000E+00 0.  1.
        -13    1    3    3    0    0  0.29332122363E+02  0.33946784153E+02 -0.34040693759E+02  0.56316306593E+02  0.00000000000E+00 0.  1.
         13    1    3    3    0    0 -0.44393052987E+02 -0.17846108466E+02 -0.21353294604E+02  0.52394560131E+02  0.00000000000E+00 0. -1.
          2    1    1    2  501    0  0.11460140372E+01  0.41267691502E+02  0.12225448781E+03  0.12903679902E+03  0.00000000000E+00 0. -1.
<scales pt_clust_5="13000.00000" pt_clust_6="13000.00000" pt_clust_7="13000.00000" pt_clust_8="13000.00000" pt_clust_9="13000.00000"></scales>
<clustering>
<clus scale="   90.904">  7  8 -1 -1</clus>
<clus scale="   90.998">  5  6 -1 -1</clus>
<clus scale="   41.284">  5  9 -1 -1</clus>
<clus scale="   93.539">  2  7  1 -1</clus>
<clus scale="  221.334">  1  5  2 -1</clus>
</clustering>
</event>
<event>
 9    1  0.3312826E-006  0.1484026E+03  0.7546771E-02  0.1224655E+00
         21   -1    0    0  501  502  0.00000000000E+00  0.00000000000E+00  0.12071396172E+03  0.12071396172E+03  0.00000000000E+00 0. -1.
         -1   -1    0    0    0  501 -0.00000000000E+00 -0.00000000000E+00 -0.12412948833E+03  0.12412948833E+03  0.00000000000E+00 0.  1.
         23    2    1    2    0    0 -0.13274627353E+02  0.17619874130E+02 -0.22219918399E+02  0.95254203105E+02  0.89960895614E+02 0.  0.
         23    2    1    2    0    0  0.10753200535E+02  0.30235788072E+02  0.31583754464E+02  0.99992532245E+02  0.89281234067E+02 0.  0.
        -11    1    3    3    0    0  0.13035901924E+02  0.36194278012E+02 -0.42397169587E+02  0.57249283740E+02  0.00000000000E+00 0.  1.
         11    1    3    3    0    0 -0.26310529276E+02 -0.18574403881E+02  0.20177251189E+02  0.38004919364E+02  0.00000000000E+00 0. -1.
        -13    1    4    4    0    0 -0.29659533667E+02  0.47556768325E+01  0.41469517911E+02  0.51205715651E+02  0.00000000000E+00 0. -1.
         13    1    4    4    0    0  0.40412734202E+02  0.25480111240E+02 -0.98857634473E+01  0.48786816594E+02  0.00000000000E+00 0.  1.
         -1    1    1    2    0  502  0.25214268179E+01 -0.47855662203E+02 -0.12779362675E+02  0.49596714694E+02  0.00000000000E+00 0.  1.
<scales pt_clust_5="13000.00000" pt_clust_6="13000.00000" pt_clust_7="13000.00000" pt_clust_8="13000.00000" pt_clust_9="13000.00000"></scales>
<clustering>
<clus scale="   89.281">  7  8 -1 -1</clus>
<clus scale="   47.922">  7  9 -1 -1</clus>
<clus scale="   89.961">  5  6 -1 -1</clus>
<clus scale="   92.626">  2  5  1 -1</clus>
<clus scale="  148.403">  1  5  2 -1</clus>
</clustering>
</event>
<event>
 9    1  0.3312826E-006  0.2855890E+03  0.7546771E-02  0.1122462E+00
         21   -1    0    0  501  502  0.00000000000E+00  0.00000000000E+00  0.52618603555E+02  0.52618603555E+02  0.00000000000E+00 0.  1.
         -1   -1    0    0    0  501 -0.00000000000E+00 -0.00000000000E+00 -0.87474710521E+03  0.87474710521E+03  0.00000000000E+00 0.  1.
         23    2    1    2    0    0  0.97646880651E+01 -0.92105243612E+02 -0.36272960357E+03  0.38643276914E+03  0.95806026592E+02 0.  0.
         23    2    1    2    0    0 -0.11708229815E+03  0.21167545235E+02 -0.29550104918E+03  0.33257811879E+03  0.95556295041E+02 0.  0.
        -11    1    4    4    0    0 -0.13002956000E+03  0.38449721714E+01 -0.26475916485E+03  0.29499133150E+03  0.00000000000E+00 0.  1.
         11    1    4    4    0    0  0.12947261855E+02  0.17322573063E+02 -0.30741884330E+02  0.37586787297E+02  0.00000000000E+00 0. -1.
        -11    1    3    3    0    0  0.42766973174E+02 -0.12313865279E+02 -0.16014532499E+03  0.16621423040E+03  0.00000000000E+00 0. -1.
         11    1    3    3    0    0 -0.33002285109E+02 -0.79791378333E+02 -0.20258427858E+03  0.22021853874E+03  0.00000000000E+00 0.  1.
         -1    1    1    2    0  502  0.10731761008E+03  0.70937698377E+02 -0.16389784891E+03  0.20835482083E+03  0.00000000000E+00 0.  1.
<scales pt_clust_5="13000.00000" pt_clust_6="13000.00000" pt_clust_7="13000.00000" pt_clust_8="13000.00000" pt_clust_9="13000.00000"></scales>
<clustering>
<clus scale="   95.556">  5  6 -1 -1</clus>
<clus scale="   95.806">  7  8 -1 -1</clus>
<clus scale="  128.644">  5  9 -1 -1</clus>
<clus scale="  133.257">  2  7  1 -1</clus>
<clus scale="  285.589">  1  5  2 -1</clus>
</clustering>
</event>
<event>
 9    1  0.3312826E-006  0.1915419E+03  0.7546771E-02  0.1169305E+00
         21   -1    0    0  501  502  0.00000000000E+00  0.00000000000E+00  0.30419017500E+02  0.30419017500E+02  0.00000000000E+00 0. -1.
          2   -1    0    0  502    0 -0.00000000000E+00 -0.00000000000E+00 -0.97088482312E+03  0.97088482312E+03  0.00000000000E+00 0. -1.
         23    2    1    2    0    0 -0.81366819490E+02  0.77631419347E+02 -0.51241051705E+03  0.53234796186E+03  0.90457824064E+02 0.  0.
         23    2    1    2    0    0  0.86374710870E+02 -0.10458282434E+03 -0.38059210300E+03  0.41414519374E+03  0.90927085127E+02 0.  0.
        -11    1    4    4    0    0  0.41565236311E+02 -0.96925309378E+02 -0.32846552585E+03  0.34498084895E+03  0.00000000000E+00 0.  1.
         11    1    4    4    0    0  0.44809474559E+02 -0.76575149585E+01 -0.52126577147E+02  0.69164344793E+02  0.00000000000E+00 0. -1.
        -11    1    3    3    0    0 -0.24254327305E+02  0.80114671566E+02 -0.24529923589E+03  0.25918786261E+03  0.00000000000E+00 0.  1.
         11    1    3    3    0    0 -0.57112492186E+02 -0.24832522190E+01 -0.26711128115E+03  0.27316009926E+03  0.00000000000E+00 0. -1.
          2    1    1    2  501    0 -0.50078913801E+01  0.26951404990E+02 -0.47463185570E+02  0.54810685012E+02  0.00000000000E+00 0. -1.
<scales pt_clust_5="13000.00000" pt_clust_6="13000.00000" pt_clust_7="13000.00000" pt_clust_8="13000.00000" pt_clust_9="13000.00000"></scales>
<clustering>
<clus scale="   90.458">  7  8 -1 -1</clus>
<clus scale="   90.927">  5  6 -1 -1</clus>
<clus scale="   27.413">  5  9 -1 -1</clus>
<clus scale="  144.325">  2  7  1 -1</clus>
<clus scale="  191.542">  1  5  2 -1</clus>
</clustering>
</event>
<event>
 9    1  0.3312826E-006  0.1664825E+03  0.7546771E-02  0.1205670E+00
          2   -1    0    0  502    0 -0.00000000000E+00  0.00000000000E+00  0.51227880014E+02  0.51227880014E+02  0.00000000000E+00 0. -1.
         21   -1    0    0  501  502  0.00000000000E+00 -0.00000000000E+00 -0.39398170261E+03  0.39398170261E+03  0.00000000000E+00 0.  1.
         23    2    1    2    0    0  0.27932372030E+02 -0.74563098781E+01 -0.54119041575E+02  0.11200324741E+03  0.93701882616E+02 0.  0.
         23    2    1    2    0    0 -0.19734588274E+02 -0.46355190452E+02 -0.13785547036E+03  0.17290261801E+03  0.91394348562E+02 0.  0.
        -11    1    4    4    0    0 -0.22952335901E+02 -0.11834935329E+02 -0.13573308400E+03  0.13816781648E+03  0.00000000000E+00 0.  1.
         11    1    4    4    0    0  0.32177476276E+01 -0.34520255124E+02 -0.21223863623E+01  0.34734801532E+02  0.00000000000E+00 0. -1.
        -13    1    3    3    0    0  0.28121491454E+02 -0.38928559646E+02  0.15555046690E+01  0.48048627790E+02  0.00000000000E+00 0.  1.
         13    1    3    3    0    0 -0.18911942395E+00  0.31472249768E+02 -0.55674546244E+02  0.63954619623E+02  0.00000000000E+00 0. -1.
          2    1    1    2  501    0 -0.81977837564E+01  0.53811500330E+02 -0.15077931065E+03  0.16030371720E+03  0.00000000000E+00 0. -1.
<scales pt_clust_5="13000.00000" pt_clust_6="13000.00000" pt_clust_7="13000.00000" pt_clust_8="13000.00000" pt_clust_9="13000.00000"></scales>
<clustering>
<clus scale="   91.394">  5  6 -1 -1</clus>
<clus scale="   54.432">  5  9 -1 -1</clus>
<clus scale="   93.702">  7  8 -1 -1</clus>
<clus scale="   98.060">  1  7  2 -1</clus>
<clus scale="  166.483">  2  5  1 -1</clus>
</clustering>
</event>
<event>
 9    1  0.3312826E-006  0.9103105E+03  0.7546771E-02  0.9923396E-01
          2   -1    0    0  502    0 -0.00000000000E+00  0.00000000000E+00  0.22746345012E+04  0.22746345012E+04  0.00000000000E+00 0. -1.
         21   -1    0    0  501  502  0.00000000000E+00 -0.00000000000E+00 -0.13419602285E+03  0.13419602285E+03  0.00000000000E+00 0. -1.
         23    2    1    2    0    0  0.12574961011E+03  0.51411389560E+02  0.58032071479E+03  0.60255461381E+03  0.88565428859E+02 0.  0.
         23    2    1    2    0    0 -0.19385779379E+03 -0.34767393112E+03  0.14083025941E+04  0.14664847039E+04  0.93825282882E+02 0.  0.
        -11    1    4    4    0    0 -0.19092883499E+03 -0.31987033017E+03  0.13651771679E+04  0.14150899434E+04  0.00000000000E+00 0. -1.
         11    1    4    4    0    0 -0.29289587966E+01 -0.27803600946E+02  0.43125426247E+02  0.51394760571E+02  0.00000000000E+00 0.  1.
        -11    1    3    3    0    0  0.68673446850E+02 -0.13209018203E+02  0.34303538103E+03  0.35009112115E+03  0.00000000000E+00 0.  1.
         11    1    3    3    0    0  0.57076163257E+02  0.64620407763E+02  0.23728533376E+03  0.25246349266E+03  0.00000000000E+00 0. -1.
          2    1    1    2  501    0  0.68108183683E+02  0.29626254155E+03  0.15181516946E+03  0.33979120632E+03  0.00000000000E+00 0. -1.
<scales pt_clust_5="13000.00000" pt_clust_6="13000.00000" pt_clust_7="13000.00000" pt_clust_8="13000.00000" pt_clust_9="13000.00000"></scales>
<clustering>
<clus scale="   88.565">  7  8 -1 -1</clus>
<clus scale="   93.825">  5  6 -1 -1</clus>
<clus scale="  162.173">  1  7  2 -1</clus>
<clus scale="  315.838">  5  9 -1 -1</clus>
<clus scale="  910.311">  2  5  1 -1</clus>
</clustering>
</event>
<event>
 9    1  0.3312826E-006  0.2378396E+03  0.7546771E-02  0.1159493E+00
         -3   -1    0    0    0  501 -0.00000000000E+00  0.00000000000E+00  0.35709074769E+03  0.35709074769E+03  0.00000000000E+00 0.  1.
         21   -1    0    0  501  502  0.00000000000E+00 -0.00000000000E+00 -0.16034566183E+03  0.16034566183E+03  0.00000000000E+00 0. -1.
         23    2    1    2    0    0 -0.10188250923E+02 -0.27585965499E+02  0.25550855164E+03  0.27244497317E+03  0.89871338559E+02 0.  0.
         23    2    1    2    0    0 -0.21238787619E+02  0.68362099417E+02 -0.11800977730E+03  0.16650272838E+03  0.93125658568E+02 0.  0.
        -11    1    3    3    0    0  0.17764600331E+01 -0.50927802930E+02  0.23097613005E+03  0.23653069479E+03  0.00000000000E+00 0.  1.
         11    1    3    3    0    0 -0.11964710956E+02  0.23341837431E+02  0.24532421590E+02  0.35914278386E+02  0.00000000000E+00 0. -1.
        -13    1    4    4    0    0 -0.45084561788E+02  0.84147197543E+01 -0.22092697640E+02  0.50906900408E+02  0.00000000000E+00 0. -1.
         13    1    4    4    0    0  0.23845774169E+02  0.59947379663E+02 -0.95917079663E+02  0.11559582798E+03  0.00000000000E+00 0.  1.
         -3    1    1    2    0  502  0.31427038542E+02 -0.40776133919E+02  0.59246311526E+02  0.78488707967E+02  0.00000000000E+00 0.  1.
<scales pt_clust_5="13000.00000" pt_clust_6="13000.00000" pt_clust_7="13000.00000" pt_clust_8="13000.00000" pt_clust_9="13000.00000"></scales>
<clustering>
<clus scale="   89.871">  5  6 -1 -1</clus>
<clus scale="   93.126">  7  8 -1 -1</clus>
<clus scale="   51.482">  7  9 -1 -1</clus>
<clus scale="   94.560">  1  5  2 -1</clus>
<clus scale="  237.840">  2  5  1 -1</clus>
</clustering>
</event>
<event>
 9    1  0.3312826E-006  0.3685878E+03  0.7546771E-02  0.1087231E+00
         -1   -1    0    0    0  501 -0.00000000000E+00  0.00000000000E+00  0.55392192142E+03  0.55392192142E+03  0.00000000000E+00 0.  1.
         21   -1    0    0  501  502  0.00000000000E+00 -0.00000000000E+00 -0.22045168633E+03  0.22045168633E+03  0.00000000000E+00 0.  1.
         23    2    1    2    0    0  0.10075069172E+03 -0.68295463975E+02  0.37334590929E+03  0.40363512317E+03  0.93376508785E+02 0.  0.
         23    2    1    2    0    0 -0.28517294747E+02  0.13733153720E+02  0.14265559090E+03  0.16699263290E+03  0.80833694805E+02 0.  0.
        -11    1    3    3    0    0  0.26272984328E+02 -0.12179528234E+02  0.13588589880E+02  0.31988441482E+02  0.00000000000E+00 0. -1.
         11    1    3    3    0    0  0.74477707389E+02 -0.56115935741E+02  0.35975731941E+03  0.37164668169E+03  0.00000000000E+00 0.  1.
        -11    1    4    4    0    0 -0.20676415486E+02  0.42462002313E+02  0.46291360812E+02  0.66131882505E+02  0.00000000000E+00 0. -1.
         11    1    4    4    0    0 -0.78408792609E+01 -0.28728848593E+02  0.96364230089E+02  0.10086075039E+03  0.00000000000E+00 0.  1.
         -1    1    1    2    0  502 -0.72233396970E+02  0.54562310255E+02 -0.18253126510E+03  0.20374585168E+03  0.00000000000E+00 0.  1.
<scales pt_clust_5="13000.00000" pt_clust_6="13000.00000" pt_clust_7="13000.00000" pt_clust_8="13000.00000" pt_clust_9="13000.00000"></scales>
<clustering>
<clus scale="   80.834">  7  8 -1 -1</clus>
<clus scale="   90.525">  7  9 -1 -1</clus>
<clus scale="   93.377">  5  6 -1 -1</clus>
<clus scale="  153.408">  1  5  2 -1</clus>
<clus scale="  368.588">  2  5  1 -1</clus>
</clustering>
</event>
<event>
 9    1  0.3959881E-006  0.1791815E+03  0.7546771E-02  0.1212642E+00
         21   -1    0    0  501  502  0.00000000000E+00  0.00000000000E+00  0.10344439690E+03  0.10344439690E+03  0.00000000000E+00 0. -1.
          1   -1    0    0  502    0 -0.00000000000E+00 -0.00000000000E+00 -0.28226477827E+03  0.28226477827E+03  0.00000000000E+00 0. -1.
         23    2    1    2    0    0 -0.16647764075E+01  0.24666877096E+02 -0.19438133238E+03  0.20585327338E+03  0.63089155015E+02 0.  0.
         23    2    1    2    0    0 -0.50075710101E+02 -0.18068723187E+02  0.52039474663E+02  0.11620610785E+03  0.89228342347E+02 0.  0.
        -11    1    4    4    0    0 -0.31732686981E+02 -0.33818608992E+01 -0.21846231180E+02  0.38673740742E+02  0.00000000000E+00 0.  1.
         11    1    4    4    0    0 -0.18343023120E+02 -0.14686862287E+02  0.73885705843E+02  0.77532367105E+02  0.00000000000E+00 0. -1.
        -11    1    3    3    0    0 -0.59066490411E+01 -0.19647801166E+02 -0.37120702362E+02  0.42413101012E+02  0.00000000000E+00 0.  1.
         11    1    3    3    0    0  0.42418726336E+01  0.44314678262E+02 -0.15726063001E+03  0.16344017237E+03  0.00000000000E+00 0. -1.
          1    1    1    2  501    0  0.51740486509E+02 -0.65981539098E+01 -0.36478523656E+02  0.63649793930E+02  0.00000000000E+00 0. -1.
<scales pt_clust_5="13000.00000" pt_clust_6="13000.00000" pt_clust_7="13000.00000" pt_clust_8="13000.00000" pt_clust_9="13000.00000"></scales>
<clustering>
<clus scale="   63.089">  7  8 -1 -1</clus>
<clus scale="   67.760">  2  7  1 -1</clus>
<clus scale="   89.228">  5  6 -1 -1</clus>
<clus scale="   51.422">  5  9 -1 -1</clus>
<clus scale="  179.181">  1  5  2 -1</clus>
</clustering>
</event>
<event>
 9    1  0.3312826E-006  0.2497044E+03  0.7546771E-02  0.1133884E+00
          1   -1    0    0  502    0 -0.00000000000E+00  0.00000000000E+00  0.11075839377E+04  0.11075839377E+04  0.00000000000E+00 0. -1.
         21   -1    0    0  501  502  0.00000000000E+00 -0.00000000000E+00 -0.45740686045E+02  0.45740686045E+02  0.00000000000E+00 0. -1.
         23    2    1    2    0    0 -0.67161790441E+02  0.98905051103E+02  0.68451984362E+03  0.70085889175E+03  0.91339228179E+02 0.  0.
         23    2    1    2    0    0  0.41980039446E+02 -0.45278937941E+02  0.37719177401E+03  0.39322134054E+03  0.92395250652E+02 0.  0.
        -13    1    4    4    0    0 -0.15124263428E+02 -0.51114141295E+02  0.16457581959E+03  0.17299306107E+03  0.00000000000E+00 0.  1.
         13    1    4    4    0    0  0.57104302874E+02  0.58352033541E+01  0.21261595442E+03  0.22022827948E+03  0.00000000000E+00 0. -1.
        -13    1    3    3    0    0 -0.41594624872E+02  0.10612111291E+03  0.62980040747E+03  0.64003152787E+03  0.00000000000E+00 0. -1.
         13    1    3    3    0    0 -0.25567165569E+02 -0.72160618091E+01  0.54719436150E+02  0.60827363874E+02  0.00000000000E+00 0.  1.
          1    1    1    2  501    0  0.25181750995E+02 -0.53626113161E+02  0.13163406286E+00  0.59244391494E+02  0.00000000000E+00 0. -1.
<scales pt_clust_5="13000.00000" pt_clust_6="13000.00000" pt_clust_7="13000.00000" pt_clust_8="13000.00000" pt_clust_9="13000.00000"></scales>
<clustering>
<clus scale="   91.339">  7  8 -1 -1</clus>
<clus scale="   92.395">  5  6 -1 -1</clus>
<clus scale="   59.244">  5  9 -1 -1</clus>
<clus scale="  150.452">  1  7  2 -1</clus>
<clus scale="  249.704">  2  5  1 -1</clus>
</clustering>
</event>
<event>
 9    1  0.3312826E-006  0.1515645E+03  0.7546771E-02  0.1219444E+00
         21   -1    0    0  501  502  0.00000000000E+00  0.00000000000E+00  0.56829448378E+03  0.56829448378E+03  0.00000000000E+00 0.  1.
         -3   -1    0    0    0  501 -0.00000000000E+00 -0.00000000000E+00 -0.35182047458E+02  0.35182047458E+02  0.00000000000E+00 0.  1.
         23    2    1    2    0    0  0.10496588178E+02 -0.28492526167E+02  0.80063981461E+02  0.12574783198E+03  0.92088401597E+02 0.  0.
         23    2    1    2    0    0 -0.12594629872E+02 -0.14062529696E+02  0.19591567358E+03  0.21708986530E+03  0.91589732063E+02 0.  0.
        -11    1    4    4    0    0  0.33746424848E+02  0.67632646642E+01  0.12630715709E+03  0.13091241679E+03  0.00000000000E+00 0. -1.
         11    1    4    4    0    0 -0.46341054720E+02 -0.20825794360E+02  0.69608516492E+02  0.86177448508E+02  0.00000000000E+00 0.  1.
        -11    1    3    3    0    0 -0.23778306925E+01 -0.49856200549E+02  0.93729361670E+01  0.50785300475E+02  0.00000000000E+00 0.  1.
         11    1    3    3    0    0  0.12874418870E+02  0.21363674382E+02  0.70691045294E+02  0.74962531501E+02  0.00000000000E+00 0. -1.
         -3    1    1    2    0  502  0.20980416937E+01  0.42555055863E+02  0.25713278128E+03  0.26063883396E+03  0.00000000000E+00 0.  1.
<scales pt_clust_5="13000.00000" pt_clust_6="13000.00000" pt_clust_7="13000.00000" pt_clust_8="13000.00000" pt_clust_9="13000.00000"></scales>
<clustering>
<clus scale="   91.590">  5  6 -1 -1</clus>
<clus scale="   42.607">  5  9 -1 -1</clus>
<clus scale="   92.088">  7  8 -1 -1</clus>
<clus scale="   96.965">  2  7  1 -1</clus>
<clus scale="  151.565">  1  5  2 -1</clus>
</clustering>
</event>
<event>
 9    1  0.3312826E-006  0.1562050E+03  0.7546771E-02  0.1205778E+00
          1   -1    0    0  502    0 -0.00000000000E+00  0.00000000000E+00  0.22574077015E+03  0.22574077015E+03  0.00000000000E+00 0. -1.
         21   -1    0    0  501  502  0.00000000000E+00 -0.00000000000E+00 -0.83541319423E+02  0.83541319423E+02  0.00000000000E+00 0. -1.
         23    2    1    2    0    0 -0.67166175196E+02  0.29267573682E+02  0.62360228840E+02  0.13385601260E+03  0.93063139905E+02 0.  0.
         23    2    1    2    0    0  0.45424230820E+02  0.16907053783E+02  0.60275742252E+02  0.12076770065E+03  0.92749464705E+02 0.  0.
        -13    1    4    4    0    0 -0.28763487597E+02  0.62820929759E+01  0.20926819594E+02  0.36121111406E+02  0.00000000000E+00 0. -1.
         13    1    4    4    0    0  0.74187718418E+02  0.10624960807E+02  0.39348922658E+02  0.84646589244E+02  0.00000000000E+00 0.  1.
        -13    1    3    3    0    0 -0.20808659674E+02  0.52777549654E+02  0.57809583903E+01  0.57025341251E+02  0.00000000000E+00 0.  1.
         13    1    3    3    0    0 -0.46357515521E+02 -0.23509975972E+02  0.56579270450E+02  0.76830671350E+02  0.00000000000E+00 0. -1.
          1    1    1    2  501    0  0.21741944375E+02 -0.46174627466E+02  0.19563479638E+02  0.54658376324E+02  0.00000000000E+00 0. -1.
<scales pt_clust_5="13000.00000" pt_clust_6="13000.00000" pt_clust_7="13000.00000" pt_clust_8="13000.00000" pt_clust_9="13000.00000"></scales>
<clustering>
<clus scale="   92.749">  5  6 -1 -1</clus>
<clus scale="   51.037">  5  9 -1 -1</clus>
<clus scale="   93.063">  7  8 -1 -1</clus>
<clus scale="  118.443">  1  7  2 -1</clus>
<clus scale="  156.205">  2  5  1 -1</clus>
</clustering>
</event>
<event>
 9    1  0.4154461E-006  0.3822215E+03  0.7546771E-02  0.1073116E+00
         21   -1    0    0  501  502  0.00000000000E+00  0.00000000000E+00  0.14137201640E+03  0.14137201640E+03  0.00000000000E+00 0.  1.
          2   -1    0    0  502    0 -0.00000000000E+00 -0.00000000000E+00 -0.60198978837E+03  0.60198978837E+03  0.00000000000E+00 0. -1.
         23    2    1    2    0    0 -0.87965844556E+01  0.17313594765E+03 -0.15464122280E+03  0.25375491298E+03  0.10209902941E+03 0.  0.
         23    2    1    2    0    0  0.81511755854E+01 -0.16555621992E+02 -0.31914668961E+03  0.33247233946E+03  0.91338473457E+02 0.  0.
        -11    1    3    3    0    0  0.16552272768E+02  0.16447677895E+03 -0.15550407764E+03  0.22695397487E+03  0.00000000000E+00 0.  1.
         11    1    3    3    0    0 -0.25348857224E+02  0.86591687019E+01  0.86285484039E+00  0.26800938111E+02  0.00000000000E+00 0. -1.
        -13    1    4    4    0    0  0.30592604175E+02 -0.41711424118E+02 -0.25296419171E+03  0.25819882382E+03  0.00000000000E+00 0. -1.
         13    1    4    4    0    0 -0.22441428590E+02  0.25155802126E+02 -0.66182497900E+02  0.74273515643E+02  0.00000000000E+00 0.  1.
          2    1    1    2  501    0  0.64540887019E+00 -0.15658032566E+03  0.13170140443E+02  0.15713455233E+03  0.00000000000E+00 0. -1.
<scales pt_clust_5="13000.00000" pt_clust_6="13000.00000" pt_clust_7="13000.00000" pt_clust_8="13000.00000" pt_clust_9="13000.00000"></scales>
<clustering>
<clus scale="   91.338">  7  8 -1 -1</clus>
<clus scale="  102.099">  5  6 -1 -1</clus>
<clus scale="  156.582">  7  9 -1 -1</clus>
<clus scale="  201.191">  2  5  1 -1</clus>
<clus scale="  382.221">  1  5  2 -1</clus>
</clustering>
</event>
<event>
 9    1  0.3312826E-006  0.2443137E+03  0.7546771E-02  0.1145766E+00
         21   -1    0    0  501  502  0.00000000000E+00  0.00000000000E+00  0.21702475773E+03  0.21702475773E+03  0.00000000000E+00 0. -1.
          2   -1    0    0  502    0 -0.00000000000E+00 -0.00000000000E+00 -0.45358782660E+03  0.45358782660E+03  0.00000000000E+00 0. -1.
         23    2    1    2    0    0 -0.97122060727E+01  0.79035513516E+02 -0.37214736500E+03  0.39119838934E+03  0.90562570624E+02 0.  0.
         23    2    1    2    0    0  0.38868529899E+02  0.45010435400E+02  0.27920263946E+02  0.11259383507E+03  0.91439207372E+02 0.  0.
        -11    1    3    3    0    0 -0.40641332012E+02  0.59677928724E+01 -0.11723658174E+03  0.12422458902E+03  0.00000000000E+00 0. -1.
         11    1    3    3    0    0  0.30929125939E+02  0.73067720644E+02 -0.25491078326E+03  0.26697380032E+03  0.00000000000E+00 0.  1.
        -11    1    4    4    0    0 -0.22095700044E+01 -0.25730031417E+02  0.14743655869E+02  0.29737049361E+02  0.00000000000E+00 0.  1.
         11    1    4    4    0    0  0.41078099903E+02  0.70740466817E+02  0.13176608077E+02  0.82856785706E+02  0.00000000000E+00 0. -1.
          2    1    1    2  501    0 -0.29156323826E+02 -0.12404594892E+03  0.10766403218E+03  0.16682035993E+03  0.00000000000E+00 0. -1.
<scales pt_clust_5="13000.00000" pt_clust_6="13000.00000" pt_clust_7="13000.00000" pt_clust_8="13000.00000" pt_clust_9="13000.00000"></scales>
<clustering>
<clus scale="   90.563">  5  6 -1 -1</clus>
<clus scale="   91.439">  7  8 -1 -1</clus>
<clus scale="  120.592">  2  5  1 -1</clus>
<clus scale="   97.357">  7  9 -1 -1</clus>
<clus scale="  244.314">  1  5  2 -1</clus>
</clustering>
</event>
<event>
 9    1  0.3312826E-006  0.3850069E+03  0.7546771E-02  0.1074071E+00
         21   -1    0    0  501  502  0.00000000000E+00  0.00000000000E+00  0.37823179523E+03  0.37823179523E+03  0.00000000000E+00 0. -1.
          1   -1    0    0  502    0 -0.00000000000E+00 -0.00000000000E+00 -0.23757500298E+03  0.23757500298E+03  0.00000000000E+00 0. -1.
         23    2    1    2    0    0 -0.14464221650E+03  0.85291062357E+02 -0.30962837060E+02  0.19428143449E+03  0.92685718399E+02 0.  0.
         23    2    1    2    0    0  0.66043106923E+02 -0.20510078601E+03  0.66037128858E+02  0.24353700930E+03  0.92311148392E+02 0.  0.
        -11    1    3    3    0    0 -0.53680683060E+02 -0.45650482272E+01  0.18827029415E+02  0.57069365124E+02  0.00000000000E+00 0.  1.
         11    1    3    3    0    0 -0.90961533444E+02  0.89856110584E+02 -0.49789866475E+02  0.13721206936E+03  0.00000000000E+00 0. -1.
        -11    1    4    4    0    0  0.69920679787E+02 -0.71011621212E+02  0.19486864452E+02  0.10154452075E+03  0.00000000000E+00 0.  1.
         11    1    4    4    0    0 -0.38775728634E+01 -0.13408916480E+03  0.46550264406E+02  0.14199248855E+03  0.00000000000E+00 0. -1.
          1    1    1    2  501    0  0.78599109581E+02  0.11980972365E+03  0.10558250045E+03  0.17798835442E+03  0.00000000000E+00 0. -1.
<scales pt_clust_5="13000.00000" pt_clust_6="13000.00000" pt_clust_7="13000.00000" pt_clust_8="13000.00000" pt_clust_9="13000.00000"></scales>
<clustering>
<clus scale="   92.311">  7  8 -1 -1</clus>
<clus scale="   92.686">  5  6 -1 -1</clus>
<clus scale="  143.291">  7  9 -1 -1</clus>
<clus scale="  191.798">  2  5  1 -1</clus>
<clus scale="  385.007">  1  5  2 -1</clus>
</clustering>
</event>
<event>
 9    1  0.3312826E-006  0.5171968E+03  0.7546771E-02  0.1014006E+00
          1   -1    0    0  502    0 -0.00000000000E+00  0.00000000000E+00  0.13135110274E+04  0.13135110274E+04  0.00000000000E+00 0. -1.
         21   -1    0    0  501  502  0.00000000000E+00 -0.00000000000E+00 -0.19002489324E+03  0.19002489324E+03  0.00000000000E+00 0. -1.
         23    2    1    2    0    0  0.28949149652E+03 -0.33010394461E+03  0.33226846642E+03  0.55827516855E+03  0.92167723419E+02 0.  0.
         23    2    1    2    0    0 -0.63211779378E+02 -0.18149540074E+01  0.12354708665E+03  0.16605816579E+03  0.91172411916E+02 0.  0.
        -11    1    3    3    0    0  0.13806671831E+03 -0.11169413518E+03  0.92024707548E+02  0.20001636267E+03  0.00000000000E+00 0.  1.
         11    1    3    3    0    0  0.15142477821E+03 -0.21840980944E+03  0.24024375887E+03  0.35825880588E+03  0.00000000000E+00 0. -1.
        -13    1    4    4    0    0  0.28117513252E+01  0.34407368142E+02  0.50278784282E+02  0.60989581708E+02  0.00000000000E+00 0.  1.
         13    1    4    4    0    0 -0.66023530704E+02 -0.36222322150E+02  0.73268302369E+02  0.10506858408E+03  0.00000000000E+00 0. -1.
          1    1    1    2  501    0 -0.22627971714E+03  0.33191889862E+03  0.66767058106E+03  0.77920258627E+03  0.00000000000E+00 0. -1.
<scales pt_clust_5="13000.00000" pt_clust_6="13000.00000" pt_clust_7="13000.00000" pt_clust_8="13000.00000" pt_clust_9="13000.00000"></scales>
<clustering>
<clus scale="   91.172">  7  8 -1 -1</clus>
<clus scale="   92.168">  5  6 -1 -1</clus>
<clus scale="  401.712">  7  9 -1 -1</clus>
<clus scale="  448.630">  1  5  2 -1</clus>
<clus scale="  517.197">  2  5  1 -1</clus>
</clustering>
</event>
<event>
 9    1  0.3312826E-006  0.1474098E+03  0.7546771E-02  0.1220273E+00
         -1   -1    0    0    0  501 -0.00000000000E+00  0.00000000000E+00  0.44218112231E+02  0.44218112231E+02  0.00000000000E+00 0.  1.
         21   -1    0    0  501  502  0.00000000000E+00 -0.00000000000E+00 -0.36593110597E+03  0.36593110597E+03  0.00000000000E+00 0.  1.
         23    2    1    2    0    0 -0.48380056869E+02  0.50059279314E+01 -0.10051058442E+03  0.14432942376E+03  0.91448979024E+02 0.  0.
         23    2    1    2    0    0  0.41447131147E+02  0.24536517214E+02 -0.11164208869E+03  0.15213476738E+03  0.91439193562E+02 0.  0.
        -11    1    3    3    0    0  0.46169203595E+01  0.26400368722E+02 -0.78731067286E+02  0.83167760450E+02  0.00000000000E+00 0. -1.
         11    1    3    3    0    0 -0.52996977228E+02 -0.21394440791E+02 -0.21779517137E+02  0.61161663310E+02  0.00000000000E+00 0.  1.
        -11    1    4    4    0    0  0.69325669315E+02  0.26421519113E+02 -0.90914920453E+02  0.11734422806E+03  0.00000000000E+00 0.  1.
         11    1    4    4    0    0 -0.27878538168E+02 -0.18850018980E+01 -0.20727168241E+02  0.34790539316E+02  0.00000000000E+00 0. -1.
         -1    1    1    2    0  502  0.69329257221E+01 -0.29542445146E+02 -0.10956032062E+03  0.11368502707E+03  0.00000000000E+00 0.  1.
<scales pt_clust_5="13000.00000" pt_clust_6="13000.00000" pt_clust_7="13000.00000" pt_clust_8="13000.00000" pt_clust_9="13000.00000"></scales>
<clustering>
<clus scale="   91.439">  7  8 -1 -1</clus>
<clus scale="   30.345">  7  9 -1 -1</clus>
<clus scale="   91.449">  5  6 -1 -1</clus>
<clus scale="  103.579">  1  5  2 -1</clus>
<clus scale="  147.410">  2  5  1 -1</clus>
</clustering>
</event>
<event>
 9    1  0.3312826E-006  0.1251672E+03  0.7546771E-02  0.1249185E+00
         -1   -1    0    0    0  501 -0.00000000000E+00  0.00000000000E+00  0.15567326754E+03  0.15567326754E+03  0.00000000000E+00 0.  1.
         21   -1    0    0  501  502  0.00000000000E+00 -0.00000000000E+00 -0.13734245171E+03  0.13734245171E+03  0.00000000000E+00 0. -1.
         23    2    1    2    0    0  0.23405733007E+01  0.22520362394E+02  0.10510170878E+03  0.14071331836E+03  0.90781186220E+02 0.  0.
         23    2    1    2    0    0  0.16787275615E+02 -0.54849177923E+01 -0.48532405373E+02  0.10627781062E+03  0.92885314846E+02 0.  0.
        -11    1    3    3    0    0 -0.38771101463E+02  0.84250173711E+01  0.82910436145E+02  0.91914741190E+02  0.00000000000E+00 0.  1.
         11    1    3    3    0    0  0.41111674764E+02  0.14095345023E+02  0.22191272633E+02  0.48798577175E+02  0.00000000000E+00 0. -1.
        -13    1    4    4    0    0  0.23751078990E+02  0.38948362765E+02 -0.92169303509E+01  0.46540740436E+02  0.00000000000E+00 0. -1.
         13    1    4    4    0    0 -0.69638033741E+01 -0.44433280557E+02 -0.39315475023E+02  0.59737070189E+02  0.00000000000E+00 0.  1.
         -1    1    1    2    0  502 -0.19127848916E+02 -0.17035444602E+02 -0.38238487576E+02  0.46024590265E+02  0.00000000000E+00 0.  1.
<scales pt_clust_5="13000.00000" pt_clust_6="13000.00000" pt_clust_7="13000.00000" pt_clust_8="13000.00000" pt_clust_9="13000.00000"></scales>
<clustering>
<clus scale="   90.781">  5  6 -1 -1</clus>
<clus scale="   92.885">  7  8 -1 -1</clus>
<clus scale="   25.614">  7  9 -1 -1</clus>
<clus scale="   93.562">  1  5  2 -1</clus>
<clus scale="  125.167">  2  5  1 -1</clus>
</clustering>
</event>
<event>
 9    1  0.3312826E-006  0.1275132E+03  0.7546771E-02  0.1246124E+00
          2   -1    0    0  502    0 -0.00000000000E+00  0.00000000000E+00  0.15691321354E+03  0.15691321354E+03  0.00000000000E+00 0. -1.
         21   -1    0    0  501  502  0.00000000000E+00 -0.00000000000E+00 -0.11160650805E+03  0.11160650805E+03  0.00000000000E+00 0.  1.
         23    2    1    2    0    0 -0.90399760947E+01  0.90175017214E+01  0.93077161846E+02  0.13235201647E+03  0.93223718556E+02 0.  0.
         23    2    1    2    0    0  0.23186762838E+02  0.19244659481E+02 -0.34279783095E+02  0.10180377641E+03  0.90999574028E+02 0.  0.
        -11    1    3    3    0    0 -0.43524651900E+02  0.26051418113E+02  0.31377474367E+02  0.59645767716E+02  0.00000000000E+00 0.  1.
         11    1    3    3    0    0  0.34484675805E+02 -0.17033916392E+02  0.61699687479E+02  0.72706248755E+02  0.00000000000E+00 0. -1.
        -13    1    4    4    0    0  0.21260178987E+02 -0.25449583678E+02  0.13989871632E+02  0.35991568849E+02  0.00000000000E+00 0. -1.
         13    1    4    4    0    0  0.19265838506E+01  0.44694243158E+02 -0.48269654727E+02  0.65812207563E+02  0.00000000000E+00 0.  1.
          2    1    1    2  501    0 -0.14146786743E+02 -0.28262161202E+02 -0.13490673258E+02  0.34363928703E+02  0.00000000000E+00 0. -1.
<scales pt_clust_5="13000.00000" pt_clust_6="13000.00000" pt_clust_7="13000.00000" pt_clust_8="13000.00000" pt_clust_9="13000.00000"></scales>
<clustering>
<clus scale="   91.000">  7  8 -1 -1</clus>
<clus scale="   31.605">  7  9 -1 -1</clus>
<clus scale="   93.224">  5  6 -1 -1</clus>
<clus scale="   94.094">  1  5  2 -1</clus>
<clus scale="  127.513">  2  5  1 -1</clus>
</clustering>
</event>
<event>
 9    1  0.6863752E-006  0.9222709E+03  0.7546771E-02  0.9688112E-01
          2   -1    0    0  502    0 -0.00000000000E+00  0.00000000000E+00  0.44482717634E+03  0.44482717634E+03  0.00000000000E+00 0. -1.
         21   -1    0    0  501  502  0.00000000000E+00 -0.00000000000E+00 -0.90460310182E+03  0.90460310182E+03  0.00000000000E+00 0. -1.
         23    2    1    2    0    0  0.25693820839E+03  0.19884150143E+03 -0.53589846427E+02  0.34167498988E+03  0.91185204113E+02 0.  0.
         23    2    1    2    0    0  0.27056816839E+02 -0.18672578928E+02  0.25075257461E+03  0.26972926594E+03  0.93788521093E+02 0.  0.
        -11    1    3    3    0    0  0.26228930506E+02  0.48497895068E+02  0.16444574425E+02  0.57536307229E+02  0.00000000000E+00 0.  1.
         11    1    3    3    0    0  0.23070927788E+03  0.15034360636E+03 -0.70034420852E+02  0.28413868265E+03  0.00000000000E+00 0. -1.
        -13    1    4    4    0    0 -0.26725977604E+02  0.72242346145E+01  0.15070720653E+03  0.15322901013E+03  0.00000000000E+00 0.  1.
         13    1    4    4    0    0  0.53782794443E+02 -0.25896813542E+02  0.10004536808E+03  0.11650025581E+03  0.00000000000E+00 0. -1.
          2    1    1    2  501    0 -0.28399502523E+03 -0.18016892250E+03 -0.65693865366E+03  0.73802602234E+03  0.00000000000E+00 0. -1.
<scales pt_clust_5="13000.00000" pt_clust_6="13000.00000" pt_clust_7="13000.00000" pt_clust_8="13000.00000" pt_clust_9="13000.00000"></scales>
<clustering>
<clus scale="   91.185">  5  6 -1 -1</clus>
<clus scale="   93.789">  7  8 -1 -1</clus>
<clus scale="  336.324">  7  9 -1 -1</clus>
<clus scale="  337.446">  1  5  2 -1</clus>
<clus scale="  922.271">  2  5  1 -1</clus>
</clustering>
</event>
<event>
 9    1  0.3312826E-006  0.3395175E+03  0.7546771E-02  0.1110506E+00
         21   -1    0    0  501  502  0.00000000000E+00  0.00000000000E+00  0.67487112400E+02  0.67487112400E+02  0.00000000000E+00 0. -1.
          2   -1    0    0  502    0 -0.00000000000E+00 -0.00000000000E+00 -0.10007266988E+04  0.10007266988E+04  0.00000000000E+00 0. -1.
         23    2    1    2    0    0  0.18582828127E+02  0.53710153366E+02 -0.53162914664E+03  0.54232113184E+03  0.90843593102E+02 0.  0.
         23    2    1    2    0    0  0.12362209286E+03  0.42424527822E+02 -0.13709767085E+03  0.21056567228E+03  0.91977543922E+02 0.  0.
        -11    1    4    4    0    0  0.29727274652E+02 -0.18991716262E+02 -0.73671778495E+02  0.81681865132E+02  0.00000000000E+00 0.  1.
         11    1    4    4    0    0  0.93894818212E+02  0.61416244083E+02 -0.63425892355E+02  0.12888380715E+03  0.00000000000E+00 0. -1.
        -13    1    3    3    0    0  0.34322495638E+02 -0.14422875144E+02 -0.18477902964E+03  0.18849228852E+03  0.00000000000E+00 0.  1.
         13    1    3    3    0    0 -0.15739667511E+02  0.68133028510E+02 -0.34685011699E+03  0.35382884332E+03  0.00000000000E+00 0. -1.
          2    1    1    2  501    0 -0.14220492099E+03 -0.96134681187E+02 -0.26451276896E+03  0.31532700713E+03  0.00000000000E+00 0. -1.
<scales pt_clust_5="13000.00000" pt_clust_6="13000.00000" pt_clust_7="13000.00000" pt_clust_8="13000.00000" pt_clust_9="13000.00000"></scales>
<clustering>
<clus scale="   90.844">  7  8 -1 -1</clus>
<clus scale="   91.978">  5  6 -1 -1</clus>
<clus scale="  107.157">  2  7  1 -1</clus>
<clus scale="  144.798">  5  9 -1 -1</clus>
<clus scale="  339.518">  1  5  2 -1</clus>
</clustering>
</event>
<event>
 9    1  0.3312826E-006  0.2740284E+03  0.7546771E-02  0.1140254E+00
          1   -1    0    0  502    0 -0.00000000000E+00  0.00000000000E+00  0.95385434849E+02  0.95385434849E+02  0.00000000000E+00 0. -1.
         21   -1    0    0  501  502  0.00000000000E+00 -0.00000000000E+00 -0.45795377355E+03  0.45795377355E+03  0.00000000000E+00 0.  1.
         23    2    1    2    0    0 -0.13518401950E+02 -0.23255898356E+02  0.16333140065E+01  0.97560336054E+02  0.93764425325E+02 0.  0.
         23    2    1    2    0    0  0.11775314873E+03 -0.35446378957E+02 -0.22473224409E+03  0.27203297242E+03  0.91515609237E+02 0.  0.
        -13    1    4    4    0    0  0.10527103968E+03 -0.52498048170E+01 -0.10838584029E+03  0.15118545771E+03  0.00000000000E+00 0.  1.
         13    1    4    4    0    0  0.12482109049E+02 -0.30196574140E+02 -0.11634640380E+03  0.12084751471E+03  0.00000000000E+00 0. -1.
        -13    1    3    3    0    0  0.31647221249E+02 -0.18048837917E+02 -0.25633060439E+02  0.44546166507E+02  0.00000000000E+00 0.  1.
         13    1    3    3    0    0 -0.45165623199E+02 -0.52070604389E+01  0.27266374445E+02  0.53014169547E+02  0.00000000000E+00 0. -1.
          1    1    1    2  501    0 -0.10423474678E+03  0.58702277313E+02 -0.13946940861E+03  0.18374589992E+03  0.00000000000E+00 0. -1.
<scales pt_clust_5="13000.00000" pt_clust_6="13000.00000" pt_clust_7="13000.00000" pt_clust_8="13000.00000" pt_clust_9="13000.00000"></scales>
<clustering>
<clus scale="   91.516">  5  6 -1 -1</clus>
<clus scale="   93.764">  7  8 -1 -1</clus>
<clus scale="   97.547">  1  7  2 -1</clus>
<clus scale="  120.509">  5  9 -1 -1</clus>
<clus scale="  274.028">  2  5  1 -1</clus>
</clustering>
</event>
<event>
 9    1  0.3312826E-006  0.3499263E+03  0.7546771E-02  0.1090665E+00
         21   -1    0    0  501  502  0.00000000000E+00  0.00000000000E+00  0.13610119244E+03  0.13610119244E+03  0.00000000000E+00 0. -1.
          1   -1    0    0  502    0 -0.00000000000E+00 -0.00000000000E+00 -0.63950336673E+03  0.63950336673E+03  0.00000000000E+00 0. -1.
         23    2    1    2    0    0  0.11393388548E+03 -0.63379836588E+02 -0.36366611435E+03  0.39880945930E+03  0.98984888544E+02 0.  0.
         23    2    1    2    0    0  0.78858159529E+02 -0.42620770110E+02 -0.30417793033E+02  0.13112177058E+03  0.90733330248E+02 0.  0.
        -11    1    3    3    0    0  0.10065397409E+03 -0.34751481465E+02 -0.34730388779E+03  0.36326144640E+03  0.00000000000E+00 0. -1.
         11    1    3    3    0    0  0.13279911390E+02 -0.28628355123E+02 -0.16362226551E+02  0.35548012902E+02  0.00000000000E+00 0.  1.
        -11    1    4    4    0    0  0.90800240771E+02 -0.18093599536E+02 -0.32815304240E+01  0.92643567020E+02  0.00000000000E+00 0. -1.
         11    1    4    4    0    0 -0.11942081242E+02 -0.24527170574E+02 -0.27136262610E+02  0.38478203560E+02  0.00000000000E+00 0.  1.
          1    1    1    2  501    0 -0.19279204501E+03  0.10600060670E+03 -0.10931826692E+03  0.24567332928E+03  0.00000000000E+00 0. -1.
<scales pt_clust_5="13000.00000" pt_clust_6="13000.00000" pt_clust_7="13000.00000" pt_clust_8="13000.00000" pt_clust_9="13000.00000"></scales>
<clustering>
<clus scale="   90.733">  7  8 -1 -1</clus>
<clus scale="   98.985">  5  6 -1 -1</clus>
<clus scale="  163.695">  2  5  1 -1</clus>
<clus scale="  130.411">  7  9 -1 -1</clus>
<clus scale="  349.926">  1  5  2 -1</clus>
</clustering>
</event>
<event>
 9    1  0.3312826E-006  0.1915691E+03  0.7546771E-02  0.1176225E+00
         21   -1    0    0  501  502  0.00000000000E+00  0.00000000000E+00  0.75096496552E+02  0.75096496552E+02  0.00000000000E+00 0.  1.
          4   -1    0    0  502    0 -0.00000000000E+00 -0.00000000000E+00 -0.52310361973E+03  0.52310361973E+03  0.00000000000E+00 0. -1.
         23    2    1    2    0    0  0.45799361404E+02 -0.66250471287E+02 -0.37238060010E+03  0.39224363260E+03  0.93279416441E+02 0.  0.
         23    2    1    2    0    0 -0.58388300328E+02  0.91502031476E+02 -0.18502956429E+02  0.14224443975E+03  0.90051684408E+02 0.  0.
        -11    1    4    4    0    0 -0.48079800705E+02  0.13252133258E+02 -0.35867330436E+02  0.61430868986E+02  0.00000000000E+00 0. -1.
         11    1    4    4    0    0 -0.10308499623E+02  0.78249898218E+02  0.17364374007E+02  0.80813570768E+02  0.00000000000E+00 0.  1.
        -11    1    3    3    0    0  0.54856529348E+02  0.67748403970E+00 -0.18990446569E+03  0.19766993672E+03  0.00000000000E+00 0.  1.
         11    1    3    3    0    0 -0.90571679436E+01 -0.66927955327E+02 -0.18247613441E+03  0.19457369587E+03  0.00000000000E+00 0. -1.
          4    1    1    2  501    0  0.12588938923E+02 -0.25251560189E+02 -0.57123566651E+02  0.63712043933E+02  0.00000000000E+00 0. -1.
<scales pt_clust_5="13000.00000" pt_clust_6="13000.00000" pt_clust_7="13000.00000" pt_clust_8="13000.00000" pt_clust_9="13000.00000"></scales>
<clustering>
<clus scale="   90.052">  5  6 -1 -1</clus>
<clus scale="   28.216">  5  9 -1 -1</clus>
<clus scale="   93.279">  7  8 -1 -1</clus>
<clus scale="  123.239">  2  7  1 -1</clus>
<clus scale="  191.569">  1  5  2 -1</clus>
</clustering>
</event>
<event>
 9    1  0.3312826E-006  0.3620489E+03  0.7546771E-02  0.1084641E+00
          1   -1    0    0  502    0 -0.00000000000E+00  0.00000000000E+00  0.30959736802E+03  0.30959736802E+03  0.00000000000E+00 0. -1.
         21   -1    0    0  501  502  0.00000000000E+00 -0.00000000000E+00 -0.39409269657E+03  0.39409269657E+03  0.00000000000E+00 0. -1.
         23    2    1    2    0    0 -0.10273927589E+03 -0.10519104308E+03  0.18407010963E+03  0.25290538047E+03  0.91971799251E+02 0.  0.
         23    2    1    2    0    0 -0.10506642965E+03  0.37654131907E+02 -0.11706725319E+03  0.18489721605E+03  0.89584878447E+02 0.  0.
        -13    1    3    3    0    0 -0.60448852277E+02 -0.11422688134E+03  0.14891478912E+03  0.19717367619E+03  0.00000000000E+00 0. -1.
         13    1    3    3    0    0 -0.42290423612E+02  0.90358382570E+01  0.35155320502E+02  0.55731704279E+02  0.00000000000E+00 0.  1.
        -13    1    4    4    0    0 -0.16225576934E+02  0.26329934370E+02  0.71662636984E+01  0.31747285335E+02  0.00000000000E+00 0.  1.
         13    1    4    4    0    0 -0.88840852712E+02  0.11324197537E+02 -0.12423351688E+03  0.15314993072E+03  0.00000000000E+00 0. -1.
          1    1    1    2  501    0  0.20780570553E+03  0.67536911178E+02 -0.15149818499E+03  0.26588746807E+03  0.00000000000E+00 0. -1.
<scales pt_clust_5="13000.00000" pt_clust_6="13000.00000" pt_clust_7="13000.00000" pt_clust_8="13000.00000" pt_clust_9="13000.00000"></scales>
<clustering>
<clus scale="   89.585">  7  8 -1 -1</clus>
<clus scale="   91.972">  5  6 -1 -1</clus>
<clus scale="  173.434">  1  5  2 -1</clus>
<clus scale="  143.318">  7  9 -1 -1</clus>
<clus scale="  362.049">  2  5  1 -1</clus>
</clustering>
</event>
<event>
 9    1  0.3312826E-006  0.6764917E+03  0.7546771E-02  0.1031422E+00
         21   -1    0    0  501  502  0.00000000000E+00  0.00000000000E+00  0.13674759634E+04  0.13674759634E+04  0.00000000000E+00 0. -1.
          4   -1    0    0  502    0 -0.00000000000E+00 -0.00000000000E+00 -0.18958298340E+03  0.18958298340E+03  0.00000000000E+00 0. -1.
         23    2    1    2    0    0  0.76139481596E+02 -0.20534281018E+01 -0.69869569646E+02  0.13770966603E+03  0.90998671035E+02 0.  0.
         23    2    1    2    0    0  0.14672144199E+03 -0.15170630131E+03  0.11967204880E+03  0.25922117417E+03  0.91281074016E+02 0.  0.
        -13    1    4    4    0    0  0.15893147536E+03 -0.13152832408E+03  0.10918415153E+03  0.23340971025E+03  0.00000000000E+00 0. -1.
         13    1    4    4    0    0 -0.12210033368E+02 -0.20177977237E+02  0.10487897268E+02  0.25811463913E+02  0.00000000000E+00 0.  1.
        -13    1    3    3    0    0  0.91852625409E+02  0.10622549530E+02 -0.72299452600E+02  0.11737527082E+03  0.00000000000E+00 0. -1.
         13    1    3    3    0    0 -0.15713143813E+02 -0.12675977631E+02  0.24298829537E+01  0.20334395211E+02  0.00000000000E+00 0.  1.
          4    1    1    2  501    0 -0.22286092359E+03  0.15375972942E+03  0.11280905008E+04  0.11601281066E+04  0.00000000000E+00 0. -1.
<scales pt_clust_5="13000.00000" pt_clust_6="13000.00000" pt_clust_7="13000.00000" pt_clust_8="13000.00000" pt_clust_9="13000.00000"></scales>
<clustering>
<clus scale="   90.999">  7  8 -1 -1</clus>
<clus scale="   91.281">  5  6 -1 -1</clus>
<clus scale="  118.668">  2  7  1 -1</clus>
<clus scale="  258.954">  5  9 -1 -1</clus>
<clus scale="  676.492">  1  5  2 -1</clus>
</clustering>
</event>
<event>
 9    1  0.3312826E-006  0.2615274E+03  0.7546771E-02  0.1125353E+00
          1   -1    0    0  502    0 -0.00000000000E+00  0.00000000000E+00  0.34770558729E+03  0.34770558729E+03  0.00000000000E+00 0. -1.
         21   -1    0    0  501  502  0.00000000000E+00 -0.00000000000E+00 -0.25179588719E+03  0.25179588719E+03  0.00000000000E+00 0. -1.
         23    2    1    2    0    0  0.12115382741E+03 -0.52440963169E+02  0.24875458459E+03  0.29658537896E+03  0.93036224897E+02 0.  0.
         23    2    1    2    0    0 -0.15173464769E+03 -0.87384779476E+01 -0.59106848771E+02  0.18687761085E+03  0.91268053316E+02 0.  0.
        -13    1    3    3    0    0  0.32527353715E+02 -0.62203261375E+02  0.13390517020E+03  0.15118819092E+03  0.00000000000E+00 0.  1.
         13    1    3    3    0    0  0.88626473691E+02  0.97622982055E+01  0.11484941439E+03  0.14539718804E+03  0.00000000000E+00 0. -1.
        -13    1    4    4    0    0 -0.79820916298E+02  0.40879725702E+02 -0.25142620416E+02  0.93137972994E+02  0.00000000000E+00 0. -1.
         13    1    4    4    0    0 -0.71913731396E+02 -0.49618203650E+02 -0.33964228355E+02  0.93739637851E+02  0.00000000000E+00 0.  1.
          1    1    1    2  501    0  0.30580820287E+02  0.61179441117E+02 -0.93738035720E+02  0.11603848467E+03  0.00000000000E+00 0. -1.
<scales pt_clust_5="13000.00000" pt_clust_6="13000.00000" pt_clust_7="13000.00000" pt_clust_8="13000.00000" pt_clust_9="13000.00000"></scales>
<clustering>
<clus scale="   91.268">  7  8 -1 -1</clus>
<clus scale="   68.397">  7  9 -1 -1</clus>
<clus scale="   93.036">  5  6 -1 -1</clus>
<clus scale="  161.506">  1  5  2 -1</clus>
<clus scale="  261.527">  2  5  1 -1</clus>
</clustering>
</event>
<event>
 9    1  0.3312826E-006  0.2511387E+03  0.7546771E-02  0.1144372E+00
         21   -1    0    0  501  502  0.00000000000E+00  0.00000000000E+00  0.27380184414E+03  0.27380184414E+03  0.00000000000E+00 0.  1.
         -1   -1    0    0    0  501 -0.00000000000E+00 -0.00000000000E+00 -0.23733963204E+03  0.23733963204E+03  0.00000000000E+00 0.  1.
         23    2    1    2    0    0 -0.39393928606E+02 -0.57732642393E+02 -0.15674532266E+03  0.19428222778E+03  0.91057938967E+02 0.  0.
         23    2    1    2    0    0 -0.58552406603E+02 -0.31272399777E+02  0.11967903339E+03  0.16545970207E+03  0.92991906475E+02 0.  0.
        -11    1    3    3    0    0 -0.78318173303E+01 -0.32767514547E+02 -0.14967986785E+03  0.15342460759E+03  0.00000000000E+00 0.  1.
         11    1    3    3    0    0 -0.31562111276E+02 -0.24965127846E+02 -0.70654548031E+01  0.40857620197E+02  0.00000000000E+00 0. -1.
        -13    1    4    4    0    0 -0.53091885437E+02 -0.53294048968E+02  0.12127868228E+03  0.14271483010E+03  0.00000000000E+00 0.  1.
         13    1    4    4    0    0 -0.54605211657E+01  0.22021649191E+02 -0.15996488914E+01  0.22744871973E+02  0.00000000000E+00 0. -1.
         -1    1    1    2    0  502  0.97946335209E+02  0.89005042171E+02  0.73528501370E+02  0.15139954632E+03  0.00000000000E+00 0.  1.
<scales pt_clust_5="13000.00000" pt_clust_6="13000.00000" pt_clust_7="13000.00000" pt_clust_8="13000.00000" pt_clust_9="13000.00000"></scales>
<clustering>
<clus scale="   91.058">  5  6 -1 -1</clus>
<clus scale="   92.992">  7  8 -1 -1</clus>
<clus scale="  114.789">  2  5  1 -1</clus>
<clus scale="   90.116">  7  9 -1 -1</clus>
<clus scale="  251.139">  1  5  2 -1</clus>
</clustering>
</event>
<event>
 9    1  0.3312826E-006  0.1148326E+04  0.7546771E-02  0.9768572E-01
          3   -1    0    0  502    0 -0.00000000000E+00  0.00000000000E+00  0.13970254079E+04  0.13970254079E+04  0.00000000000E+00 0. -1.
         21   -1    0    0  501  502  0.00000000000E+00 -0.00000000000E+00 -0.35716104824E+03  0.35716104824E+03  0.00000000000E+00 0. -1.
         23    2    1    2    0    0  0.90338370454E+02 -0.37260678727E+02  0.43748304449E+03  0.45745371013E+03  0.91231043733E+02 0.  0.
         23    2    1    2    0    0 -0.32145132192E+03 -0.19195487709E+03  0.81945406611E+03  0.90548660022E+03  0.90682906348E+02 0.  0.
        -11    1    3    3    0    0 -0.83445062632E+01 -0.22178583322E+02  0.31738505140E+02  0.39608749684E+02  0.00000000000E+00 0.  1.
         11    1    3    3    0    0  0.98682876717E+02 -0.15082095405E+02  0.40574453935E+03  0.41784496045E+03  0.00000000000E+00 0. -1.
        -13    1    4    4    0    0 -0.14299789021E+03 -0.63672138311E+02  0.24847728429E+03  0.29367243420E+03  0.00000000000E+00 0.  1.
         13    1    4    4    0    0 -0.17845343171E+03 -0.12828273878E+03  0.57097678182E+03  0.61181416601E+03  0.00000000000E+00 0. -1.
          3    1    1    2  501    0  0.23111295147E+03  0.22921555582E+03 -0.21707275097E+03  0.39124614577E+03  0.00000000000E+00 0. -1.
<scales pt_clust_5="13000.00000" pt_clust_6="13000.00000" pt_clust_7="13000.00000" pt_clust_8="13000.00000" pt_clust_9="13000.00000"></scales>
<clustering>
<clus scale="   90.683">  7  8 -1 -1</clus>
<clus scale="   91.231">  5  6 -1 -1</clus>
<clus scale="  133.688">  1  5  2 -1</clus>
<clus scale="  329.084">  7  9 -1 -1</clus>
<clus scale=" 1148.326">  2  5  1 -1</clus>
</clustering>
</event>
<event>
 9    1  0.3312826E-006  0.2163966E+03  0.7546771E-02  0.1178222E+00
         21   -1    0    0  501  502  0.00000000000E+00  0.00000000000E+00  0.45220907762E+03  0.45220907762E+03  0.00000000000E+00 0. -1.
          2   -1    0    0  502    0 -0.00000000000E+00 -0.00000000000E+00 -0.57261022299E+02  0.57261022299E+02  0.00000000000E+00 0. -1.
         23    2    1    2    0    0  0.17825978298E+02 -0.92293121392E+01  0.33777404870E+02  0.88433594491E+02  0.79225260176E+02 0.  0.
         23    2    1    2    0    0 -0.27686966094E+02 -0.62181846157E+02  0.31671592902E+03  0.33634285238E+03  0.90467588484E+02 0.  0.
        -11    1    3    3    0    0 -0.19940705384E+02 -0.31200539335E+02  0.86300270328E+01  0.38020819989E+02  0.00000000000E+00 0.  1.
         11    1    3    3    0    0  0.37766683683E+02  0.21971227196E+02  0.25147377837E+02  0.50412774502E+02  0.00000000000E+00 0. -1.
        -13    1    4    4    0    0 -0.58516101740E+02 -0.24601704264E+02  0.15545845394E+03  0.16791875689E+03  0.00000000000E+00 0.  1.
         13    1    4    4    0    0  0.30829135646E+02 -0.37580141893E+02  0.16125747509E+03  0.16842409549E+03  0.00000000000E+00 0. -1.
          2    1    1    2  501    0  0.98609877958E+01  0.71411158297E+02  0.44454721427E+02  0.84693653048E+02  0.00000000000E+00 0. -1.
<scales pt_clust_5="13000.00000" pt_clust_6="13000.00000" pt_clust_7="13000.00000" pt_clust_8="13000.00000" pt_clust_9="13000.00000"></scales>
<clustering>
<clus scale="   79.225">  5  6 -1 -1</clus>
<clus scale="   81.729">  2  5  1 -1</clus>
<clus scale="   90.468">  7  8 -1 -1</clus>
<clus scale="   68.769">  7  9 -1 -1</clus>
<clus scale="  216.397">  1  5  2 -1</clus>
</clustering>
</event>
<event>
 9    1  0.3312826E-006  0.1705924E+03  0.7546771E-02  0.1211261E+00
          1   -1    0    0  502    0 -0.00000000000E+00  0.00000000000E+00  0.38882331950E+03  0.38882331950E+03  0.00000000000E+00 0. -1.
         21   -1    0    0  501  502  0.00000000000E+00 -0.00000000000E+00 -0.76830747175E+02  0.76830747175E+02  0.00000000000E+00 0. -1.
         23    2    1    2    0    0 -0.23332809303E+01 -0.22899469186E+02  0.28082913019E+03  0.29223855445E+03  0.77514788622E+02 0.  0.
         23    2    1    2    0    0 -0.13278580535E+02  0.72300447117E+02  0.35991326140E+02  0.12138191439E+03  0.89635474170E+02 0.  0.
        -11    1    4    4    0    0 -0.49250062148E+02  0.22191943493E+02  0.20546572462E+02  0.57794572561E+02  0.00000000000E+00 0.  1.
         11    1    4    4    0    0  0.35971481613E+02  0.50108503624E+02  0.15444753678E+02  0.63587341830E+02  0.00000000000E+00 0. -1.
        -13    1    3    3    0    0  0.80939684408E+01 -0.49493020238E+02  0.20912316918E+03  0.21505248491E+03  0.00000000000E+00 0.  1.
         13    1    3    3    0    0 -0.10427249371E+02  0.26593551052E+02  0.71705961014E+02  0.77186069546E+02  0.00000000000E+00 0. -1.
          1    1    1    2  501    0  0.15611861466E+02 -0.49400977931E+02 -0.48278840092E+01  0.52033597829E+02  0.00000000000E+00 0. -1.
<scales pt_clust_5="13000.00000" pt_clust_6="13000.00000" pt_clust_7="13000.00000" pt_clust_8="13000.00000" pt_clust_9="13000.00000"></scales>
<clustering>
<clus scale="   77.515">  7  8 -1 -1</clus>
<clus scale="   80.860">  1  7  2 -1</clus>
<clus scale="   89.635">  5  6 -1 -1</clus>
<clus scale="   56.724">  5  9 -1 -1</clus>
<clus scale="  170.592">  2  5  1 -1</clus>
</clustering>
</event>
<event>
 9    1  0.3312826E-006  0.3813380E+03  0.7546771E-02  0.1099594E+00
         21   -1    0    0  501  502  0.00000000000E+00  0.00000000000E+00  0.32796908896E+03  0.32796908896E+03  0.00000000000E+00 0. -1.
          1   -1    0    0  502    0 -0.00000000000E+00 -0.00000000000E+00 -0.18141795393E+03  0.18141795393E+03  0.00000000000E+00 0. -1.
         23    2    1    2    0    0  0.58590361048E+01 -0.41555831851E+02 -0.19975563463E+01  0.10013726829E+03  0.90897012073E+02 0.  0.
         23    2    1    2    0    0 -0.12758862845E+03  0.98427028260E+02 -0.28180630631E+02  0.18724599109E+03  0.91105297497E+02 0.  0.
        -13    1    3    3    0    0 -0.23135373145E+02 -0.13701462230E+02 -0.37741336517E+02  0.46339875268E+02  0.00000000000E+00 0. -1.
         13    1    3    3    0    0  0.28994409250E+02 -0.27854369622E+02  0.35743780171E+02  0.53797393019E+02  0.00000000000E+00 0.  1.
        -13    1    4    4    0    0 -0.76816805983E+02  0.98736606038E+02 -0.46219287066E+02  0.13336401895E+03  0.00000000000E+00 0. -1.
         13    1    4    4    0    0 -0.50771822470E+02 -0.30957777773E+00  0.18038656434E+02  0.53881972136E+02  0.00000000000E+00 0.  1.
          1    1    1    2  501    0  0.12172959235E+03 -0.56871196409E+02  0.17672932201E+03  0.22200378351E+03  0.00000000000E+00 0. -1.
<scales pt_clust_5="13000.00000" pt_clust_6="13000.00000" pt_clust_7="13000.00000" pt_clust_8="13000.00000" pt_clust_9="13000.00000"></scales>
<clustering>
<clus scale="   90.897">  5  6 -1 -1</clus>
<clus scale="   91.105">  7  8 -1 -1</clus>
<clus scale="  100.117">  2  5  1 -1</clus>
<clus scale="  138.471">  7  9 -1 -1</clus>
<clus scale="  381.338">  1  5  2 -1</clus>
</clustering>
</event>
<event>
 9    1  0.3312826E-006  0.2612866E+03  0.7546771E-02  0.1146699E+00
         21   -1    0    0  501  502  0.00000000000E+00  0.00000000000E+00  0.57475774855E+02  0.57475774855E+02  0.00000000000E+00 0.  1.
         -4   -1    0    0    0  501 -0.00000000000E+00 -0.00000000000E+00 -0.60691330858E+03  0.60691330858E+03  0.00000000000E+00 0.  1.
         23    2    1    2    0    0 -0.16612599508E+02  0.13125875963E+02 -0.24448062794E+03  0.26280543758E+03  0.94061966297E+02 0.  0.
         23    2    1    2    0    0 -0.96265900589E+02  0.21155994221E+02 -0.21380156949E+03  0.25249944903E+03  0.91269715328E+02 0.  0.
        -11    1    4    4    0    0 -0.64156346762E+02 -0.17676551002E+02 -0.56409710843E+02  0.87238482120E+02  0.00000000000E+00 0. -1.
         11    1    4    4    0    0 -0.32109553827E+02  0.38832545223E+02 -0.15739185865E+03  0.16526096691E+03  0.00000000000E+00 0.  1.
        -13    1    3    3    0    0 -0.16750309342E+02 -0.31101149938E+02 -0.18685145992E+03  0.19016130643E+03  0.00000000000E+00 0.  1.
         13    1    3    3    0    0  0.13770983429E+00  0.44227025900E+02 -0.57629168025E+02  0.72644131155E+02  0.00000000000E+00 0. -1.
         -4    1    1    2    0  502  0.11287850010E+03 -0.34281870184E+02 -0.91155336298E+02  0.14908419683E+03  0.00000000000E+00 0.  1.
<scales pt_clust_5="13000.00000" pt_clust_6="13000.00000" pt_clust_7="13000.00000" pt_clust_8="13000.00000" pt_clust_9="13000.00000"></scales>
<clustering>
<clus scale="   91.270">  5  6 -1 -1</clus>
<clus scale="   94.062">  7  8 -1 -1</clus>
<clus scale="   96.415">  2  7  1 -1</clus>
<clus scale="  111.299">  5  9 -1 -1</clus>
<clus scale="  261.287">  1  5  2 -1</clus>
</clustering>
</event>
<event>
 9    1  0.3312826E-006  0.2933330E+03  0.7546771E-02  0.1123903E+00
         -1   -1    0    0    0  501 -0.00000000000E+00  0.00000000000E+00  0.23265308244E+03  0.23265308244E+03  0.00000000000E+00 0.  1.
         21   -1    0    0  501  502  0.00000000000E+00 -0.00000000000E+00 -0.19328075790E+03  0.19328075790E+03  0.00000000000E+00 0.  1.
         23    2    1    2    0    0 -0.66111338729E+02 -0.35641062251E+02  0.57884589020E+02  0.13201724664E+03  0.91852780778E+02 0.  0.
         23    2    1    2    0    0  0.59197736381E+02  0.14411209969E+03 -0.18700997443E+02  0.18522529008E+03  0.98417536599E+02 0.  0.
        -11    1    4    4    0    0  0.83779572710E+02  0.13153820030E+03 -0.99893365714E+01  0.15627252409E+03  0.00000000000E+00 0.  1.
         11    1    4    4    0    0 -0.24581836329E+02  0.12573899393E+02 -0.87116608714E+01  0.28952765989E+02  0.00000000000E+00 0. -1.
        -11    1    3    3    0    0 -0.62564468641E+02  0.17700149545E+02  0.28228635836E+02  0.70883453016E+02  0.00000000000E+00 0. -1.
         11    1    3    3    0    0 -0.35468700881E+01 -0.53341211796E+02  0.29655953184E+02  0.61133793621E+02  0.00000000000E+00 0.  1.
         -1    1    1    2    0  502  0.69136023479E+01 -0.10847103744E+03  0.18873296495E+00  0.10869130361E+03  0.00000000000E+00 0.  1.
<scales pt_clust_5="13000.00000" pt_clust_6="13000.00000" pt_clust_7="13000.00000" pt_clust_8="13000.00000" pt_clust_9="13000.00000"></scales>
<clustering>
<clus scale="   91.853">  7  8 -1 -1</clus>
<clus scale="   98.418">  5  6 -1 -1</clus>
<clus scale="  108.691">  5  9 -1 -1</clus>
<clus scale="  118.650">  1  7  2 -1</clus>
<clus scale="  293.333">  2  5  1 -1</clus>
</clustering>
</event>
<event>
 9    1  0.3312826E-006  0.1956299E+03  0.7546771E-02  0.1177823E+00
         -3   -1    0    0    0  501 -0.00000000000E+00  0.00000000000E+00  0.36000101005E+03  0.36000101005E+03  0.00000000000E+00 0.  1.
         21   -1    0    0  501  502  0.00000000000E+00 -0.00000000000E+00 -0.68437499395E+02  0.68437499395E+02  0.00000000000E+00 0. -1.
         23    2    1    2    0    0  0.36854253720E+01 -0.63623516205E+02  0.14995318741E+03  0.18693376421E+03  0.91633725303E+02 0.  0.
         23    2    1    2    0    0 -0.31463415381E+02  0.10513511804E+03  0.12124901328E+03  0.18756577269E+03  0.91849095310E+02 0.  0.
        -11    1    3    3    0    0 -0.33911900764E+02  0.33161047500E+01  0.56599425451E+02  0.66064427081E+02  0.00000000000E+00 0. -1.
         11    1    3    3    0    0  0.37597326136E+02 -0.66939620955E+02  0.93353761961E+02  0.12086933713E+03  0.00000000000E+00 0.  1.
        -13    1    4    4    0    0 -0.14992976136E+02  0.27915236422E+02 -0.10998383244E+02  0.33541231222E+02  0.00000000000E+00 0.  1.
         13    1    4    4    0    0 -0.16470439245E+02  0.77219881618E+02  0.13224739652E+03  0.15402454146E+03  0.00000000000E+00 0. -1.
         -3    1    1    2    0  502  0.27777990009E+02 -0.41511601835E+02  0.20361309960E+02  0.53938972544E+02  0.00000000000E+00 0.  1.
<scales pt_clust_5="13000.00000" pt_clust_6="13000.00000" pt_clust_7="13000.00000" pt_clust_8="13000.00000" pt_clust_9="13000.00000"></scales>
<clustering>
<clus scale="   91.634">  5  6 -1 -1</clus>
<clus scale="   91.849">  7  8 -1 -1</clus>
<clus scale="   49.948">  7  9 -1 -1</clus>
<clus scale="  111.617">  1  5  2 -1</clus>
<clus scale="  195.630">  2  5  1 -1</clus>
</clustering>
</event>
<event>
 9    1  0.3312826E-006  0.1203365E+03  0.7546771E-02  0.1256535E+00
          2   -1    0    0  502    0 -0.00000000000E+00  0.00000000000E+00  0.32671347198E+03  0.32671347198E+03  0.00000000000E+00 0. -1.
         21   -1    0    0  501  502  0.00000000000E+00 -0.00000000000E+00 -0.35047104320E+02  0.35047104320E+02  0.00000000000E+00 0.  1.
         23    2    1    2    0    0 -0.69660095384E+00 -0.15474998417E+02  0.15447200587E+03  0.17926902018E+03  0.89642736302E+02 0.  0.
         23    2    1    2    0    0  0.75136057088E+00 -0.86254153733E+01  0.12907325650E+03  0.15705958225E+03  0.89066517286E+02 0.  0.
        -11    1    3    3    0    0 -0.36123801692E+02 -0.35173888373E+02  0.83945146459E+02  0.97923026332E+02  0.00000000000E+00 0.  1.
         11    1    3    3    0    0  0.35427200738E+02  0.19698889956E+02  0.70526859411E+02  0.81345993853E+02  0.00000000000E+00 0. -1.
        -11    1    4    4    0    0  0.38371413494E+02 -0.25446956491E+02  0.85347968424E+02  0.96975196222E+02  0.00000000000E+00 0. -1.
         11    1    4    4    0    0 -0.37620052924E+02  0.16821541118E+02  0.43725288071E+02  0.60084386029E+02  0.00000000000E+00 0.  1.
          2    1    1    2  501    0 -0.54759617041E-01  0.24100413790E+02  0.81211052961E+01  0.25431973866E+02  0.00000000000E+00 0. -1.
<scales pt_clust_5="13000.00000" pt_clust_6="13000.00000" pt_clust_7="13000.00000" pt_clust_8="13000.00000" pt_clust_9="13000.00000"></scales>
<clustering>
<clus scale="   89.067">  7  8 -1 -1</clus>
<clus scale="   24.100">  7  9 -1 -1</clus>
<clus scale="   89.643">  5  6 -1 -1</clus>
<clus scale="   90.971">  1  5  2 -1</clus>
<clus scale="  120.337">  2  5  1 -1</clus>
</clustering>
</event>
<event>
 9    1  0.3312826E-006  0.2117182E+03  0.7546771E-02  0.1170791E+00
         21   -1    0    0  501  502  0.00000000000E+00  0.00000000000E+00  0.48768907882E+03  0.48768907882E+03  0.00000000000E+00 0. -1.
         -1   -1    0    0    0  501 -0.00000000000E+00 -0.00000000000E+00 -0.51020436614E+02  0.51020436614E+02  0.00000000000E+00 0.  1.
         23    2    1    2    0    0 -0.38171559527E+02  0.31735385158E+02  0.12969300205E+03  0.16580385036E+03  0.90589399966E+02 0.  0.
         23    2    1    2    0    0 -0.33201036428E+02 -0.63685562665E+02  0.25191824229E+03  0.27727001087E+03  0.90871879118E+02 0.  0.
        -11    1    4    4    0    0  0.22809949814E+02  0.85982362798E+01  0.51956162745E+02  0.57390472422E+02  0.00000000000E+00 0.  1.
         11    1    4    4    0    0 -0.56010986242E+02 -0.72283798945E+02  0.19996207955E+03  0.21987953844E+03  0.00000000000E+00 0. -1.
        -13    1    3    3    0    0 -0.66402638554E+02  0.33205856497E+02  0.84339861019E+02  0.11236169930E+03  0.00000000000E+00 0. -1.
         13    1    3    3    0    0  0.28231079026E+02 -0.14704713388E+01  0.45353141027E+02  0.53442151060E+02  0.00000000000E+00 0.  1.
         -1    1    1    2    0  502  0.71372595955E+02  0.31950177507E+02  0.55057397871E+02  0.95635654211E+02  0.00000000000E+00 0.  1.
<scales pt_clust_5="13000.00000" pt_clust_6="13000.00000" pt_clust_7="13000.00000" pt_clust_8="13000.00000" pt_clust_9="13000.00000"></scales>
<clustering>
<clus scale="   90.589">  7  8 -1 -1</clus>
<clus scale="   90.872">  5  6 -1 -1</clus>
<clus scale="   78.198">  5  9 -1 -1</clus>
<clus scale="  103.299">  2  7  1 -1</clus>
<clus scale="  211.718">  1  5  2 -1</clus>
</clustering>
</event>
<event>
 9    1  0.3312826E-006  0.3671603E+03  0.7546771E-02  0.1084269E+00
         -4   -1    0    0    0  501 -0.00000000000E+00  0.00000000000E+00  0.54003179270E+03  0.54003179270E+03  0.00000000000E+00 0.  1.
         21   -1    0    0  501  502  0.00000000000E+00 -0.00000000000E+00 -0.16739125078E+03  0.16739125078E+03  0.00000000000E+00 0.  1.
         23    2    1    2    0    0 -0.12357055357E+03 -0.66740011988E+02  0.28363229335E+03  0.32962792972E+03  0.92105283826E+02 0.  0.
         23    2    1    2    0    0 -0.42533728871E+01  0.87703049605E+02  0.17847901544E+03  0.22036759634E+03  0.94853584403E+02 0.  0.
        -11    1    4    4    0    0 -0.10622895768E+02 -0.16948310330E+02  0.54186170386E+02  0.57760126373E+02  0.00000000000E+00 0.  1.
         11    1    4    4    0    0  0.63695228805E+01  0.10465135994E+03  0.12429284505E+03  0.16260746997E+03  0.00000000000E+00 0. -1.
        -13    1    3    3    0    0 -0.62483959989E+02 -0.31918850199E+01  0.19431405660E+03  0.20413815415E+03  0.00000000000E+00 0. -1.
         13    1    3    3    0    0 -0.61086593577E+02 -0.63548126968E+02  0.89318236746E+02  0.12548977557E+03  0.00000000000E+00 0.  1.
         -4    1    1    2    0  502  0.12782392645E+03 -0.20963037617E+02 -0.89470766864E+02  0.15742751743E+03  0.00000000000E+00 0.  1.
<scales pt_clust_5="13000.00000" pt_clust_6="13000.00000" pt_clust_7="13000.00000" pt_clust_8="13000.00000" pt_clust_9="13000.00000"></scales>
<clustering>
<clus scale="   92.105">  7  8 -1 -1</clus>
<clus scale="   94.854">  5  6 -1 -1</clus>
<clus scale="  129.532">  5  9 -1 -1</clus>
<clus scale="  167.950">  1  7  2 -1</clus>
<clus scale="  367.160">  2  5  1 -1</clus>
</clustering>
</event>
<event>
 9    1  0.3312826E-006  0.5841302E+03  0.7546771E-02  0.1048157E+00
         21   -1    0    0  501  502  0.00000000000E+00  0.00000000000E+00  0.56469299478E+03  0.56469299478E+03  0.00000000000E+00 0. -1.
          1   -1    0    0  502    0 -0.00000000000E+00 -0.00000000000E+00 -0.21702992138E+03  0.21702992138E+03  0.00000000000E+00 0. -1.
         23    2    1    2    0    0  0.62756107293E+02  0.23932623272E+02  0.31648767147E+02  0.11758954823E+03  0.91184197822E+02 0.  0.
         23    2    1    2    0    0 -0.25252824138E+03 -0.13748809277E+03  0.30614295493E+02  0.30307731456E+03  0.90802726645E+02 0.  0.
        -13    1    3    3    0    0  0.77996812154E+02 -0.59513536047E+01  0.30693987578E+02  0.84030007672E+02  0.00000000000E+00 0.  1.
         13    1    3    3    0    0 -0.15240704861E+02  0.29883976877E+02  0.95477956912E+00  0.33559540561E+02  0.00000000000E+00 0. -1.
        -13    1    4    4    0    0 -0.20027107034E+02 -0.25082206914E+02 -0.22791017433E+02  0.39365373051E+02  0.00000000000E+00 0.  1.
         13    1    4    4    0    0 -0.23250113434E+03 -0.11240588586E+03  0.53405312926E+02  0.26371194151E+03  0.00000000000E+00 0. -1.
          1    1    1    2  501    0  0.18977213408E+03  0.11355546950E+03  0.28540001076E+03  0.36105605336E+03  0.00000000000E+00 0. -1.
<scales pt_clust_5="13000.00000" pt_clust_6="13000.00000" pt_clust_7="13000.00000" pt_clust_8="13000.00000" pt_clust_9="13000.00000"></scales>
<clustering>
<clus scale="   90.803">  7  8 -1 -1</clus>
<clus scale="   91.184">  5  6 -1 -1</clus>
<clus scale="  113.250">  2  5  1 -1</clus>
<clus scale="  235.540">  7  9 -1 -1</clus>
<clus scale="  584.130">  1  5  2 -1</clus>
</clustering>
</event>
<event>
 9    1  0.3312826E-006  0.2806370E+03  0.7546771E-02  0.1130060E+00
         -2   -1    0    0    0  501 -0.00000000000E+00  0.00000000000E+00  0.61285546710E+02  0.61285546710E+02  0.00000000000E+00 0.  1.
         21   -1    0    0  501  502  0.00000000000E+00 -0.00000000000E+00 -0.87713616710E+03  0.87713616710E+03  0.00000000000E+00 0.  1.
         23    2    1    2    0    0  0.11219335318E+02 -0.72192849712E+02 -0.57505613840E+02  0.12981534691E+03  0.90594964740E+02 0.  0.
         23    2    1    2    0    0 -0.36524327279E+02 -0.33743640016E+02 -0.11632845484E+03  0.15741658263E+03  0.93675030586E+02 0.  0.
        -13    1    3    3    0    0 -0.27975021503E+02  0.46371006373E+01 -0.48667044277E+01  0.28771328478E+02  0.00000000000E+00 0. -1.
         13    1    3    3    0    0  0.39194356820E+02 -0.76829950349E+02 -0.52638909413E+02  0.10104401843E+03  0.00000000000E+00 0.  1.
        -13    1    4    4    0    0  0.24852449679E+02  0.66719226739E+00 -0.44597170090E+01  0.25258235813E+02  0.00000000000E+00 0.  1.
         13    1    4    4    0    0 -0.61376776958E+02 -0.34410832283E+02 -0.11186873783E+03  0.13215834682E+03  0.00000000000E+00 0. -1.
         -2    1    1    2    0  502  0.25304991961E+02  0.10593648973E+03 -0.64201655171E+03  0.65118978427E+03  0.00000000000E+00 0.  1.
<scales pt_clust_5="13000.00000" pt_clust_6="13000.00000" pt_clust_7="13000.00000" pt_clust_8="13000.00000" pt_clust_9="13000.00000"></scales>
<clustering>
<clus scale="   90.595">  5  6 -1 -1</clus>
<clus scale="   93.675">  7  8 -1 -1</clus>
<clus scale="  108.917">  7  9 -1 -1</clus>
<clus scale="  116.384">  1  5  2 -1</clus>
<clus scale="  280.637">  2  5  1 -1</clus>
</clustering>
</event>
<event>
 9    1  0.3312826E-006  0.1919737E+03  0.7546771E-02  0.1181736E+00
         21   -1    0    0  501  502  0.00000000000E+00  0.00000000000E+00  0.51562603832E+02  0.51562603832E+02  0.00000000000E+00 0. -1.
          2   -1    0    0  502    0 -0.00000000000E+00 -0.00000000000E+00 -0.49006244935E+03  0.49006244935E+03  0.00000000000E+00 0. -1.
         23    2    1    2    0    0  0.42119574113E+02 -0.24845122943E+02 -0.25082886732E+03  0.27315845858E+03  0.96483595279E+02 0.  0.
         23    2    1    2    0    0  0.15526781471E+02  0.13969512685E+02 -0.18782381150E+03  0.20980310878E+03  0.91122620990E+02 0.  0.
        -11    1    4    4    0    0 -0.28381111694E+02  0.33415278177E+02 -0.70343437781E+02  0.82887077132E+02  0.00000000000E+00 0.  1.
         11    1    4    4    0    0  0.43907893166E+02 -0.19445765492E+02 -0.11748037372E+03  0.12691603164E+03  0.00000000000E+00 0. -1.
        -13    1    3    3    0    0  0.37226938916E+02  0.32914988640E+02 -0.10265555029E+03  0.11405000422E+03  0.00000000000E+00 0.  1.
         13    1    3    3    0    0  0.48926351962E+01 -0.57760111584E+02 -0.14817331703E+03  0.15910845436E+03  0.00000000000E+00 0. -1.
          2    1    1    2  501    0 -0.57646355584E+02  0.10875610258E+02  0.15283330719E+00  0.58663485820E+02  0.00000000000E+00 0. -1.
<scales pt_clust_5="13000.00000" pt_clust_6="13000.00000" pt_clust_7="13000.00000" pt_clust_8="13000.00000" pt_clust_9="13000.00000"></scales>
<clustering>
<clus scale="   91.123">  5  6 -1 -1</clus>
<clus scale="   58.663">  5  9 -1 -1</clus>
<clus scale="   96.484">  7  8 -1 -1</clus>
<clus scale="  108.168">  2  7  1 -1</clus>
<clus scale="  191.974">  1  5  2 -1</clus>
</clustering>
</event>
<event>
 9    1  0.3312826E-006  0.1486471E+03  0.7546771E-02  0.1221263E+00
          1   -1    0    0  502    0 -0.00000000000E+00  0.00000000000E+00  0.11708117842E+04  0.11708117842E+04  0.00000000000E+00 0. -1.
         21   -1    0    0  501  502  0.00000000000E+00 -0.00000000000E+00 -0.14173716086E+02  0.14173716086E+02  0.00000000000E+00 0.  1.
         23    2    1    2    0    0  0.14309566608E+02  0.37263219278E+02  0.31025473653E+03  0.32564813739E+03  0.90528429989E+02 0.  0.
         23    2    1    2    0    0 -0.41606115294E+02 -0.53978341179E+02  0.65885959613E+03  0.66910159279E+03  0.94637434012E+02 0.  0.
        -11    1    3    3    0    0 -0.32681242048E+02  0.40242263805E+02  0.16009114256E+03  0.16827559925E+03  0.00000000000E+00 0.  1.
         11    1    3    3    0    0  0.46990808655E+02 -0.29790445265E+01  0.15016359398E+03  0.15737253814E+03  0.00000000000E+00 0. -1.
        -11    1    4    4    0    0 -0.41290193258E+02  0.17709828493E+02  0.25725995039E+03  0.26115359496E+03  0.00000000000E+00 0.  1.
         11    1    4    4    0    0 -0.31592203599E+00 -0.71688169673E+02  0.40159964574E+03  0.40794799783E+03  0.00000000000E+00 0. -1.
          1    1    1    2  501    0  0.27296548686E+02  0.16715121901E+02  0.18752373546E+03  0.19023577012E+03  0.00000000000E+00 0. -1.
<scales pt_clust_5="13000.00000" pt_clust_6="13000.00000" pt_clust_7="13000.00000" pt_clust_8="13000.00000" pt_clust_9="13000.00000"></scales>
<clustering>
<clus scale="   90.528">  5  6 -1 -1</clus>
<clus scale="   94.637">  7  8 -1 -1</clus>
<clus scale="   32.008">  7  9 -1 -1</clus>
<clus scale="   98.938">  1  5  2 -1</clus>
<clus scale="  148.647">  2  5  1 -1</clus>
</clustering>
</event>
<event>
 9    1  0.3312826E-006  0.3129277E+03  0.7546771E-02  0.1086647E+00
         21   -1    0    0  501  502  0.00000000000E+00  0.00000000000E+00  0.23227483459E+03  0.23227483459E+03  0.00000000000E+00 0. -1.
          1   -1    0    0  502    0 -0.00000000000E+00 -0.00000000000E+00 -0.34744580037E+03  0.34744580037E+03  0.00000000000E+00 0. -1.
         23    2    1    2    0    0 -0.25744736677E+02 -0.23439706218E+03 -0.65199674090E+02  0.26282814411E+03  0.96035730886E+02 0.  0.
         23    2    1    2    0    0 -0.59782725338E+02  0.15006498934E+03 -0.12676250613E+01  0.18728194957E+03  0.94759941350E+02 0.  0.
        -11    1    3    3    0    0  0.13905422006E+02 -0.14131185975E+03  0.85475872724E+00  0.14199694743E+03  0.00000000000E+00 0. -1.
         11    1    3    3    0    0 -0.39650158683E+02 -0.93085202436E+02 -0.66054432817E+02  0.12083119668E+03  0.00000000000E+00 0.  1.
        -13    1    4    4    0    0  0.17927537742E+02  0.11695224950E+02 -0.17646111317E+02  0.27740947005E+02  0.00000000000E+00 0.  1.
         13    1    4    4    0    0 -0.77710263079E+02  0.13836976439E+03  0.16378486256E+02  0.15954100256E+03  0.00000000000E+00 0. -1.
          1    1    1    2  501    0  0.85527462014E+02  0.84332072840E+02 -0.48703666626E+02  0.12961054128E+03  0.00000000000E+00 0. -1.
<scales pt_clust_5="13000.00000" pt_clust_6="13000.00000" pt_clust_7="13000.00000" pt_clust_8="13000.00000" pt_clust_9="13000.00000"></scales>
<clustering>
<clus scale="   94.760">  7  8 -1 -1</clus>
<clus scale="   96.036">  5  6 -1 -1</clus>
<clus scale="  120.112">  7  9 -1 -1</clus>
<clus scale="  254.613">  2  5  1 -1</clus>
<clus scale="  312.928">  1  5  2 -1</clus>
</clustering>
</event>
<event>
 9    1  0.3592469E-006  0.3482194E+03  0.7546771E-02  0.1109183E+00
         21   -1    0    0  501  502  0.00000000000E+00  0.00000000000E+00  0.19876581797E+03  0.19876581797E+03  0.00000000000E+00 0. -1.
          2   -1    0    0  502    0 -0.00000000000E+00 -0.00000000000E+00 -0.34170234111E+03  0.34170234111E+03  0.00000000000E+00 0. -1.
         23    2    1    2    0    0 -0.73453134490E+02 -0.85466094568E+01 -0.16189023303E+03  0.19173327372E+03  0.71307735910E+02 0.  0.
         23    2    1    2    0    0  0.11597753209E+02 -0.94382701911E+01 -0.14688453451E+03  0.17082516838E+03  0.85921957911E+02 0.  0.
        -13    1    3    3    0    0 -0.25128591022E+02  0.31242095573E+02 -0.65757571916E+02  0.77016705246E+02  0.00000000000E+00 0.  1.
         13    1    3    3    0    0 -0.48324543468E+02 -0.39788705030E+02 -0.96132661114E+02  0.11471656847E+03  0.00000000000E+00 0. -1.
        -13    1    4    4    0    0 -0.21604650388E+02 -0.36621643021E+02 -0.90302479337E+02  0.99812040508E+02  0.00000000000E+00 0. -1.
         13    1    4    4    0    0  0.33202403597E+02  0.27183372830E+02 -0.56582055172E+02  0.71013127874E+02  0.00000000000E+00 0.  1.
          2    1    1    2  501    0  0.61855381281E+02  0.17984879648E+02  0.16583824440E+03  0.17790971698E+03  0.00000000000E+00 0. -1.
<scales pt_clust_5="13000.00000" pt_clust_6="13000.00000" pt_clust_7="13000.00000" pt_clust_8="13000.00000" pt_clust_9="13000.00000"></scales>
<clustering>
<clus scale="   71.308">  5  6 -1 -1</clus>
<clus scale="   85.922">  7  8 -1 -1</clus>
<clus scale="   64.417">  7  9 -1 -1</clus>
<clus scale="  102.729">  2  5  1 -1</clus>
<clus scale="  348.219">  1  5  2 -1</clus>
</clustering>
</event>
<event>
 9    1  0.3312826E-006  0.2164559E+03  0.7546771E-02  0.1164584E+00
         21   -1    0    0  501  502  0.00000000000E+00  0.00000000000E+00  0.96195207515E+02  0.96195207515E+02  0.00000000000E+00 0. -1.
          1   -1    0    0  502    0 -0.00000000000E+00 -0.00000000000E+00 -0.48967562957E+03  0.48967562957E+03  0.00000000000E+00 0. -1.
         23    2    1    2    0    0  0.43155902515E+02 -0.43193360078E+02 -0.34701949881E+03  0.36448483754E+03  0.93266103016E+02 0.  0.
         23    2    1    2    0    0  0.34963400432E+02  0.25572297800E+02 -0.82256899408E+02  0.13366781878E+03  0.96044294424E+02 0.  0.
        -13    1    3    3    0    0  0.55808313090E+02  0.68300756925E+01 -0.22669662855E+03  0.23356493560E+03  0.00000000000E+00 0. -1.
         13    1    3    3    0    0 -0.12652410575E+02 -0.50023435770E+02 -0.12032287025E+03  0.13091990195E+03  0.00000000000E+00 0.  1.
        -13    1    4    4    0    0  0.23093318895E+02  0.58688037099E+02 -0.74560655816E+02  0.97656942773E+02  0.00000000000E+00 0. -1.
         13    1    4    4    0    0  0.11870081536E+02 -0.33115739299E+02 -0.76962435912E+01  0.36010876002E+02  0.00000000000E+00 0.  1.
          1    1    1    2  501    0 -0.78119302947E+02  0.17621062278E+02  0.35795976153E+02  0.87718180769E+02  0.00000000000E+00 0. -1.
<scales pt_clust_5="13000.00000" pt_clust_6="13000.00000" pt_clust_7="13000.00000" pt_clust_8="13000.00000" pt_clust_9="13000.00000"></scales>
<clustering>
<clus scale="   93.266">  5  6 -1 -1</clus>
<clus scale="   96.044">  7  8 -1 -1</clus>
<clus scale="   80.082">  7  9 -1 -1</clus>
<clus scale="  111.475">  2  5  1 -1</clus>
<clus scale="  216.456">  1  5  2 -1</clus>
</clustering>
</event>
<event>
 9    1  0.3312826E-006  0.4472893E+03  0.7546771E-02  0.1079713E+00
         21   -1    0    0  501  502  0.00000000000E+00  0.00000000000E+00  0.52210703999E+02  0.52210703999E+02  0.00000000000E+00 0. -1.
          1   -1    0    0  502    0 -0.00000000000E+00 -0.00000000000E+00 -0.14616249868E+04  0.14616249868E+04  0.00000000000E+00 0. -1.
         23    2    1    2    0    0 -0.80798967641E+01 -0.52454963642E+02 -0.28538550479E+03  0.30408017022E+03  0.90570721742E+02 0.  0.
         23    2    1    2    0    0  0.20149961424E+03 -0.11978970352E+01 -0.78670078914E+03  0.81722528144E+03  0.91408421287E+02 0.  0.
        -11    1    3    3    0    0  0.32396272602E+02 -0.55598154307E+02 -0.17145946454E+03  0.18313661901E+03  0.00000000000E+00 0.  1.
         11    1    3    3    0    0 -0.40476169366E+02  0.31431906647E+01 -0.11392604024E+03  0.12094355121E+03  0.00000000000E+00 0. -1.
        -13    1    4    4    0    0  0.17504362455E+03  0.18788543683E+02 -0.73512206651E+03  0.75590854774E+03  0.00000000000E+00 0. -1.
         13    1    4    4    0    0  0.26455989694E+02 -0.19986440719E+02 -0.51578722633E+02  0.61316733701E+02  0.00000000000E+00 0.  1.
          1    1    1    2  501    0 -0.19341971748E+03  0.53652860677E+02 -0.33732798891E+03  0.39253023918E+03  0.00000000000E+00 0. -1.
<scales pt_clust_5="13000.00000" pt_clust_6="13000.00000" pt_clust_7="13000.00000" pt_clust_8="13000.00000" pt_clust_9="13000.00000"></scales>
<clustering>
<clus scale="   90.571">  5  6 -1 -1</clus>
<clus scale="   91.408">  7  8 -1 -1</clus>
<clus scale="  104.976">  2  5  1 -1</clus>
<clus scale="  199.456">  7  9 -1 -1</clus>
<clus scale="  447.289">  1  5  2 -1</clus>
</clustering>
</event>
<event>
 9    1  0.3312826E-006  0.2284326E+03  0.7546771E-02  0.1158667E+00
         21   -1    0    0  501  502  0.00000000000E+00  0.00000000000E+00  0.44627525627E+02  0.44627525627E+02  0.00000000000E+00 0.  1.
         -4   -1    0    0    0  501 -0.00000000000E+00 -0.00000000000E+00 -0.75815363095E+03  0.75815363095E+03  0.00000000000E+00 0.  1.
         23    2    1    2    0    0 -0.21573679949E+02  0.40602666120E+02 -0.40208403261E+03  0.41654598647E+03  0.98615360875E+02 0.  0.
         23    2    1    2    0    0  0.28581035194E+02 -0.11810666989E+03 -0.19387653308E+03  0.24524712190E+03  0.88272190846E+02 0.  0.
        -11    1    3    3    0    0 -0.20319228124E+02  0.72938312707E+02 -0.25849920372E+03  0.26935980921E+03  0.00000000000E+00 0.  1.
         11    1    3    3    0    0 -0.12544518245E+01 -0.32335646587E+02 -0.14358482888E+03  0.14718617726E+03  0.00000000000E+00 0. -1.
        -11    1    4    4    0    0 -0.27487607799E+02 -0.11634591134E+02 -0.39779367071E+02  0.49732588289E+02  0.00000000000E+00 0. -1.
         11    1    4    4    0    0  0.56068642994E+02 -0.10647207876E+03 -0.15409716601E+03  0.19551453361E+03  0.00000000000E+00 0.  1.
         -4    1    1    2    0  502 -0.70073552455E+01  0.77504003769E+02 -0.11756553964E+03  0.14098804821E+03  0.00000000000E+00 0.  1.
<scales pt_clust_5="13000.00000" pt_clust_6="13000.00000" pt_clust_7="13000.00000" pt_clust_8="13000.00000" pt_clust_9="13000.00000"></scales>
<clustering>
<clus scale="   88.272">  7  8 -1 -1</clus>
<clus scale="   77.820">  7  9 -1 -1</clus>
<clus scale="   98.615">  5  6 -1 -1</clus>
<clus scale="  108.807">  2  5  1 -1</clus>
<clus scale="  228.433">  1  5  2 -1</clus>
</clustering>
</event>
<event>
 9    1  0.3312826E-006  0.2695050E+03  0.7546771E-02  0.1128089E+00
         21   -1    0    0  501  502  0.00000000000E+00  0.00000000000E+00  0.94792337536E+02  0.94792337536E+02  0.00000000000E+00 0.  1.
         -2   -1    0    0    0  501 -0.00000000000E+00 -0.00000000000E+00 -0.67184838440E+03  0.67184838440E+03  0.00000000000E+00 0.  1.
         23    2    1    2    0    0  0.54720991612E+02 -0.87873040567E+02 -0.44622594170E+03  0.46705861751E+03  0.91159766159E+02 0.  0.
         23    2    1    2    0    0 -0.13906987062E+03  0.36938247614E+02 -0.86991829449E+02  0.19173554240E+03  0.92141612630E+02 0.  0.
        -11    1    3    3    0    0  0.39495800294E+02  0.73311786783E+01 -0.10325842627E+03  0.11079696304E+03  0.00000000000E+00 0. -1.
         11    1    3    3    0    0  0.15225191317E+02 -0.95204219245E+02 -0.34296751542E+03  0.35626165448E+03  0.00000000000E+00 0.  1.
        -11    1    4    4    0    0 -0.99334112847E+02  0.28266284331E+02 -0.88661268560E+01  0.10365740210E+03  0.00000000000E+00 0.  1.
         11    1    4    4    0    0 -0.39735757772E+02  0.86719632831E+01 -0.78125702593E+02  0.88078140299E+02  0.00000000000E+00 0. -1.
         -2    1    1    2    0  502  0.84348879008E+02  0.50934792953E+02 -0.43838275720E+02  0.10784656203E+03  0.00000000000E+00 0.  1.
<scales pt_clust_5="13000.00000" pt_clust_6="13000.00000" pt_clust_7="13000.00000" pt_clust_8="13000.00000" pt_clust_9="13000.00000"></scales>
<clustering>
<clus scale="   91.160">  5  6 -1 -1</clus>
<clus scale="   92.142">  7  8 -1 -1</clus>
<clus scale="   98.535">  7  9 -1 -1</clus>
<clus scale="  137.935">  2  5  1 -1</clus>
<clus scale="  269.505">  1  5  2 -1</clus>
</clustering>
</event>
<event>
 9    1  0.3312826E-006  0.4213504E+03  0.7546771E-02  0.1054855E+00
         21   -1    0    0  501  502  0.00000000000E+00  0.00000000000E+00  0.81143586039E+03  0.81143586039E+03  0.00000000000E+00 0. -1.
          2   -1    0    0  502    0 -0.00000000000E+00 -0.00000000000E+00 -0.14182226922E+03  0.14182226922E+03  0.00000000000E+00 0. -1.
         23    2    1    2    0    0  0.22017991342E+03  0.69949895374E+02  0.18154916916E+03  0.30847674407E+03  0.93944763942E+02 0.  0.
         23    2    1    2    0    0 -0.13133591724E+03  0.27738056416E+02  0.27136026599E+02  0.16531170217E+03  0.92590885102E+02 0.  0.
        -11    1    4    4    0    0 -0.86765808579E+02  0.61208991145E+02  0.84270980174E+01  0.10651695694E+03  0.00000000000E+00 0. -1.
         11    1    4    4    0    0 -0.44570108660E+02 -0.33470934729E+02  0.18708928582E+02  0.58794745227E+02  0.00000000000E+00 0.  1.
        -13    1    3    3    0    0  0.19566253040E+03  0.88044114558E+02  0.13722410020E+03  0.25468813397E+03  0.00000000000E+00 0. -1.
         13    1    3    3    0    0  0.24517383021E+02 -0.18094219184E+02  0.44325068951E+02  0.53788610092E+02  0.00000000000E+00 0.  1.
          2    1    1    2  501    0 -0.88843996181E+02 -0.97687951789E+02  0.46092839541E+03  0.47946968338E+03  0.00000000000E+00 0. -1.
<scales pt_clust_5="13000.00000" pt_clust_6="13000.00000" pt_clust_7="13000.00000" pt_clust_8="13000.00000" pt_clust_9="13000.00000"></scales>
<clustering>
<clus scale="   92.591">  5  6 -1 -1</clus>
<clus scale="   93.945">  7  8 -1 -1</clus>
<clus scale="  132.046">  5  9 -1 -1</clus>
<clus scale="  249.395">  2  7  1 -1</clus>
<clus scale="  421.350">  1  5  2 -1</clus>
</clustering>
</event>
<event>
 9    1  0.3312826E-006  0.6246282E+03  0.7546771E-02  0.1031219E+00
          2   -1    0    0  502    0 -0.00000000000E+00  0.00000000000E+00  0.75590995755E+03  0.75590995755E+03  0.00000000000E+00 0. -1.
         21   -1    0    0  501  502  0.00000000000E+00 -0.00000000000E+00 -0.20074630905E+03  0.20074630905E+03  0.00000000000E+00 0. -1.
         23    2    1    2    0    0  0.11863131531E+03 -0.14173516112E+02  0.14189061301E+03  0.20768696654E+03  0.93416553560E+02 0.  0.
         23    2    1    2    0    0  0.83065069088E+02  0.55243260610E+01  0.51024956031E+03  0.52500348495E+03  0.91343973697E+02 0.  0.
        -13    1    3    3    0    0  0.12612688561E+03  0.95043522346E+01  0.12354738086E+03  0.17681142299E+03  0.00000000000E+00 0. -1.
         13    1    3    3    0    0 -0.74955702963E+01 -0.23677868346E+02  0.18343232154E+02  0.30875543548E+02  0.00000000000E+00 0.  1.
        -13    1    4    4    0    0  0.37954652021E+01 -0.30206079460E+02  0.71340717127E+02  0.77564880665E+02  0.00000000000E+00 0.  1.
         13    1    4    4    0    0  0.79269603886E+02  0.35730405521E+02  0.43890884318E+03  0.44743860428E+03  0.00000000000E+00 0. -1.
          2    1    1    2  501    0 -0.20169638440E+03  0.86491900506E+01 -0.96976524822E+02  0.22396581511E+03  0.00000000000E+00 0. -1.
<scales pt_clust_5="13000.00000" pt_clust_6="13000.00000" pt_clust_7="13000.00000" pt_clust_8="13000.00000" pt_clust_9="13000.00000"></scales>
<clustering>
<clus scale="   91.344">  7  8 -1 -1</clus>
<clus scale="   93.417">  5  6 -1 -1</clus>
<clus scale="  151.661">  1  5  2 -1</clus>
<clus scale="  188.868">  7  9 -1 -1</clus>
<clus scale="  624.628">  2  5  1 -1</clus>
</clustering>
</event>
<event>
 9    1  0.3312826E-006  0.1705517E+03  0.7546771E-02  0.1186338E+00
          2   -1    0    0  502    0 -0.00000000000E+00  0.00000000000E+00  0.38380511636E+03  0.38380511636E+03  0.00000000000E+00 0. -1.
         21   -1    0    0  501  502  0.00000000000E+00 -0.00000000000E+00 -0.16148976032E+03  0.16148976032E+03  0.00000000000E+00 0.  1.
         23    2    1    2    0    0 -0.71171893155E+02 -0.76327733122E+02  0.31984704478E+03  0.34882529321E+03  0.92117272604E+02 0.  0.
         23    2    1    2    0    0  0.88898698246E+02  0.49092935170E+02 -0.72774915230E+02  0.15561775765E+03  0.92777170559E+02 0.  0.
        -11    1    4    4    0    0 -0.17245264422E+02  0.20886569166E+02 -0.86174357833E+01  0.28423724527E+02  0.00000000000E+00 0. -1.
         11    1    4    4    0    0  0.10614396267E+03  0.28206366004E+02 -0.64157479447E+02  0.12719403313E+03  0.00000000000E+00 0.  1.
        -13    1    3    3    0    0 -0.20794168823E+02 -0.58256013213E+02  0.70456935649E+02  0.93756814757E+02  0.00000000000E+00 0.  1.
         13    1    3    3    0    0 -0.50377724333E+02 -0.18071719910E+02  0.24939010913E+03  0.25506847845E+03  0.00000000000E+00 0. -1.
          2    1    1    2  501    0 -0.17726805091E+02  0.27234797952E+02 -0.24756773511E+02  0.40851825821E+02  0.00000000000E+00 0. -1.
<scales pt_clust_5="13000.00000" pt_clust_6="13000.00000" pt_clust_7="13000.00000" pt_clust_8="13000.00000" pt_clust_9="13000.00000"></scales>
<clustering>
<clus scale="   92.117">  7  8 -1 -1</clus>
<clus scale="   92.777">  5  6 -1 -1</clus>
<clus scale="   32.496">  5  9 -1 -1</clus>
<clus scale="  139.201">  1  7  2 -1</clus>
<clus scale="  170.552">  2  5  1 -1</clus>
</clustering>
</event>
<event>
 9    1  0.3312826E-006  0.2856426E+03  0.7546771E-02  0.1132770E+00
          1   -1    0    0  502    0 -0.00000000000E+00  0.00000000000E+00  0.85486185745E+03  0.85486185745E+03  0.00000000000E+00 0. -1.
         21   -1    0    0  501  502  0.00000000000E+00 -0.00000000000E+00 -0.50874354806E+02  0.50874354806E+02  0.00000000000E+00 0. -1.
         23    2    1    2    0    0 -0.28578832193E+02  0.53400413071E+02  0.38522655139E+03  0.39883144511E+03  0.83658065619E+02 0.  0.
         23    2    1    2    0    0 -0.85522959880E+02  0.38594722916E+02  0.16075258533E+03  0.21017148474E+03  0.97605993703E+02 0.  0.
        -11    1    3    3    0    0 -0.47751411280E+02  0.64677651663E+02  0.28203064374E+03  0.29326554505E+03  0.00000000000E+00 0. -1.
         11    1    3    3    0    0  0.19172579088E+02 -0.11277238592E+02  0.10319590765E+03  0.10556590006E+03  0.00000000000E+00 0.  1.
        -13    1    4    4    0    0 -0.74564670301E+02 -0.13003932865E+02  0.12605435815E+03  0.14703296751E+03  0.00000000000E+00 0. -1.
         13    1    4    4    0    0 -0.10958289579E+02  0.51598655781E+02  0.34698227175E+02  0.63138517230E+02  0.00000000000E+00 0.  1.
          1    1    1    2  501    0  0.11410179207E+03 -0.91995135986E+02  0.25800836593E+03  0.29673328241E+03  0.00000000000E+00 0. -1.
<scales pt_clust_5="13000.00000" pt_clust_6="13000.00000" pt_clust_7="13000.00000" pt_clust_8="13000.00000" pt_clust_9="13000.00000"></scales>
<clustering>
<clus scale="   83.658">  5  6 -1 -1</clus>
<clus scale="   97.606">  7  8 -1 -1</clus>
<clus scale="  103.281">  1  5  2 -1</clus>
<clus scale="  114.032">  7  9 -1 -1</clus>
<clus scale="  285.643">  2  5  1 -1</clus>
</clustering>
</event>
<event>
 9    1  0.3312826E-006  0.2459821E+03  0.7546771E-02  0.1150266E+00
         21   -1    0    0  501  502  0.00000000000E+00  0.00000000000E+00  0.74661761547E+02  0.74661761547E+02  0.00000000000E+00 0. -1.
         -3   -1    0    0    0  501 -0.00000000000E+00 -0.00000000000E+00 -0.53137132166E+03  0.53137132166E+03  0.00000000000E+00 0.  1.
         23    2    1    2    0    0  0.18652517097E+02 -0.54134922809E+02 -0.29015569427E+03  0.30896850300E+03  0.89401916458E+02 0.  0.
         23    2    1    2    0    0  0.39461621992E+02  0.40409057767E+02 -0.20092450174E+03  0.22816615392E+03  0.92190166695E+02 0.  0.
        -13    1    3    3    0    0 -0.21400685935E+02 -0.59827984787E+02 -0.14564881591E+03  0.15890548983E+03  0.00000000000E+00 0.  1.
         13    1    3    3    0    0  0.40053203033E+02  0.56930619782E+01 -0.14450687836E+03  0.15006301317E+03  0.00000000000E+00 0. -1.
        -13    1    4    4    0    0  0.68129173621E+02  0.39374227101E+02 -0.13478110989E+03  0.15607005363E+03  0.00000000000E+00 0. -1.
         13    1    4    4    0    0 -0.28667551630E+02  0.10348306655E+01 -0.66143391850E+02  0.72096100285E+02  0.00000000000E+00 0.  1.
         -3    1    1    2    0  502 -0.58114139089E+02  0.13725865042E+02  0.34370635897E+02  0.68898426289E+02  0.00000000000E+00 0.  1.
<scales pt_clust_5="13000.00000" pt_clust_6="13000.00000" pt_clust_7="13000.00000" pt_clust_8="13000.00000" pt_clust_9="13000.00000"></scales>
<clustering>
<clus scale="   89.402">  5  6 -1 -1</clus>
<clus scale="   92.190">  7  8 -1 -1</clus>
<clus scale="   59.713">  7  9 -1 -1</clus>
<clus scale="  106.166">  2  5  1 -1</clus>
<clus scale="  245.982">  1  5  2 -1</clus>
</clustering>
</event>
<event>
 9    1  0.3312826E-006  0.2607691E+03  0.7546771E-02  0.1144056E+00
         21   -1    0    0  501  502  0.00000000000E+00  0.00000000000E+00  0.41265754199E+02  0.41265754199E+02  0.00000000000E+00 0. -1.
          2   -1    0    0  502    0 -0.00000000000E+00 -0.00000000000E+00 -0.87138345917E+03  0.87138345917E+03  0.00000000000E+00 0. -1.
         23    2    1    2    0    0  0.46294575750E+02  0.33716397787E+01 -0.13338761967E+03  0.16871822059E+03  0.92298565419E+02 0.  0.
         23    2    1    2    0    0  0.84382082223E+02 -0.15880415285E+01 -0.27580613768E+03  0.30318555623E+03  0.93432319073E+02 0.  0.
        -11    1    3    3    0    0 -0.30593283532E+01 -0.37913471147E+02 -0.38934151015E+02  0.54430312324E+02  0.00000000000E+00 0.  1.
         11    1    3    3    0    0  0.49353904103E+02  0.41285110926E+02 -0.94453468655E+02  0.11428790826E+03  0.00000000000E+00 0. -1.
        -13    1    4    4    0    0  0.10238781318E+03 -0.12430775874E+02 -0.24568383513E+03  0.26645512816E+03  0.00000000000E+00 0. -1.
         13    1    4    4    0    0 -0.18005730958E+02  0.10842734345E+02 -0.30122302544E+02  0.36730428067E+02  0.00000000000E+00 0.  1.
          2    1    1    2  501    0 -0.13067665797E+03 -0.17835982501E+01 -0.42092394762E+03  0.44074543656E+03  0.00000000000E+00 0. -1.
<scales pt_clust_5="13000.00000" pt_clust_6="13000.00000" pt_clust_7="13000.00000" pt_clust_8="13000.00000" pt_clust_9="13000.00000"></scales>
<clustering>
<clus scale="   92.299">  5  6 -1 -1</clus>
<clus scale="   93.432">  7  8 -1 -1</clus>
<clus scale="  103.313">  2  5  1 -1</clus>
<clus scale="  102.988">  7  9 -1 -1</clus>
<clus scale="  260.769">  1  5  2 -1</clus>
</clustering>
</event>
<event>
 9    1  0.3312826E-006  0.1909170E+03  0.7546771E-02  0.1186507E+00
         21   -1    0    0  501  502  0.00000000000E+00  0.00000000000E+00  0.68283138164E+02  0.68283138164E+02  0.00000000000E+00 0. -1.
          1   -1    0    0  502    0 -0.00000000000E+00 -0.00000000000E+00 -0.42343740140E+03  0.42343740140E+03  0.00000000000E+00 0. -1.
         23    2    1    2    0    0 -0.35878062364E+02 -0.52304605794E+01 -0.12744759691E+02  0.99682845208E+02  0.91976342895E+02 0.  0.
         23    2    1    2    0    0  0.69232441656E+02  0.33375378023E+02 -0.32468663613E+03  0.34493407427E+03  0.87470321107E+02 0.  0.
        -11    1    3    3    0    0 -0.61187496023E+01 -0.46595370232E+02  0.62876778882E+00  0.46999606091E+02  0.00000000000E+00 0.  1.
         11    1    3    3    0    0 -0.29759312761E+02  0.41364909653E+02 -0.13373527480E+02  0.52683239117E+02  0.00000000000E+00 0. -1.
        -13    1    4    4    0    0 -0.13610212981E+02  0.29425712767E+02 -0.11369820916E+03  0.11823025516E+03  0.00000000000E+00 0.  1.
         13    1    4    4    0    0  0.82842654637E+02  0.39496652560E+01 -0.21098842697E+03  0.22670381911E+03  0.00000000000E+00 0. -1.
          1    1    1    2  501    0 -0.33354379292E+02 -0.28144917444E+02 -0.17722867415E+02  0.47103620087E+02  0.00000000000E+00 0. -1.
<scales pt_clust_5="13000.00000" pt_clust_6="13000.00000" pt_clust_7="13000.00000" pt_clust_8="13000.00000" pt_clust_9="13000.00000"></scales>
<clustering>
<clus scale="   87.470">  7  8 -1 -1</clus>
<clus scale="   43.642">  7  9 -1 -1</clus>
<clus scale="   91.976">  5  6 -1 -1</clus>
<clus scale="   98.865">  2  5  1 -1</clus>
<clus scale="  190.917">  1  5  2 -1</clus>
</clustering>
</event>
<event>
 9    1  0.3312826E-006  0.2198924E+03  0.7546771E-02  0.1156963E+00
          2   -1    0    0  502    0 -0.00000000000E+00  0.00000000000E+00  0.19231681759E+03  0.19231681759E+03  0.00000000000E+00 0. -1.
         21   -1    0    0  501  502  0.00000000000E+00 -0.00000000000E+00 -0.24284031971E+03  0.24284031971E+03  0.00000000000E+00 0. -1.
         23    2    1    2    0    0  0.87219298198E+02  0.19127870127E+02  0.10589275404E+03  0.16530771551E+03  0.90223522741E+02 0.  0.
         23    2    1    2    0    0  0.28199404766E+02 -0.36435112319E+02 -0.78077476819E+02  0.12928633285E+03  0.92174506430E+02 0.  0.
        -11    1    4    4    0    0  0.41346654447E+02  0.89038765478E+01 -0.69424371832E+02  0.81293100912E+02  0.00000000000E+00 0. -1.
         11    1    4    4    0    0 -0.13147249681E+02 -0.45338988867E+02 -0.86531049861E+01  0.47993231935E+02  0.00000000000E+00 0.  1.
        -13    1    3    3    0    0  0.90238588513E+02 -0.10960241060E+02  0.55401964806E+02  0.10645425048E+03  0.00000000000E+00 0. -1.
         13    1    3    3    0    0 -0.30192903151E+01  0.30088111186E+02  0.50490789232E+02  0.58853465030E+02  0.00000000000E+00 0.  1.
          2    1    1    2  501    0 -0.11541870296E+03  0.17307242192E+02 -0.78338779330E+02  0.14056308894E+03  0.00000000000E+00 0. -1.
<scales pt_clust_5="13000.00000" pt_clust_6="13000.00000" pt_clust_7="13000.00000" pt_clust_8="13000.00000" pt_clust_9="13000.00000"></scales>
<clustering>
<clus scale="   90.224">  7  8 -1 -1</clus>
<clus scale="   92.175">  5  6 -1 -1</clus>
<clus scale="  116.709">  5  9 -1 -1</clus>
<clus scale="  126.938">  1  7  2 -1</clus>
<clus scale="  219.892">  2  5  1 -1</clus>
</clustering>
</event>
<event>
 9    1  0.3312826E-006  0.1913070E+03  0.7546771E-02  0.1173078E+00
          1   -1    0    0  502    0 -0.00000000000E+00  0.00000000000E+00  0.26289096764E+03  0.26289096764E+03  0.00000000000E+00 0. -1.
         21   -1    0    0  501  502  0.00000000000E+00 -0.00000000000E+00 -0.11267761620E+03  0.11267761620E+03  0.00000000000E+00 0. -1.
         23    2    1    2    0    0 -0.89615139631E+02 -0.37692944225E+02  0.12528189205E+03  0.18264389471E+03  0.90617925955E+02 0.  0.
         23    2    1    2    0    0  0.34712195249E+02 -0.22548890259E+02  0.44159995353E+02  0.10918014590E+03  0.90866991356E+02 0.  0.
        -13    1    4    4    0    0 -0.87495759742E+01  0.27265235284E+02  0.30192908918E+02  0.41612016098E+02  0.00000000000E+00 0.  1.
         13    1    4    4    0    0  0.43461771224E+02 -0.49814125543E+02  0.13967086436E+02  0.67568129802E+02  0.00000000000E+00 0. -1.
        -13    1    3    3    0    0 -0.46088258721E+02  0.55380129398E+01  0.38300491944E+01  0.46577531666E+02  0.00000000000E+00 0.  1.
         13    1    3    3    0    0 -0.43526880909E+02 -0.43230957165E+02  0.12145184286E+03  0.13606636305E+03  0.00000000000E+00 0. -1.
          1    1    1    2  501    0  0.54902944381E+02  0.60241834484E+02 -0.19228535964E+02  0.83744543220E+02  0.00000000000E+00 0. -1.
<scales pt_clust_5="13000.00000" pt_clust_6="13000.00000" pt_clust_7="13000.00000" pt_clust_8="13000.00000" pt_clust_9="13000.00000"></scales>
<clustering>
<clus scale="   90.618">  7  8 -1 -1</clus>
<clus scale="   90.867">  5  6 -1 -1</clus>
<clus scale="   81.507">  5  9 -1 -1</clus>
<clus scale="  132.903">  1  7  2 -1</clus>
<clus scale="  191.307">  2  5  1 -1</clus>
</clustering>
</event>
<event>
 9    1  0.3312826E-006  0.2237148E+03  0.7546771E-02  0.1143967E+00
          2   -1    0    0  502    0 -0.00000000000E+00  0.00000000000E+00  0.30901831637E+03  0.30901831637E+03  0.00000000000E+00 0. -1.
         21   -1    0    0  501  502  0.00000000000E+00 -0.00000000000E+00 -0.12471537477E+03  0.12471537477E+03  0.00000000000E+00 0. -1.
         23    2    1    2    0    0 -0.13367991411E+03 -0.29061236298E+02  0.44398681007E+02  0.16987482731E+03  0.90395459990E+02 0.  0.
         23    2    1    2    0    0  0.18640509697E+02  0.19954837146E+01  0.10644503695E+03  0.14103321839E+03  0.90600067554E+02 0.  0.
        -11    1    4    4    0    0  0.55450390647E+02  0.44373846438E+01  0.63702198543E+02  0.84571900207E+02  0.00000000000E+00 0. -1.
         11    1    4    4    0    0 -0.36809880950E+02 -0.24419009292E+01  0.42742838409E+02  0.56461318184E+02  0.00000000000E+00 0.  1.
        -11    1    3    3    0    0 -0.30340778250E+02  0.24403890102E+02  0.36314835820E+02  0.53243590953E+02  0.00000000000E+00 0.  1.
         11    1    3    3    0    0 -0.10333913586E+03 -0.53465126400E+02  0.80838451874E+01  0.11663123636E+03  0.00000000000E+00 0. -1.
          2    1    1    2  501    0  0.11503940441E+03  0.27065752583E+02  0.33459223644E+02  0.12282564544E+03  0.00000000000E+00 0. -1.
<scales pt_clust_5="13000.00000" pt_clust_6="13000.00000" pt_clust_7="13000.00000" pt_clust_8="13000.00000" pt_clust_9="13000.00000"></scales>
<clustering>
<clus scale="   90.395">  7  8 -1 -1</clus>
<clus scale="   90.600">  5  6 -1 -1</clus>
<clus scale="  118.181">  5  9 -1 -1</clus>
<clus scale="  163.970">  1  7  2 -1</clus>
<clus scale="  223.715">  2  5  1 -1</clus>
</clustering>
</event>
<event>
 9    1  0.3312826E-006  0.1909526E+03  0.7546771E-02  0.1192248E+00
          2   -1    0    0  502    0 -0.00000000000E+00  0.00000000000E+00  0.23096902506E+03  0.23096902506E+03  0.00000000000E+00 0. -1.
         21   -1    0    0  501  502  0.00000000000E+00 -0.00000000000E+00 -0.99464132778E+02  0.99464132778E+02  0.00000000000E+00 0. -1.
         23    2    1    2    0    0 -0.97706472772E+00  0.97582218153E+01  0.10698631224E+03  0.13791283630E+03  0.86473706188E+02 0.  0.
         23    2    1    2    0    0  0.48688895999E+02  0.46892920633E+02  0.27348952217E+02  0.11840027169E+03  0.93279711346E+02 0.  0.
        -11    1    3    3    0    0 -0.21293633353E+02 -0.32741264021E+02  0.58254578633E+02  0.70135619501E+02  0.00000000000E+00 0.  1.
         11    1    3    3    0    0  0.20316568625E+02  0.42499485836E+02  0.48731733604E+02  0.67777216799E+02  0.00000000000E+00 0. -1.
        -13    1    4    4    0    0  0.66845944258E+02  0.28479969982E+02 -0.96100079973E+01  0.73292845542E+02  0.00000000000E+00 0. -1.
         13    1    4    4    0    0 -0.18157048259E+02  0.18412950651E+02  0.36958960215E+02  0.45107426144E+02  0.00000000000E+00 0.  1.
          2    1    1    2  501    0 -0.47711831271E+02 -0.56651142448E+02 -0.28303721683E+01  0.74120049855E+02  0.00000000000E+00 0. -1.
<scales pt_clust_5="13000.00000" pt_clust_6="13000.00000" pt_clust_7="13000.00000" pt_clust_8="13000.00000" pt_clust_9="13000.00000"></scales>
<clustering>
<clus scale="   86.474">  5  6 -1 -1</clus>
<clus scale="   87.028">  1  5  2 -1</clus>
<clus scale="   93.280">  7  8 -1 -1</clus>
<clus scale="   71.858">  7  9 -1 -1</clus>
<clus scale="  190.953">  2  5  1 -1</clus>
</clustering>
</event>
<event>
 9    1  0.3312826E-006  0.2945091E+03  0.7546771E-02  0.1090044E+00
          2   -1    0    0  502    0 -0.00000000000E+00  0.00000000000E+00  0.60429125201E+03  0.60429125201E+03  0.00000000000E+00 0. -1.
         21   -1    0    0  501  502  0.00000000000E+00 -0.00000000000E+00 -0.14273796390E+03  0.14273796390E+03  0.00000000000E+00 0.  1.
         23    2    1    2    0    0 -0.18333834699E+03  0.18404272806E+03  0.30519589184E+03  0.41358766734E+03  0.10210558727E+03 0.  0.
         23    2    1    2    0    0  0.16875544934E+03 -0.11399123110E+03  0.12344642145E+03  0.25468238787E+03  0.90286750266E+02 0.  0.
        -11    1    3    3    0    0 -0.47332460617E+02  0.94016928158E+02  0.66558661833E+02  0.12453754483E+03  0.00000000000E+00 0.  1.
         11    1    3    3    0    0 -0.13600588637E+03  0.90025799904E+02  0.23863723001E+03  0.28905012251E+03  0.00000000000E+00 0. -1.
        -13    1    4    4    0    0  0.12155367320E+03 -0.97153370816E+02  0.45694733201E+02  0.16217916504E+03  0.00000000000E+00 0.  1.
         13    1    4    4    0    0  0.47201776140E+02 -0.16837860286E+02  0.77751688247E+02  0.92503222836E+02  0.00000000000E+00 0. -1.
          2    1    1    2  501    0  0.14582897650E+02 -0.70051496960E+02  0.32910974817E+02  0.78759160697E+02  0.00000000000E+00 0. -1.
<scales pt_clust_5="13000.00000" pt_clust_6="13000.00000" pt_clust_7="13000.00000" pt_clust_8="13000.00000" pt_clust_9="13000.00000"></scales>
<clustering>
<clus scale="   90.287">  7  8 -1 -1</clus>
<clus scale="   71.553">  7  9 -1 -1</clus>
<clus scale="  102.106">  5  6 -1 -1</clus>
<clus scale="  279.124">  1  5  2 -1</clus>
<clus scale="  294.509">  2  5  1 -1</clus>
</clustering>
</event>
<event>
 9    1  0.3312826E-006  0.5181918E+03  0.7546771E-02  0.1024077E+00
         -3   -1    0    0    0  501 -0.00000000000E+00  0.00000000000E+00  0.89201843030E+03  0.89201843030E+03  0.00000000000E+00 0.  1.
         21   -1    0    0  501  502  0.00000000000E+00 -0.00000000000E+00 -0.24174983610E+03  0.24174983610E+03  0.00000000000E+00 0.  1.
         23    2    1    2    0    0  0.30363176323E+03 -0.87913416421E+02  0.49250932837E+03  0.59209422797E+03  0.89939534369E+02 0.  0.
         23    2    1    2    0    0  0.22962931525E+02 -0.44346115355E+02  0.15822276952E+03  0.18931499821E+03  0.91169345620E+02 0.  0.
        -13    1    4    4    0    0  0.21185566666E+02  0.24285588100E+02  0.30826062671E+02  0.44596683331E+02  0.00000000000E+00 0. -1.
         13    1    4    4    0    0  0.17773648587E+01 -0.68631703455E+02  0.12739670685E+03  0.14471831488E+03  0.00000000000E+00 0.  1.
        -13    1    3    3    0    0  0.11210875753E+03 -0.78548418967E+02  0.20736330493E+03  0.24847085919E+03  0.00000000000E+00 0.  1.
         13    1    3    3    0    0  0.19152300570E+03 -0.93649974542E+01  0.28514602344E+03  0.34362336878E+03  0.00000000000E+00 0. -1.
         -3    1    1    2    0  502 -0.32659469476E+03  0.13225953178E+03 -0.46350368871E+00  0.35235904022E+03  0.00000000000E+00 0.  1.
<scales pt_clust_5="13000.00000" pt_clust_6="13000.00000" pt_clust_7="13000.00000" pt_clust_8="13000.00000" pt_clust_9="13000.00000"></scales>
<clustering>
<clus scale="   89.940">  7  8 -1 -1</clus>
<clus scale="   91.169">  5  6 -1 -1</clus>
<clus scale="  328.649">  1  7  2 -1</clus>
<clus scale="  194.851">  5  9 -1 -1</clus>
<clus scale="  518.192">  2  5  1 -1</clus>
</clustering>
</event>
<event>
 9    1  0.3312826E-006  0.3818733E+03  0.7546771E-02  0.1062500E+00
          2   -1    0    0  502    0 -0.00000000000E+00  0.00000000000E+00  0.77357164277E+03  0.77357164277E+03  0.00000000000E+00 0. -1.
         21   -1    0    0  501  502  0.00000000000E+00 -0.00000000000E+00 -0.17117416396E+03  0.17117416396E+03  0.00000000000E+00 0. -1.
         23    2    1    2    0    0 -0.70748349123E+02  0.24472931613E+03  0.46695514336E+03  0.53956458018E+03  0.90471339103E+02 0.  0.
         23    2    1    2    0    0  0.77999171389E+01 -0.81605738870E+02  0.18633435148E+03  0.22307739945E+03  0.91228834704E+02 0.  0.
        -11    1    4    4    0    0  0.26167581445E+02  0.36604411157E+00  0.96924651236E+02  0.10039553936E+03  0.00000000000E+00 0. -1.
         11    1    4    4    0    0 -0.18367664306E+02 -0.81971782982E+02  0.89409700245E+02  0.12268186009E+03  0.00000000000E+00 0.  1.
        -11    1    3    3    0    0  0.27890008423E+01  0.52079611434E+02  0.17157795575E+03  0.17932947151E+03  0.00000000000E+00 0.  1.
         11    1    3    3    0    0 -0.73537349965E+02  0.19264970470E+03  0.29537718761E+03  0.36023510867E+03  0.00000000000E+00 0. -1.
          2    1    1    2  501    0  0.62948431984E+02 -0.16312357726E+03 -0.50892016033E+02  0.18210382710E+03  0.00000000000E+00 0. -1.
<scales pt_clust_5="13000.00000" pt_clust_6="13000.00000" pt_clust_7="13000.00000" pt_clust_8="13000.00000" pt_clust_9="13000.00000"></scales>
<clustering>
<clus scale="   90.471">  7  8 -1 -1</clus>
<clus scale="   91.229">  5  6 -1 -1</clus>
<clus scale="  174.848">  5  9 -1 -1</clus>
<clus scale="  270.338">  1  7  2 -1</clus>
<clus scale="  381.873">  2  5  1 -1</clus>
</clustering>
</event>
<event>
 9    1  0.3312826E-006  0.5730672E+03  0.7546771E-02  0.1035019E+00
         21   -1    0    0  501  502  0.00000000000E+00  0.00000000000E+00  0.19813577636E+03  0.19813577636E+03  0.00000000000E+00 0.  1.
         -1   -1    0    0    0  501 -0.00000000000E+00 -0.00000000000E+00 -0.78048095483E+03  0.78048095483E+03  0.00000000000E+00 0.  1.
         23    2    1    2    0    0 -0.15110710262E+03  0.14548139928E+02 -0.28050298088E+03  0.33091714773E+03  0.88199952039E+02 0.  0.
         23    2    1    2    0    0  0.13729829755E+03  0.11020392841E+03 -0.42667941205E+03  0.47067390237E+03  0.92102515514E+02 0.  0.
        -13    1    4    4    0    0  0.71291695414E+02  0.47509996809E+02 -0.31578092885E+03  0.32719611956E+03  0.00000000000E+00 0.  1.
         13    1    4    4    0    0  0.66006602139E+02  0.62693931597E+02 -0.11089848320E+03  0.14347778281E+03  0.00000000000E+00 0. -1.
        -13    1    3    3    0    0 -0.76303676932E+02  0.51481074856E+02 -0.15264721992E+03  0.17825186095E+03  0.00000000000E+00 0.  1.
         13    1    3    3    0    0 -0.74803425685E+02 -0.36932934928E+02 -0.12785576097E+03  0.15266528678E+03  0.00000000000E+00 0. -1.
         -1    1    1    2    0  502  0.13808805065E+02 -0.12475206833E+03  0.12483721446E+03  0.17702568109E+03  0.00000000000E+00 0.  1.
<scales pt_clust_5="13000.00000" pt_clust_6="13000.00000" pt_clust_7="13000.00000" pt_clust_8="13000.00000" pt_clust_9="13000.00000"></scales>
<clustering>
<clus scale="   88.200">  7  8 -1 -1</clus>
<clus scale="   92.103">  5  6 -1 -1</clus>
<clus scale="  125.514">  5  9 -1 -1</clus>
<clus scale="  175.568">  2  7  1 -1</clus>
<clus scale="  573.067">  1  5  2 -1</clus>
</clustering>
</event>
<event>
 9    1  0.3312826E-006  0.1484307E+03  0.7546771E-02  0.1222515E+00
         -3   -1    0    0    0  501 -0.00000000000E+00  0.00000000000E+00  0.16385881868E+03  0.16385881868E+03  0.00000000000E+00 0.  1.
         21   -1    0    0  501  502  0.00000000000E+00 -0.00000000000E+00 -0.12077411070E+03  0.12077411070E+03  0.00000000000E+00 0. -1.
         23    2    1    2    0    0  0.12867350862E+02 -0.19725573716E+02  0.86674239392E+02  0.12993410051E+03  0.93892383745E+02 0.  0.
         23    2    1    2    0    0  0.34311560606E+02  0.11238008101E+02 -0.14280346785E+02  0.98512382454E+02  0.90538307777E+02 0.  0.
        -11    1    3    3    0    0  0.24509753034E+02  0.33729771171E+02  0.31701944682E+02  0.52377846020E+02  0.00000000000E+00 0. -1.
         11    1    3    3    0    0 -0.11642402173E+02 -0.53455344887E+02  0.54972294709E+02  0.77556254493E+02  0.00000000000E+00 0.  1.
        -13    1    4    4    0    0  0.61977596276E+02  0.49531814186E+01  0.76630595679E+01  0.62645661688E+02  0.00000000000E+00 0.  1.
         13    1    4    4    0    0 -0.27666035671E+02  0.62848266824E+01 -0.21943406353E+02  0.35866720766E+02  0.00000000000E+00 0. -1.
         -3    1    1    2    0  502 -0.47178911468E+02  0.84875656154E+01 -0.29309184621E+02  0.56186446413E+02  0.00000000000E+00 0.  1.
<scales pt_clust_5="13000.00000" pt_clust_6="13000.00000" pt_clust_7="13000.00000" pt_clust_8="13000.00000" pt_clust_9="13000.00000"></scales>
<clustering>
<clus scale="   90.538">  7  8 -1 -1</clus>
<clus scale="   47.936">  7  9 -1 -1</clus>
<clus scale="   93.892">  5  6 -1 -1</clus>
<clus scale="   96.801">  1  5  2 -1</clus>
<clus scale="  148.431">  2  5  1 -1</clus>
</clustering>
</event>
<event>
 9    1  0.3312826E-006  0.1532281E+03  0.7546771E-02  0.1219293E+00
         21   -1    0    0  501  502  0.00000000000E+00  0.00000000000E+00  0.26361025723E+03  0.26361025723E+03  0.00000000000E+00 0. -1.
         -1   -1    0    0    0  501 -0.00000000000E+00 -0.00000000000E+00 -0.60116312645E+02  0.60116312645E+02  0.00000000000E+00 0.  1.
         23    2    1    2    0    0  0.19650393221E+02 -0.13310806015E+02  0.10758686564E+03  0.14295868035E+03  0.91098491301E+02 0.  0.
         23    2    1    2    0    0  0.11402692920E+02  0.10056477494E+02  0.15329557837E+02  0.94352487424E+02  0.91849019561E+02 0.  0.
        -13    1    3    3    0    0 -0.23784253026E+02 -0.26073062576E+02  0.85684727189E+02  0.92668051439E+02  0.00000000000E+00 0. -1.
         13    1    3    3    0    0  0.43434646248E+02  0.12762256561E+02  0.21902138455E+02  0.50290628909E+02  0.00000000000E+00 0.  1.
        -13    1    4    4    0    0  0.25324439466E+02  0.47127044806E+02  0.88320764803E+01  0.54224451693E+02  0.00000000000E+00 0. -1.
         13    1    4    4    0    0 -0.13921746546E+02 -0.37070567312E+02  0.64974813562E+01  0.40128035732E+02  0.00000000000E+00 0.  1.
         -1    1    1    2    0  502 -0.31053086141E+02  0.32543285206E+01  0.80577521104E+02  0.86415402101E+02  0.00000000000E+00 0.  1.
<scales pt_clust_5="13000.00000" pt_clust_6="13000.00000" pt_clust_7="13000.00000" pt_clust_8="13000.00000" pt_clust_9="13000.00000"></scales>
<clustering>
<clus scale="   91.098">  5  6 -1 -1</clus>
<clus scale="   91.849">  7  8 -1 -1</clus>
<clus scale="   31.223">  7  9 -1 -1</clus>
<clus scale="   94.140">  2  5  1 -1</clus>
<clus scale="  153.228">  1  5  2 -1</clus>
</clustering>
</event>
<event>
 9    1  0.3312826E-006  0.1687106E+03  0.7546771E-02  0.1204097E+00
         21   -1    0    0  501  502  0.00000000000E+00  0.00000000000E+00  0.56248384858E+02  0.56248384858E+02  0.00000000000E+00 0.  1.
          3   -1    0    0  502    0 -0.00000000000E+00 -0.00000000000E+00 -0.32669277794E+03  0.32669277794E+03  0.00000000000E+00 0. -1.
         23    2    1    2    0    0 -0.25394364330E+02  0.79068841285E+01 -0.13541754070E+03  0.16684968147E+03  0.93773734707E+02 0.  0.
         23    2    1    2    0    0  0.67467714407E+02 -0.33229669302E+02 -0.78542071856E+02  0.14124536809E+03  0.90140410173E+02 0.  0.
        -11    1    3    3    0    0  0.21846390998E+02 -0.20210404897E+02 -0.92309727780E+02  0.96988716398E+02  0.00000000000E+00 0.  1.
         11    1    3    3    0    0 -0.47240755328E+02  0.28117289025E+02 -0.43107812925E+02  0.69860965076E+02  0.00000000000E+00 0. -1.
        -13    1    4    4    0    0  0.68930861079E+02 -0.40534599932E+01 -0.86774157205E+02  0.11089476320E+03  0.00000000000E+00 0. -1.
         13    1    4    4    0    0 -0.14631466722E+01 -0.29176209309E+02  0.82320853495E+01  0.30350604888E+02  0.00000000000E+00 0.  1.
          3    1    1    2  501    0 -0.42073350077E+02  0.25322785174E+02 -0.56484780519E+02  0.74846113232E+02  0.00000000000E+00 0. -1.
<scales pt_clust_5="13000.00000" pt_clust_6="13000.00000" pt_clust_7="13000.00000" pt_clust_8="13000.00000" pt_clust_9="13000.00000"></scales>
<clustering>
<clus scale="   90.140">  7  8 -1 -1</clus>
<clus scale="   49.106">  7  9 -1 -1</clus>
<clus scale="   93.774">  5  6 -1 -1</clus>
<clus scale="   97.473">  2  5  1 -1</clus>
<clus scale="  168.711">  1  5  2 -1</clus>
</clustering>
</event>
<event>
 9    1  0.3312826E-006  0.2547625E+03  0.7546771E-02  0.1151719E+00
         21   -1    0    0  501  502  0.00000000000E+00  0.00000000000E+00  0.66577029070E+02  0.66577029070E+02  0.00000000000E+00 0. -1.
         -2   -1    0    0    0  501 -0.00000000000E+00 -0.00000000000E+00 -0.46989595224E+03  0.46989595224E+03  0.00000000000E+00 0.  1.
         23    2    1    2    0    0 -0.20692750097E+02 -0.22689726035E+01 -0.15679472926E+03  0.18196189787E+03  0.89956695200E+02 0.  0.
         23    2    1    2    0    0  0.65785112851E+02  0.98195089166E+02 -0.14940822931E+03  0.21075207816E+03  0.90131364433E+02 0.  0.
        -11    1    3    3    0    0  0.22077506609E+02  0.31010870419E+02 -0.68310009321E+02  0.78200688972E+02  0.00000000000E+00 0. -1.
         11    1    3    3    0    0 -0.42770256707E+02 -0.33279843022E+02 -0.88484719935E+02  0.10376120890E+03  0.00000000000E+00 0.  1.
        -13    1    4    4    0    0  0.43159815497E+02  0.94499471313E+01 -0.12287461746E+02  0.45859054621E+02  0.00000000000E+00 0.  1.
         13    1    4    4    0    0  0.22625297353E+02  0.88745142034E+02 -0.13712076756E+03  0.16489302354E+03  0.00000000000E+00 0. -1.
         -2    1    1    2    0  502 -0.45092362753E+02 -0.95926116562E+02 -0.97115964607E+02  0.14375900528E+03  0.00000000000E+00 0.  1.
<scales pt_clust_5="13000.00000" pt_clust_6="13000.00000" pt_clust_7="13000.00000" pt_clust_8="13000.00000" pt_clust_9="13000.00000"></scales>
<clustering>
<clus scale="   89.957">  5  6 -1 -1</clus>
<clus scale="   90.131">  7  8 -1 -1</clus>
<clus scale="   92.334">  2  5  1 -1</clus>
<clus scale="  110.576">  7  9 -1 -1</clus>
<clus scale="  254.762">  1  5  2 -1</clus>
</clustering>
</event>
<event>
 9    1  0.4200292E-006  0.3767765E+03  0.7546771E-02  0.1078715E+00
         21   -1    0    0  501  502  0.00000000000E+00  0.00000000000E+00  0.23786062537E+03  0.23786062537E+03  0.00000000000E+00 0.  1.
          1   -1    0    0  502    0 -0.00000000000E+00 -0.00000000000E+00 -0.37640641855E+03  0.37640641855E+03  0.00000000000E+00 0. -1.
         23    2    1    2    0    0  0.65026066555E+02 -0.14133838788E+03  0.57725137621E+02  0.18943439093E+03  0.91368855379E+02 0.  0.
         23    2    1    2    0    0 -0.87437291308E+01 -0.11282872274E+02 -0.23932604274E+03  0.25656294918E+03  0.91344601099E+02 0.  0.
        -13    1    4    4    0    0 -0.33690670173E+02  0.23431549689E+02 -0.17187505971E+03  0.17670635226E+03  0.00000000000E+00 0.  1.
         13    1    4    4    0    0  0.24946941043E+02 -0.34714421963E+02 -0.67450983030E+02  0.79856596918E+02  0.00000000000E+00 0. -1.
        -13    1    3    3    0    0  0.18377708921E+02 -0.48603660477E+02 -0.24077934540E+02  0.57269563719E+02  0.00000000000E+00 0. -1.
         13    1    3    3    0    0  0.46648357635E+02 -0.92734727401E+02  0.81803072161E+02  0.13216482721E+03  0.00000000000E+00 0.  1.
          1    1    1    2  501    0 -0.56282337424E+02  0.15262126015E+03  0.43055111940E+02  0.16826970381E+03  0.00000000000E+00 0. -1.
<scales pt_clust_5="13000.00000" pt_clust_6="13000.00000" pt_clust_7="13000.00000" pt_clust_8="13000.00000" pt_clust_9="13000.00000"></scales>
<clustering>
<clus scale="   91.345">  5  6 -1 -1</clus>
<clus scale="   91.369">  7  8 -1 -1</clus>
<clus scale="  162.668">  5  9 -1 -1</clus>
<clus scale="  180.425">  2  7  1 -1</clus>
<clus scale="  376.776">  1  5  2 -1</clus>
</clustering>
</event>
<event>
 9    1  0.3312826E-006  0.8358862E+03  0.7546771E-02  0.1018605E+00
         -1   -1    0    0    0  501 -0.00000000000E+00  0.00000000000E+00  0.41211923776E+03  0.41211923776E+03  0.00000000000E+00 0.  1.
         21   -1    0    0  501  502  0.00000000000E+00 -0.00000000000E+00 -0.53878771114E+03  0.53878771114E+03  0.00000000000E+00 0.  1.
         23    2    1    2    0    0  0.65426043355E+01 -0.21188147370E+02 -0.64610641254E+02  0.11272030697E+03  0.89663757340E+02 0.  0.
         23    2    1    2    0    0  0.17005623361E+03 -0.25548529242E+03  0.23366616781E+03  0.39638575240E+03  0.91268447392E+02 0.  0.
        -11    1    4    4    0    0  0.14503888003E+03 -0.23867721472E+03  0.17268860920E+03  0.32836632790E+03  0.00000000000E+00 0.  1.
         11    1    4    4    0    0  0.25017353580E+02 -0.16808077707E+02  0.60977558602E+02  0.68019424501E+02  0.00000000000E+00 0. -1.
        -13    1    3    3    0    0 -0.27810739046E+02 -0.83306279315E+01 -0.69872922558E+02  0.75664138632E+02  0.00000000000E+00 0.  1.
         13    1    3    3    0    0  0.34353343381E+02 -0.12857519439E+02  0.52622813040E+01  0.37056168341E+02  0.00000000000E+00 0. -1.
         -1    1    1    2    0  502 -0.17659883795E+03  0.27667343980E+03 -0.29572399993E+03  0.44180088953E+03  0.00000000000E+00 0.  1.
<scales pt_clust_5="13000.00000" pt_clust_6="13000.00000" pt_clust_7="13000.00000" pt_clust_8="13000.00000" pt_clust_9="13000.00000"></scales>
<clustering>
<clus scale="   89.664">  7  8 -1 -1</clus>
<clus scale="   91.268">  5  6 -1 -1</clus>
<clus scale="   92.365">  1  7  2 -1</clus>
<clus scale="  324.209">  5  9 -1 -1</clus>
<clus scale="  835.886">  2  5  1 -1</clus>
</clustering>
</event>
<event>
 9    1  0.3312826E-006  0.4080247E+03  0.7546771E-02  0.1089144E+00
         21   -1    0    0  501  502  0.00000000000E+00  0.00000000000E+00  0.14142396946E+03  0.14142396946E+03  0.00000000000E+00 0. -1.
          2   -1    0    0  502    0 -0.00000000000E+00 -0.00000000000E+00 -0.47487205136E+03  0.47487205136E+03  0.00000000000E+00 0. -1.
         23    2    1    2    0    0 -0.16585835420E+02  0.48871026589E+02 -0.44596559773E+02  0.11637666775E+03  0.94293204825E+02 0.  0.
         23    2    1    2    0    0  0.30681480819E+02  0.70121191845E+01 -0.37990163198E+03  0.39216158907E+03  0.92059431218E+02 0.  0.
        -11    1    4    4    0    0  0.52636484469E+02 -0.20172985912E+02 -0.29522130525E+03  0.30055476695E+03  0.00000000000E+00 0.  1.
         11    1    4    4    0    0 -0.21955003649E+02  0.27185105097E+02 -0.84680326726E+02  0.91606822119E+02  0.00000000000E+00 0. -1.
        -13    1    3    3    0    0 -0.44086203015E+02  0.35843965189E+02 -0.59690014454E+02  0.82409228623E+02  0.00000000000E+00 0. -1.
         13    1    3    3    0    0  0.27500367595E+02  0.13027061400E+02  0.15093454681E+02  0.33967439126E+02  0.00000000000E+00 0.  1.
          2    1    1    2  501    0 -0.14095645399E+02 -0.55883145773E+02  0.91050109846E+02  0.10775776401E+03  0.00000000000E+00 0. -1.
<scales pt_clust_5="13000.00000" pt_clust_6="13000.00000" pt_clust_7="13000.00000" pt_clust_8="13000.00000" pt_clust_9="13000.00000"></scales>
<clustering>
<clus scale="   92.059">  5  6 -1 -1</clus>
<clus scale="   57.633">  5  9 -1 -1</clus>
<clus scale="   94.293">  7  8 -1 -1</clus>
<clus scale="  107.493">  2  7  1 -1</clus>
<clus scale="  408.025">  1  5  2 -1</clus>
</clustering>
</event>
<event>
 9    1  0.3312826E-006  0.2497638E+03  0.7546771E-02  0.1148975E+00
          1   -1    0    0  502    0 -0.00000000000E+00  0.00000000000E+00  0.16758044242E+03  0.16758044242E+03  0.00000000000E+00 0. -1.
         21   -1    0    0  501  502  0.00000000000E+00 -0.00000000000E+00 -0.33703927995E+03  0.33703927995E+03  0.00000000000E+00 0. -1.
         23    2    1    2    0    0  0.40144403779E+02  0.31562333510E+02  0.94701713970E+02  0.14107776978E+03  0.91251128457E+02 0.  0.
         23    2    1    2    0    0 -0.20603721462E+02 -0.11084276140E+03 -0.23696842649E+03  0.27748013659E+03  0.90169617683E+02 0.  0.
        -11    1    4    4    0    0  0.55015606622E+01 -0.10808242112E+03 -0.13960433670E+03  0.17663931542E+03  0.00000000000E+00 0. -1.
         11    1    4    4    0    0 -0.26105282124E+02 -0.27603402785E+01 -0.97364089790E+02  0.10084082117E+03  0.00000000000E+00 0.  1.
        -13    1    3    3    0    0  0.56669564452E+02 -0.47666967180E+00  0.23658835422E+02  0.61411784233E+02  0.00000000000E+00 0. -1.
         13    1    3    3    0    0 -0.16525160673E+02  0.32039003182E+02  0.71042878549E+02  0.79665985544E+02  0.00000000000E+00 0.  1.
          1    1    1    2  501    0 -0.19540682317E+02  0.79280427893E+02 -0.27192125013E+02  0.86061816010E+02  0.00000000000E+00 0. -1.
<scales pt_clust_5="13000.00000" pt_clust_6="13000.00000" pt_clust_7="13000.00000" pt_clust_8="13000.00000" pt_clust_9="13000.00000"></scales>
<clustering>
<clus scale="   90.170">  5  6 -1 -1</clus>
<clus scale="   81.653">  5  9 -1 -1</clus>
<clus scale="   91.251">  7  8 -1 -1</clus>
<clus scale="  104.568">  1  7  2 -1</clus>
<clus scale="  249.764">  2  5  1 -1</clus>
</clustering>
</event>
<event>
 9    1  0.3312826E-006  0.3919320E+03  0.7546771E-02  0.1059854E+00
         21   -1    0    0  501  502  0.00000000000E+00  0.00000000000E+00  0.63820103349E+03  0.63820103349E+03  0.00000000000E+00 0. -1.
          2   -1    0    0  502    0 -0.00000000000E+00 -0.00000000000E+00 -0.20440587156E+03  0.20440587156E+03  0.00000000000E+00 0. -1.
         23    2    1    2    0    0 -0.78859183480E+02 -0.24007492966E+03  0.15922817900E+02  0.26969508133E+03  0.92882496151E+02 0.  0.
         23    2    1    2    0    0  0.17824540916E+03  0.16943221105E+03  0.22209450771E+03  0.34226712567E+03  0.85686141999E+02 0.  0.
        -13    1    4    4    0    0  0.40177126483E+02  0.30822027527E+01  0.15297191336E+02  0.43101108211E+02  0.00000000000E+00 0.  1.
         13    1    4    4    0    0  0.13806828268E+03  0.16635000830E+03  0.20679731638E+03  0.29916601746E+03  0.00000000000E+00 0. -1.
        -13    1    3    3    0    0 -0.95669709393E+02 -0.20572649607E+03 -0.32712296910E+01  0.22690699731E+03  0.00000000000E+00 0. -1.
         13    1    3    3    0    0  0.16810525913E+02 -0.34348433585E+02  0.19194047591E+02  0.42788084021E+02  0.00000000000E+00 0.  1.
          2    1    1    2  501    0 -0.99386225681E+02  0.70642718612E+02  0.19577783631E+03  0.23064469805E+03  0.00000000000E+00 0. -1.
<scales pt_clust_5="13000.00000" pt_clust_6="13000.00000" pt_clust_7="13000.00000" pt_clust_8="13000.00000" pt_clust_9="13000.00000"></scales>
<clustering>
<clus scale="   85.686">  5  6 -1 -1</clus>
<clus scale="   92.882">  7  8 -1 -1</clus>
<clus scale="  121.935">  5  9 -1 -1</clus>
<clus scale="  269.225">  2  7  1 -1</clus>
<clus scale="  391.932">  1  5  2 -1</clus>
</clustering>
</event>
<event>
 9    1  0.3312826E-006  0.2484782E+03  0.7546771E-02  0.1133150E+00
         21   -1    0    0  501  502  0.00000000000E+00  0.00000000000E+00  0.25823859727E+03  0.25823859727E+03  0.00000000000E+00 0. -1.
         -3   -1    0    0    0  501 -0.00000000000E+00 -0.00000000000E+00 -0.44002359435E+03  0.44002359435E+03  0.00000000000E+00 0.  1.
         23    2    1    2    0    0 -0.77769716071E+02  0.10385061630E+03 -0.36023414784E+03  0.39234472820E+03  0.85630982892E+02 0.  0.
         23    2    1    2    0    0  0.62044096942E+02 -0.12612482345E+02  0.18121136526E+03  0.21329283381E+03  0.92993168444E+02 0.  0.
        -11    1    4    4    0    0 -0.11488132068E+02 -0.28497264101E+02  0.89773030348E+02  0.94885553261E+02  0.00000000000E+00 0.  1.
         11    1    4    4    0    0  0.73532229010E+02  0.15884781756E+02  0.91438334913E+02  0.11840728055E+03  0.00000000000E+00 0. -1.
        -11    1    3    3    0    0  0.17094264365E+02  0.31101937233E+02 -0.95049361916E+02  0.10145898469E+03  0.00000000000E+00 0. -1.
         11    1    3    3    0    0 -0.94863980436E+02  0.72748679063E+02 -0.26518478593E+03  0.29088574351E+03  0.00000000000E+00 0.  1.
         -3    1    1    2    0  502  0.15725619129E+02 -0.91238133951E+02 -0.27622144986E+01  0.92624629623E+02  0.00000000000E+00 0.  1.
<scales pt_clust_5="13000.00000" pt_clust_6="13000.00000" pt_clust_7="13000.00000" pt_clust_8="13000.00000" pt_clust_9="13000.00000"></scales>
<clustering>
<clus scale="   85.631">  7  8 -1 -1</clus>
<clus scale="   92.993">  5  6 -1 -1</clus>
<clus scale="   92.583">  5  9 -1 -1</clus>
<clus scale="  155.453">  2  7  1 -1</clus>
<clus scale="  248.478">  1  5  2 -1</clus>
</clustering>
</event>
<event>
 9    1  0.3312826E-006  0.1632693E+03  0.7546771E-02  0.1192339E+00
          2   -1    0    0  502    0 -0.00000000000E+00  0.00000000000E+00  0.81772366719E+02  0.81772366719E+02  0.00000000000E+00 0. -1.
         21   -1    0    0  501  502  0.00000000000E+00 -0.00000000000E+00 -0.31153684935E+03  0.31153684935E+03  0.00000000000E+00 0. -1.
         23    2    1    2    0    0  0.86538220174E+02  0.56474128409E+02 -0.43456869601E+02  0.14558477400E+03  0.92888299452E+02 0.  0.
         23    2    1    2    0    0 -0.35578328420E+02 -0.43983891370E+02 -0.10715822012E+03  0.15276369762E+03  0.93023991620E+02 0.  0.
        -11    1    3    3    0    0  0.34059002497E+02  0.61892118615E+02 -0.57389858554E+02  0.91017832663E+02  0.00000000000E+00 0.  1.
         11    1    3    3    0    0  0.52479217678E+02 -0.54179902062E+01  0.13932988953E+02  0.54566941339E+02  0.00000000000E+00 0. -1.
        -13    1    4    4    0    0 -0.60635981493E+02 -0.68731004269E+01 -0.79165408330E+02  0.99955608333E+02  0.00000000000E+00 0.  1.
         13    1    4    4    0    0  0.25057653073E+02 -0.37110790943E+02 -0.27992811793E+02  0.52808089286E+02  0.00000000000E+00 0. -1.
          2    1    1    2  501    0 -0.50959891754E+02 -0.12490237039E+02 -0.79149392912E+02  0.94960744454E+02  0.00000000000E+00 0. -1.
<scales pt_clust_5="13000.00000" pt_clust_6="13000.00000" pt_clust_7="13000.00000" pt_clust_8="13000.00000" pt_clust_9="13000.00000"></scales>
<clustering>
<clus scale="   92.888">  5  6 -1 -1</clus>
<clus scale="   93.024">  7  8 -1 -1</clus>
<clus scale="   52.468">  7  9 -1 -1</clus>
<clus scale="  138.948">  1  5  2 -1</clus>
<clus scale="  163.269">  2  5  1 -1</clus>
</clustering>
</event>
<event>
 9    1  0.3312826E-006  0.2915127E+03  0.7546771E-02  0.1128367E+00
          1   -1    0    0  502    0 -0.00000000000E+00  0.00000000000E+00  0.23002393469E+03  0.23002393469E+03  0.00000000000E+00 0. -1.
         21   -1    0    0  501  502  0.00000000000E+00 -0.00000000000E+00 -0.17642901140E+03  0.17642901140E+03  0.00000000000E+00 0. -1.
         23    2    1    2    0    0  0.38910873533E+02 -0.37079258460E+02  0.37252195052E+02  0.11448250648E+03  0.93965902146E+02 0.  0.
         23    2    1    2    0    0  0.19541095210E+02 -0.16334744083E+02  0.12472394221E+03  0.15774609063E+03  0.93161628815E+02 0.  0.
        -11    1    3    3    0    0 -0.14390129938E+02 -0.35088479521E+02 -0.14081750268E+02  0.40454578546E+02  0.00000000000E+00 0.  1.
         11    1    3    3    0    0  0.53301003470E+02 -0.19907789390E+01  0.51333945320E+02  0.74027927932E+02  0.00000000000E+00 0. -1.
        -13    1    4    4    0    0 -0.16949320787E+02 -0.22439277025E+02  0.49564422070E+00  0.28125545181E+02  0.00000000000E+00 0.  1.
         13    1    4    4    0    0  0.36490415996E+02  0.61045329423E+01  0.12422829799E+03  0.12962054545E+03  0.00000000000E+00 0. -1.
          1    1    1    2  501    0 -0.58451968742E+02  0.53414002543E+02 -0.10838121397E+03  0.13422434898E+03  0.00000000000E+00 0. -1.
<scales pt_clust_5="13000.00000" pt_clust_6="13000.00000" pt_clust_7="13000.00000" pt_clust_8="13000.00000" pt_clust_9="13000.00000"></scales>
<clustering>
<clus scale="   93.162">  7  8 -1 -1</clus>
<clus scale="   79.181">  7  9 -1 -1</clus>
<clus scale="   93.966">  5  6 -1 -1</clus>
<clus scale="  108.252">  1  5  2 -1</clus>
<clus scale="  291.513">  2  5  1 -1</clus>
</clustering>
</event>
<event>
 9    1  0.3312826E-006  0.1997425E+03  0.7546771E-02  0.1169054E+00
          2   -1    0    0  502    0 -0.00000000000E+00  0.00000000000E+00  0.53891768636E+03  0.53891768636E+03  0.00000000000E+00 0. -1.
         21   -1    0    0  501  502  0.00000000000E+00 -0.00000000000E+00 -0.54516743205E+02  0.54516743205E+02  0.00000000000E+00 0.  1.
         23    2    1    2    0    0 -0.49604055993E+02  0.71590274768E+02  0.27881550864E+03  0.30679452250E+03  0.93803312120E+02 0.  0.
         23    2    1    2    0    0  0.99151592188E+01  0.10189681198E+02  0.92681157827E+02  0.14168975902E+03  0.10622641295E+03 0.  0.
        -11    1    3    3    0    0  0.19886611107E+02  0.14830153575E+02  0.13518013525E+03  0.13743754844E+03  0.00000000000E+00 0.  1.
         11    1    3    3    0    0 -0.69490667100E+02  0.56760121193E+02  0.14363537339E+03  0.16935697406E+03  0.00000000000E+00 0. -1.
        -13    1    4    4    0    0  0.25739412643E+02  0.29893055576E+02  0.10601528057E+03  0.11311654100E+03  0.00000000000E+00 0. -1.
         13    1    4    4    0    0 -0.15824253425E+02 -0.19703374378E+02 -0.13334122741E+02  0.28573218012E+02  0.00000000000E+00 0.  1.
          2    1    1    2  501    0  0.39688896775E+02 -0.81779955966E+02  0.11290427669E+03  0.14495014805E+03  0.00000000000E+00 0. -1.
<scales pt_clust_5="13000.00000" pt_clust_6="13000.00000" pt_clust_7="13000.00000" pt_clust_8="13000.00000" pt_clust_9="13000.00000"></scales>
<clustering>
<clus scale="   93.803">  5  6 -1 -1</clus>
<clus scale="  106.226">  7  8 -1 -1</clus>
<clus scale="   90.902">  7  9 -1 -1</clus>
<clus scale="  128.003">  1  5  2 -1</clus>
<clus scale="  199.742">  2  5  1 -1</clus>
</clustering>
</event>
<event>
 9    1  0.3312826E-006  0.1571009E+03  0.7546771E-02  0.1204363E+00
          3   -1    0    0  502    0 -0.00000000000E+00  0.00000000000E+00  0.22835257513E+03  0.22835257513E+03  0.00000000000E+00 0. -1.
         21   -1    0    0  501  502  0.00000000000E+00 -0.00000000000E+00 -0.25552504251E+03  0.25552504251E+03  0.00000000000E+00 0. -1.
         23    2    1    2    0    0  0.68932217929E+01 -0.78673584179E+02  0.18460217136E+03  0.22019376357E+03  0.90389614957E+02 0.  0.
         23    2    1    2    0    0  0.23117140628E+01  0.30785372927E+02 -0.81137150177E+02  0.12424151818E+03  0.88879888006E+02 0.  0.
        -13    1    3    3    0    0 -0.22701309128E+02 -0.11557504813E+02  0.11928890170E+03  0.12197855313E+03  0.00000000000E+00 0.  1.
         13    1    3    3    0    0  0.29594530921E+02 -0.67116079366E+02  0.65313269657E+02  0.98215210447E+02  0.00000000000E+00 0. -1.
        -13    1    4    4    0    0  0.44821046638E+02  0.24486275242E+02 -0.45905557904E+02  0.68671858454E+02  0.00000000000E+00 0.  1.
         13    1    4    4    0    0 -0.42509332576E+02  0.62990976848E+01 -0.35231592273E+02  0.55569659723E+02  0.00000000000E+00 0. -1.
          3    1    1    2  501    0 -0.92049358557E+01  0.47888211252E+02 -0.13063748856E+03  0.13944233589E+03  0.00000000000E+00 0. -1.
<scales pt_clust_5="13000.00000" pt_clust_6="13000.00000" pt_clust_7="13000.00000" pt_clust_8="13000.00000" pt_clust_9="13000.00000"></scales>
<clustering>
<clus scale="   88.880">  7  8 -1 -1</clus>
<clus scale="   48.765">  7  9 -1 -1</clus>
<clus scale="   90.390">  5  6 -1 -1</clus>
<clus scale="  120.031">  1  5  2 -1</clus>
<clus scale="  157.101">  2  5  1 -1</clus>
</clustering>
</event>
<event>
 9    1  0.3312826E-006  0.1863531E+03  0.7546771E-02  0.1190308E+00
          1   -1    0    0  502    0 -0.00000000000E+00  0.00000000000E+00  0.22249753037E+03  0.22249753037E+03  0.00000000000E+00 0. -1.
         21   -1    0    0  501  502  0.00000000000E+00 -0.00000000000E+00 -0.95268535151E+02  0.95268535151E+02  0.00000000000E+00 0. -1.
         23    2    1    2    0    0  0.67318795938E+01  0.41001984509E+02  0.77960083441E+02  0.12501003358E+03  0.88449154593E+02 0.  0.
         23    2    1    2    0    0 -0.69681579298E+02 -0.28618351699E+02  0.53362479687E+02  0.12846935873E+03  0.89343658688E+02 0.  0.
        -11    1    3    3    0    0 -0.24166235959E+02 -0.16179293496E+02  0.94603684233E+01  0.30582267234E+02  0.00000000000E+00 0.  1.
         11    1    3    3    0    0  0.30898115553E+02  0.57181278005E+02  0.68499715018E+02  0.94427766343E+02  0.00000000000E+00 0. -1.
        -13    1    4    4    0    0  0.43412141128E+01 -0.41223158072E+02  0.14452265364E+02  0.43898324291E+02  0.00000000000E+00 0.  1.
         13    1    4    4    0    0 -0.74022793411E+02  0.12604806373E+02  0.38910214323E+02  0.84571034443E+02  0.00000000000E+00 0. -1.
          1    1    1    2  501    0  0.62949699704E+02 -0.12383632810E+02 -0.40935679067E+01  0.64286673212E+02  0.00000000000E+00 0. -1.
<scales pt_clust_5="13000.00000" pt_clust_6="13000.00000" pt_clust_7="13000.00000" pt_clust_8="13000.00000" pt_clust_9="13000.00000"></scales>
<clustering>
<clus scale="   88.449">  5  6 -1 -1</clus>
<clus scale="   89.344">  7  8 -1 -1</clus>
<clus scale="   64.156">  7  9 -1 -1</clus>
<clus scale="   97.723">  1  5  2 -1</clus>
<clus scale="  186.353">  2  5  1 -1</clus>
</clustering>
</event>
<event>
 9    1  0.3312826E-006  0.1272672E+03  0.7546771E-02  0.1245600E+00
         21   -1    0    0  501  502  0.00000000000E+00  0.00000000000E+00  0.35898544636E+02  0.35898544636E+02  0.00000000000E+00 0. -1.
         -1   -1    0    0    0  501 -0.00000000000E+00 -0.00000000000E+00 -0.39647375729E+03  0.39647375729E+03  0.00000000000E+00 0.  1.
         23    2    1    2    0    0  0.24374714141E+02  0.21281099570E+02 -0.81540474498E+02  0.12568463541E+03  0.90004259396E+02 0.  0.
         23    2    1    2    0    0 -0.82084885496E+01  0.87779904517E+00 -0.24989945029E+03  0.26667231150E+03  0.92715892110E+02 0.  0.
        -11    1    3    3    0    0  0.43027582580E+02  0.45170403196E+02 -0.39427263291E+02  0.73798694285E+02  0.00000000000E+00 0. -1.
         11    1    3    3    0    0 -0.18652868438E+02 -0.23889303626E+02 -0.42113211207E+02  0.51885941129E+02  0.00000000000E+00 0.  1.
        -13    1    4    4    0    0  0.28270597259E+02 -0.32849140096E+02 -0.12130161826E+03  0.12881139416E+03  0.00000000000E+00 0.  1.
         13    1    4    4    0    0 -0.36479085809E+02  0.33726939141E+02 -0.12859783203E+03  0.13786091734E+03  0.00000000000E+00 0. -1.
         -1    1    1    2    0  502 -0.16166225592E+02 -0.22158898615E+02 -0.29135287861E+02  0.40015355009E+02  0.00000000000E+00 0.  1.
<scales pt_clust_5="13000.00000" pt_clust_6="13000.00000" pt_clust_7="13000.00000" pt_clust_8="13000.00000" pt_clust_9="13000.00000"></scales>
<clustering>
<clus scale="   90.004">  5  6 -1 -1</clus>
<clus scale="   92.716">  7  8 -1 -1</clus>
<clus scale="   27.429">  7  9 -1 -1</clus>
<clus scale="   95.644">  2  5  1 -1</clus>
<clus scale="  127.267">  1  5  2 -1</clus>
</clustering>
</event>
<event>
 9    1  0.3312826E-006  0.1926513E+03  0.7546771E-02  0.1174074E+00
         21   -1    0    0  501  502  0.00000000000E+00  0.00000000000E+00  0.99494585712E+02  0.99494585712E+02  0.00000000000E+00 0.  1.
          4   -1    0    0  502    0 -0.00000000000E+00 -0.00000000000E+00 -0.25751559366E+03  0.25751559366E+03  0.00000000000E+00 0. -1.
         23    2    1    2    0    0  0.44108038244E+02  0.76456562917E+02 -0.55908478787E+02  0.13897003225E+03  0.91628526192E+02 0.  0.
         23    2    1    2    0    0 -0.54131342021E+02 -0.10763361922E+03 -0.54243367105E+02  0.16004073217E+03  0.90307778756E+02 0.  0.
        -11    1    3    3    0    0 -0.24367513694E+02  0.35867859725E+02 -0.31584734293E+01  0.43477063370E+02  0.00000000000E+00 0. -1.
         11    1    3    3    0    0  0.68475551938E+02  0.40588703192E+02 -0.52750005357E+02  0.95492968878E+02  0.00000000000E+00 0.  1.
        -13    1    4    4    0    0 -0.76810771925E+02 -0.76540837676E+02 -0.23916262383E+02  0.11104225377E+03  0.00000000000E+00 0.  1.
         13    1    4    4    0    0  0.22679429904E+02 -0.31092781546E+02 -0.30327104722E+02  0.48998478404E+02  0.00000000000E+00 0. -1.
          4    1    1    2  501    0  0.10023303777E+02  0.31177056305E+02 -0.47869162055E+02  0.57999414948E+02  0.00000000000E+00 0. -1.
<scales pt_clust_5="13000.00000" pt_clust_6="13000.00000" pt_clust_7="13000.00000" pt_clust_8="13000.00000" pt_clust_9="13000.00000"></scales>
<clustering>
<clus scale="   90.308">  7  8 -1 -1</clus>
<clus scale="   32.749">  7  9 -1 -1</clus>
<clus scale="   91.629">  5  6 -1 -1</clus>
<clus scale="  127.228">  2  5  1 -1</clus>
<clus scale="  192.651">  1  5  2 -1</clus>
</clustering>
</event>
<event>
 9    1  0.3312826E-006  0.2994339E+03  0.7546771E-02  0.1097830E+00
         21   -1    0    0  501  502  0.00000000000E+00  0.00000000000E+00  0.82143016089E+02  0.82143016089E+02  0.00000000000E+00 0.  1.
         -1   -1    0    0    0  501 -0.00000000000E+00 -0.00000000000E+00 -0.81338916484E+03  0.81338916484E+03  0.00000000000E+00 0.  1.
         23    2    1    2    0    0  0.19932529519E+02 -0.19423368960E+03 -0.33504773564E+03  0.39890975891E+03  0.93530629691E+02 0.  0.
         23    2    1    2    0    0 -0.92164124983E+02  0.10375415635E+03 -0.30977900393E+03  0.35215005925E+03  0.93741570593E+02 0.  0.
        -11    1    4    4    0    0 -0.70021693380E+02  0.12014582539E+03 -0.27079329732E+03  0.30441265870E+03  0.00000000000E+00 0.  1.
         11    1    4    4    0    0 -0.22142431603E+02 -0.16391669040E+02 -0.38985706613E+02  0.47737400551E+02  0.00000000000E+00 0. -1.
        -13    1    3    3    0    0 -0.19067008636E+02 -0.27026389778E+02 -0.16329085067E+02  0.36886523039E+02  0.00000000000E+00 0. -1.
         13    1    3    3    0    0  0.38999538156E+02 -0.16720729982E+03 -0.31871865057E+03  0.36202323587E+03  0.00000000000E+00 0.  1.
         -1    1    1    2    0  502  0.72231595464E+02  0.90479533250E+02 -0.86419409172E+02  0.14447236276E+03  0.00000000000E+00 0.  1.
<scales pt_clust_5="13000.00000" pt_clust_6="13000.00000" pt_clust_7="13000.00000" pt_clust_8="13000.00000" pt_clust_9="13000.00000"></scales>
<clustering>
<clus scale="   93.531">  7  8 -1 -1</clus>
<clus scale="   93.742">  5  6 -1 -1</clus>
<clus scale="  115.775">  5  9 -1 -1</clus>
<clus scale="  216.499">  2  7  1 -1</clus>
<clus scale="  299.434">  1  5  2 -1</clus>
</clustering>
</event>
<event>
 9    1  0.3312826E-006  0.4174881E+03  0.7546771E-02  0.1090967E+00
         21   -1    0    0  501  502  0.00000000000E+00  0.00000000000E+00  0.78294572243E+02  0.78294572243E+02  0.00000000000E+00 0. -1.
          1   -1    0    0  502    0 -0.00000000000E+00 -0.00000000000E+00 -0.85099498716E+03  0.85099498716E+03  0.00000000000E+00 0. -1.
         23    2    1    2    0    0 -0.12656822982E+02  0.23239532081E+02 -0.18691142980E+03  0.20995301668E+03  0.91891869094E+02 0.  0.
         23    2    1    2    0    0  0.15960607974E+02 -0.91519036148E+02 -0.62770099168E+03  0.63915161917E+03  0.76653651863E+02 0.  0.
        -11    1    4    4    0    0 -0.72886447714E+01 -0.95729004260E+02 -0.53073782691E+03  0.53935128396E+03  0.00000000000E+00 0. -1.
         11    1    4    4    0    0  0.23249252745E+02  0.42099681126E+01 -0.96963164776E+02  0.99800335211E+02  0.00000000000E+00 0.  1.
        -11    1    3    3    0    0  0.32229497220E+02  0.32205522650E+02 -0.12435193193E+03  0.13243617012E+03  0.00000000000E+00 0.  1.
         11    1    3    3    0    0 -0.44886320202E+02 -0.89659905694E+01 -0.62559497870E+02  0.77516846569E+02  0.00000000000E+00 0. -1.
          1    1    1    2  501    0 -0.33037849917E+01  0.68279504067E+02  0.41912006563E+02  0.80184923552E+02  0.00000000000E+00 0. -1.
<scales pt_clust_5="13000.00000" pt_clust_6="13000.00000" pt_clust_7="13000.00000" pt_clust_8="13000.00000" pt_clust_9="13000.00000"></scales>
<clustering>
<clus scale="   76.654">  5  6 -1 -1</clus>
<clus scale="   68.359">  5  9 -1 -1</clus>
<clus scale="   91.892">  7  8 -1 -1</clus>
<clus scale="   95.626">  2  7  1 -1</clus>
<clus scale="  417.488">  1  5  2 -1</clus>
</clustering>
</event>
<event>
 9    1  0.3312826E-006  0.2876724E+03  0.7546771E-02  0.1097097E+00
          1   -1    0    0  502    0 -0.00000000000E+00  0.00000000000E+00  0.22597788702E+03  0.22597788702E+03  0.00000000000E+00 0. -1.
         21   -1    0    0  501  502  0.00000000000E+00 -0.00000000000E+00 -0.34415408836E+03  0.34415408836E+03  0.00000000000E+00 0. -1.
         23    2    1    2    0    0  0.19545657142E+03  0.12232221362E+03  0.22547419587E+02  0.24988434856E+03  0.93636564802E+02 0.  0.
         23    2    1    2    0    0 -0.14459679030E+03 -0.51773938796E+02 -0.25168676702E+02  0.17562148274E+03  0.81367502172E+02 0.  0.
        -11    1    4    4    0    0 -0.95056635321E+01 -0.35611954944E+02  0.18703501140E+01  0.36906194381E+02  0.00000000000E+00 0. -1.
         11    1    4    4    0    0 -0.13509112677E+03 -0.16161983852E+02 -0.27039026816E+02  0.13871528836E+03  0.00000000000E+00 0.  1.
        -11    1    3    3    0    0  0.19023910675E+02 -0.14490024634E+02  0.11003168981E+02  0.26323748192E+02  0.00000000000E+00 0.  1.
         11    1    3    3    0    0  0.17643266075E+03  0.13681223825E+03  0.11544250607E+02  0.22356060037E+03  0.00000000000E+00 0. -1.
          1    1    1    2  501    0 -0.50859781119E+02 -0.70548274824E+02 -0.11555494423E+03  0.14462614408E+03  0.00000000000E+00 0. -1.
<scales pt_clust_5="13000.00000" pt_clust_6="13000.00000" pt_clust_7="13000.00000" pt_clust_8="13000.00000" pt_clust_9="13000.00000"></scales>
<clustering>
<clus scale="   81.368">  5  6 -1 -1</clus>
<clus scale="   86.970">  5  9 -1 -1</clus>
<clus scale="   93.637">  7  8 -1 -1</clus>
<clus scale="  248.865">  1  7  2 -1</clus>
<clus scale="  287.672">  2  5  1 -1</clus>
</clustering>
</event>
<event>
 9    1  0.3312826E-006  0.1968638E+03  0.7546771E-02  0.1168785E+00
         21   -1    0    0  501  502  0.00000000000E+00  0.00000000000E+00  0.18097751334E+03  0.18097751334E+03  0.00000000000E+00 0. -1.
          1   -1    0    0  502    0 -0.00000000000E+00 -0.00000000000E+00 -0.32149674560E+03  0.32149674560E+03  0.00000000000E+00 0. -1.
         23    2    1    2    0    0 -0.30111515532E+02  0.44038047115E+02 -0.24507336823E+03  0.27956864937E+03  0.12349745315E+03 0.  0.
         23    2    1    2    0    0  0.63748744861E+02  0.25474219325E+02  0.35993432311E+02  0.11963902025E+03  0.91132484193E+02 0.  0.
        -11    1    3    3    0    0  0.17575883128E+02 -0.20766744995E+02 -0.67515250498E+01  0.28031276388E+02  0.00000000000E+00 0.  1.
         11    1    3    3    0    0 -0.47687398660E+02  0.64804792110E+02 -0.23832184318E+03  0.25153737298E+03  0.00000000000E+00 0. -1.
        -13    1    4    4    0    0  0.62287827848E+02 -0.16228864989E+02 -0.25056603114E+00  0.64367789617E+02  0.00000000000E+00 0.  1.
         13    1    4    4    0    0  0.14609170132E+01  0.41703084314E+02  0.36243998342E+02  0.55271230633E+02  0.00000000000E+00 0. -1.
          1    1    1    2  501    0 -0.33637229329E+02 -0.69512266440E+02  0.68560703658E+02  0.10326658931E+03  0.00000000000E+00 0. -1.
<scales pt_clust_5="13000.00000" pt_clust_6="13000.00000" pt_clust_7="13000.00000" pt_clust_8="13000.00000" pt_clust_9="13000.00000"></scales>
<clustering>
<clus scale="   91.132">  7  8 -1 -1</clus>
<clus scale="   77.223">  7  9 -1 -1</clus>
<clus scale="  123.497">  5  6 -1 -1</clus>
<clus scale="  134.528">  2  5  1 -1</clus>
<clus scale="  196.864">  1  5  2 -1</clus>
</clustering>
</event>
<event>
 9    1  0.3312826E-006  0.2757608E+03  0.7546771E-02  0.1140461E+00
          3   -1    0    0  502    0 -0.00000000000E+00  0.00000000000E+00  0.29266452832E+03  0.29266452832E+03  0.00000000000E+00 0. -1.
         21   -1    0    0  501  502  0.00000000000E+00 -0.00000000000E+00 -0.12720020112E+03  0.12720020112E+03  0.00000000000E+00 0. -1.
         23    2    1    2    0    0 -0.11918620330E+02  0.28416774950E+02  0.96554589150E+02  0.13562442318E+03  0.90120080264E+02 0.  0.
         23    2    1    2    0    0 -0.13183659931E+02 -0.15684893579E+02  0.16119844534E+03  0.18775491478E+03  0.94059260408E+02 0.  0.
        -11    1    3    3    0    0  0.25427704611E+02  0.35213431624E+02  0.85804962534E+02  0.96171958096E+02  0.00000000000E+00 0. -1.
         11    1    3    3    0    0 -0.37346324940E+02 -0.67966566739E+01  0.10749626616E+02  0.39452465080E+02  0.00000000000E+00 0.  1.
        -13    1    4    4    0    0  0.99264209514E+01 -0.45256513886E+02  0.41119733469E+02  0.61947706677E+02  0.00000000000E+00 0.  1.
         13    1    4    4    0    0 -0.23110080883E+02  0.29571620308E+02  0.12007871187E+03  0.12580720810E+03  0.00000000000E+00 0. -1.
          3    1    1    2  501    0  0.25102280261E+02 -0.12731881372E+02 -0.92288707286E+02  0.96485391486E+02  0.00000000000E+00 0. -1.
<scales pt_clust_5="13000.00000" pt_clust_6="13000.00000" pt_clust_7="13000.00000" pt_clust_8="13000.00000" pt_clust_9="13000.00000"></scales>
<clustering>
<clus scale="   90.120">  5  6 -1 -1</clus>
<clus scale="   94.059">  7  8 -1 -1</clus>
<clus scale="   28.147">  7  9 -1 -1</clus>
<clus scale="   95.243">  1  5  2 -1</clus>
<clus scale="  275.761">  2  5  1 -1</clus>
</clustering>
</event>
<event>
 9    1  0.3312826E-006  0.6196695E+03  0.7546771E-02  0.1046080E+00
          1   -1    0    0  502    0 -0.00000000000E+00  0.00000000000E+00  0.95029296649E+03  0.95029296649E+03  0.00000000000E+00 0. -1.
         21   -1    0    0  501  502  0.00000000000E+00 -0.00000000000E+00 -0.13777931656E+03  0.13777931656E+03  0.00000000000E+00 0. -1.
         23    2    1    2    0    0  0.13675991229E+02  0.39828133387E+02  0.15259309538E+03  0.18281796904E+03  0.91457334869E+02 0.  0.
         23    2    1    2    0    0  0.64359014685E+02 -0.22044619013E+03  0.66391585219E+03  0.70845922521E+03  0.91605728421E+02 0.  0.
        -11    1    4    4    0    0  0.62645611371E+02 -0.14171299791E+03  0.53868022289E+03  0.56052067663E+03  0.00000000000E+00 0. -1.
         11    1    4    4    0    0  0.17134033146E+01 -0.78733192224E+02  0.12523562930E+03  0.14793854858E+03  0.00000000000E+00 0.  1.
        -13    1    3    3    0    0 -0.28475735672E+02  0.49429047216E+02  0.94888214268E+02  0.11071527193E+03  0.00000000000E+00 0.  1.
         13    1    3    3    0    0  0.42151726900E+02 -0.96009138287E+01  0.57704881112E+02  0.72102697115E+02  0.00000000000E+00 0. -1.
          1    1    1    2  501    0 -0.78035005914E+02  0.18061805674E+03 -0.39952976402E+01  0.19679508879E+03  0.00000000000E+00 0. -1.
<scales pt_clust_5="13000.00000" pt_clust_6="13000.00000" pt_clust_7="13000.00000" pt_clust_8="13000.00000" pt_clust_9="13000.00000"></scales>
<clustering>
<clus scale="   91.457">  7  8 -1 -1</clus>
<clus scale="   91.606">  5  6 -1 -1</clus>
<clus scale="  100.686">  1  7  2 -1</clus>
<clus scale="  200.621">  5  9 -1 -1</clus>
<clus scale="  619.669">  2  5  1 -1</clus>
</clustering>
</event>
<event>
 9    1  0.3312826E-006  0.5894206E+03  0.7546771E-02  0.1029449E+00
         21   -1    0    0  501  502  0.00000000000E+00  0.00000000000E+00  0.40894096135E+03  0.40894096135E+03  0.00000000000E+00 0.  1.
         -1   -1    0    0    0  501 -0.00000000000E+00 -0.00000000000E+00 -0.37172415840E+03  0.37172415840E+03  0.00000000000E+00 0.  1.
         23    2    1    2    0    0 -0.71466265173E+02 -0.15144573815E+03  0.15386653161E+02  0.19084043247E+03  0.90222408015E+02 0.  0.
         23    2    1    2    0    0  0.29746495963E+03  0.18309162999E+03  0.22679415557E+01  0.36078418353E+03  0.90289181771E+02 0.  0.
        -11    1    4    4    0    0  0.16047629892E+03  0.53186821597E+02  0.23973370789E+02  0.17075187558E+03  0.00000000000E+00 0. -1.
         11    1    4    4    0    0  0.13698866071E+03  0.12990480839E+03 -0.21705429233E+02  0.19003230795E+03  0.00000000000E+00 0.  1.
        -11    1    3    3    0    0 -0.76187144794E+02 -0.92412677067E+02 -0.20621447382E+02  0.12153118121E+03  0.00000000000E+00 0.  1.
         11    1    3    3    0    0  0.47208796209E+01 -0.59033061081E+02  0.36008100543E+02  0.69309251256E+02  0.00000000000E+00 0. -1.
         -1    1    1    2    0  502 -0.22599869446E+03 -0.31645891838E+02  0.19562208233E+02  0.22904050375E+03  0.00000000000E+00 0.  1.
<scales pt_clust_5="13000.00000" pt_clust_6="13000.00000" pt_clust_7="13000.00000" pt_clust_8="13000.00000" pt_clust_9="13000.00000"></scales>
<clustering>
<clus scale="   90.222">  7  8 -1 -1</clus>
<clus scale="   90.289">  5  6 -1 -1</clus>
<clus scale="  190.219">  2  7  1 -1</clus>
<clus scale="  267.095">  5  9 -1 -1</clus>
<clus scale="  589.421">  1  5  2 -1</clus>
</clustering>
</event>
<event>
 9    1  0.3312826E-006  0.4464772E+03  0.7546771E-02  0.1088184E+00
         -3   -1    0    0    0  501 -0.00000000000E+00  0.00000000000E+00  0.11571912558E+03  0.11571912558E+03  0.00000000000E+00 0.  1.
         21   -1    0    0  501  502  0.00000000000E+00 -0.00000000000E+00 -0.80621995960E+03  0.80621995960E+03  0.00000000000E+00 0. -1.
         23    2    1    2    0    0  0.15548522411E+02  0.64838897420E+01  0.16503288459E+02  0.85759250901E+02  0.82452975748E+02 0.  0.
         23    2    1    2    0    0  0.14494174497E+03  0.70134604991E+02 -0.60109262314E+03  0.62919006316E+03  0.92956020398E+02 0.  0.
        -11    1    3    3    0    0 -0.27339191431E+02  0.13050817194E+02  0.27592661652E+02  0.40976947112E+02  0.00000000000E+00 0.  1.
         11    1    3    3    0    0  0.42887713843E+02 -0.65669274522E+01 -0.11089373193E+02  0.44782303789E+02  0.00000000000E+00 0. -1.
        -11    1    4    4    0    0  0.31504609783E+02  0.53186771395E+02 -0.12465530066E+03  0.13914135644E+03  0.00000000000E+00 0.  1.
         11    1    4    4    0    0  0.11343713519E+03  0.16947833596E+02 -0.47643732248E+03  0.49004870671E+03  0.00000000000E+00 0. -1.
         -3    1    1    2    0  502 -0.16049026738E+03 -0.76618494733E+02 -0.10591149934E+03  0.20698977113E+03  0.00000000000E+00 0.  1.
<scales pt_clust_5="13000.00000" pt_clust_6="13000.00000" pt_clust_7="13000.00000" pt_clust_8="13000.00000" pt_clust_9="13000.00000"></scales>
<clustering>
<clus scale="   82.453">  5  6 -1 -1</clus>
<clus scale="   84.156">  1  5  2 -1</clus>
<clus scale="   92.956">  7  8 -1 -1</clus>
<clus scale="  164.677">  7  9 -1 -1</clus>
<clus scale="  446.477">  2  5  1 -1</clus>
</clustering>
</event>
<event>
 9    1  0.3312826E-006  0.1569653E+03  0.7546771E-02  0.1214719E+00
         21   -1    0    0  501  502  0.00000000000E+00  0.00000000000E+00  0.42709508116E+02  0.42709508116E+02  0.00000000000E+00 0. -1.
         -1   -1    0    0    0  501 -0.00000000000E+00 -0.00000000000E+00 -0.48418402457E+03  0.48418402457E+03  0.00000000000E+00 0.  1.
         23    2    1    2    0    0 -0.40389882392E+02  0.20798539972E+02 -0.30160649834E+03  0.31665282959E+03  0.85080037528E+02 0.  0.
         23    2    1    2    0    0 -0.12069081384E+02  0.14396408308E+02 -0.73060903054E+02  0.11829605731E+03  0.91121579897E+02 0.  0.
        -11    1    3    3    0    0  0.12094312277E+02  0.38966641102E+02 -0.12033164808E+03  0.12706052509E+03  0.00000000000E+00 0.  1.
         11    1    3    3    0    0 -0.52484194669E+02 -0.18168101129E+02 -0.18127485026E+03  0.18959230450E+03  0.00000000000E+00 0. -1.
        -11    1    4    4    0    0  0.24034582406E+02  0.28667925042E+02 -0.21722041953E+01  0.37473050966E+02  0.00000000000E+00 0.  1.
         11    1    4    4    0    0 -0.36103663790E+02 -0.14271516734E+02 -0.70888698858E+02  0.80823006346E+02  0.00000000000E+00 0. -1.
         -1    1    1    2    0  502  0.52458963776E+02 -0.35194948280E+02 -0.66807115066E+02  0.91944645784E+02  0.00000000000E+00 0.  1.
<scales pt_clust_5="13000.00000" pt_clust_6="13000.00000" pt_clust_7="13000.00000" pt_clust_8="13000.00000" pt_clust_9="13000.00000"></scales>
<clustering>
<clus scale="   85.080">  5  6 -1 -1</clus>
<clus scale="   91.122">  7  8 -1 -1</clus>
<clus scale="   63.171">  7  9 -1 -1</clus>
<clus scale="   96.450">  2  5  1 -1</clus>
<clus scale="  156.965">  1  5  2 -1</clus>
</clustering>
</event>
<event>
 9    1  0.3312826E-006  0.1575100E+03  0.7546771E-02  0.1210090E+00
         21   -1    0    0  501  502  0.00000000000E+00  0.00000000000E+00  0.86932492705E+02  0.86932492705E+02  0.00000000000E+00 0.  1.
          1   -1    0    0  502    0 -0.00000000000E+00 -0.00000000000E+00 -0.22546218819E+03  0.22546218819E+03  0.00000000000E+00 0. -1.
         23    2    1    2    0    0  0.50361801178E+02  0.15512908091E+02 -0.11004835534E+03  0.15233040440E+03  0.91197314959E+02 0.  0.
         23    2    1    2    0    0 -0.73563115216E+02 -0.32090575093E+02 -0.40358456126E+02  0.12917437684E+03  0.92821752417E+02 0.  0.
        -11    1    4    4    0    0 -0.77092773128E+02 -0.58027536422E+02 -0.33105648882E+02  0.10201212987E+03  0.00000000000E+00 0.  1.
         11    1    4    4    0    0  0.35296579123E+01  0.25936961329E+02 -0.72528072438E+01  0.27162246977E+02  0.00000000000E+00 0. -1.
        -13    1    3    3    0    0 -0.25312724570E+02 -0.29840568057E+01 -0.15533389614E+02  0.29848363658E+02  0.00000000000E+00 0.  1.
         13    1    3    3    0    0  0.75674525748E+02  0.18496964897E+02 -0.94514965727E+02  0.12248204074E+03  0.00000000000E+00 0. -1.
          1    1    1    2  501    0  0.23201314039E+02  0.16577667002E+02  0.11877115985E+02  0.30889899651E+02  0.00000000000E+00 0. -1.
<scales pt_clust_5="13000.00000" pt_clust_6="13000.00000" pt_clust_7="13000.00000" pt_clust_8="13000.00000" pt_clust_9="13000.00000"></scales>
<clustering>
<clus scale="   91.197">  7  8 -1 -1</clus>
<clus scale="   92.822">  5  6 -1 -1</clus>
<clus scale="   28.515">  5  9 -1 -1</clus>
<clus scale="  105.328">  2  7  1 -1</clus>
<clus scale="  157.510">  1  5  2 -1</clus>
</clustering>
</event>
<event>
 9    1  0.3312826E-006  0.2707388E+03  0.7546771E-02  0.1139296E+00
         -2   -1    0    0    0  501 -0.00000000000E+00  0.00000000000E+00  0.17203629815E+03  0.17203629815E+03  0.00000000000E+00 0.  1.
         21   -1    0    0  501  502  0.00000000000E+00 -0.00000000000E+00 -0.20515803753E+03  0.20515803753E+03  0.00000000000E+00 0. -1.
         23    2    1    2    0    0 -0.52061546625E+01  0.48102965484E+02 -0.24236601481E+02  0.10630980347E+03  0.91506077000E+02 0.  0.
         23    2    1    2    0    0  0.20187167417E+02 -0.13807332520E+03 -0.42049733373E+02  0.17383306770E+03  0.94752258507E+02 0.  0.
        -13    1    4    4    0    0  0.39114106864E+02 -0.19848872604E+02  0.70527006213E+01  0.44425574678E+02  0.00000000000E+00 0.  1.
         13    1    4    4    0    0 -0.18926939447E+02 -0.11822445259E+03 -0.49102433994E+02  0.12940749303E+03  0.00000000000E+00 0. -1.
        -13    1    3    3    0    0 -0.34518400604E+02  0.41429167079E+02 -0.44617395411E+02  0.69990055282E+02  0.00000000000E+00 0. -1.
         13    1    3    3    0    0  0.29312245942E+02  0.66737984051E+01  0.20380793930E+02  0.36319748189E+02  0.00000000000E+00 0.  1.
         -2    1    1    2    0  502 -0.14981012754E+02  0.89970359711E+02  0.33164595471E+02  0.97051464504E+02  0.00000000000E+00 0.  1.
<scales pt_clust_5="13000.00000" pt_clust_6="13000.00000" pt_clust_7="13000.00000" pt_clust_8="13000.00000" pt_clust_9="13000.00000"></scales>
<clustering>
<clus scale="   91.506">  7  8 -1 -1</clus>
<clus scale="   94.752">  5  6 -1 -1</clus>
<clus scale="   91.209">  5  9 -1 -1</clus>
<clus scale="  103.510">  1  7  2 -1</clus>
<clus scale="  270.739">  2  5  1 -1</clus>
</clustering>
</event>
<event>
 9    1  0.3312826E-006  0.6082752E+03  0.7546771E-02  0.1045125E+00
         21   -1    0    0  501  502  0.00000000000E+00  0.00000000000E+00  0.15832373738E+03  0.15832373738E+03  0.00000000000E+00 0.  1.
         -4   -1    0    0    0  501 -0.00000000000E+00 -0.00000000000E+00 -0.86241822539E+03  0.86241822539E+03  0.00000000000E+00 0.  1.
         23    2    1    2    0    0  0.26645977464E+02 -0.54511780388E+02 -0.21110206950E+03  0.23777306400E+03  0.91051655147E+02 0.  0.
         23    2    1    2    0    0 -0.17218778773E+03  0.11304036220E+02  0.65788833386E+02  0.20393019958E+03  0.86503989630E+02 0.  0.
        -11    1    3    3    0    0  0.57452499388E+02 -0.44006825055E+02 -0.17381050535E+03  0.18827501721E+03  0.00000000000E+00 0. -1.
         11    1    3    3    0    0 -0.30806521924E+02 -0.10504955333E+02 -0.37291564148E+02  0.49498046792E+02  0.00000000000E+00 0.  1.
        -11    1    4    4    0    0 -0.12503072107E+03  0.11112899719E+02  0.31999050515E+01  0.12556439441E+03  0.00000000000E+00 0.  1.
         11    1    4    4    0    0 -0.47157066666E+02  0.19113650036E+00  0.62588928334E+02  0.78365805168E+02  0.00000000000E+00 0. -1.
         -4    1    1    2    0  502  0.14554181027E+03  0.43207744168E+02 -0.55878125190E+03  0.57903869919E+03  0.00000000000E+00 0.  1.
<scales pt_clust_5="13000.00000" pt_clust_6="13000.00000" pt_clust_7="13000.00000" pt_clust_8="13000.00000" pt_clust_9="13000.00000"></scales>
<clustering>
<clus scale="   86.504">  7  8 -1 -1</clus>
<clus scale="   91.052">  5  6 -1 -1</clus>
<clus scale="  109.416">  2  5  1 -1</clus>
<clus scale="  169.389">  7  9 -1 -1</clus>
<clus scale="  608.275">  1  5  2 -1</clus>
</clustering>
</event>
<event>
 9    1  0.3312826E-006  0.2151243E+03  0.7546771E-02  0.1167808E+00
         21   -1    0    0  501  502  0.00000000000E+00  0.00000000000E+00  0.43337403563E+03  0.43337403563E+03  0.00000000000E+00 0.  1.
          2   -1    0    0  502    0 -0.00000000000E+00 -0.00000000000E+00 -0.15162826932E+03  0.15162826932E+03  0.00000000000E+00 0. -1.
         23    2    1    2    0    0 -0.63375304263E+01  0.54614982044E+02 -0.10096224451E+03  0.14597623509E+03  0.89959578919E+02 0.  0.
         23    2    1    2    0    0 -0.26875631597E+02  0.47612089980E+02  0.19473684245E+03  0.22249281947E+03  0.92689838839E+02 0.  0.
        -11    1    3    3    0    0  0.31620929400E+02  0.59144530517E+02 -0.67841247534E+02  0.95395982793E+02  0.00000000000E+00 0. -1.
         11    1    3    3    0    0 -0.37958459827E+02 -0.45295484732E+01 -0.33120996973E+02  0.50580252295E+02  0.00000000000E+00 0.  1.
        -11    1    4    4    0    0  0.34477417683E+02  0.23032811810E+02  0.71582831982E+02  0.82724268413E+02  0.00000000000E+00 0. -1.
         11    1    4    4    0    0 -0.61353049279E+02  0.24579278169E+02  0.12315401047E+03  0.13976855106E+03  0.00000000000E+00 0.  1.
          2    1    1    2  501    0  0.33213162023E+02 -0.10222707202E+03  0.18797116837E+03  0.21653325039E+03  0.00000000000E+00 0. -1.
<scales pt_clust_5="13000.00000" pt_clust_6="13000.00000" pt_clust_7="13000.00000" pt_clust_8="13000.00000" pt_clust_9="13000.00000"></scales>
<clustering>
<clus scale="   89.960">  5  6 -1 -1</clus>
<clus scale="   92.690">  7  8 -1 -1</clus>
<clus scale="  105.431">  2  5  1 -1</clus>
<clus scale="   80.340">  7  9 -1 -1</clus>
<clus scale="  215.124">  1  5  2 -1</clus>
</clustering>
</event>
<event>
 9    1  0.3312826E-006  0.2097698E+03  0.7546771E-02  0.1175614E+00
          2   -1    0    0  502    0 -0.00000000000E+00  0.00000000000E+00  0.55640610913E+03  0.55640610913E+03  0.00000000000E+00 0. -1.
         21   -1    0    0  501  502  0.00000000000E+00 -0.00000000000E+00 -0.42291495088E+02  0.42291495088E+02  0.00000000000E+00 0.  1.
         23    2    1    2    0    0 -0.18369905753E+02 -0.18801086727E+02  0.19212961398E+03  0.21440903903E+03  0.91468645721E+02 0.  0.
         23    2    1    2    0    0  0.31037949504E+02 -0.19243142951E+02  0.32947428751E+03  0.34349724049E+03  0.90018860426E+02 0.  0.
        -13    1    3    3    0    0 -0.99329854536E+01  0.31013991175E+02  0.13157230258E+03  0.13554262301E+03  0.00000000000E+00 0. -1.
         13    1    3    3    0    0 -0.84369202998E+01 -0.49815077903E+02  0.60557311407E+02  0.78866416017E+02  0.00000000000E+00 0.  1.
        -13    1    4    4    0    0  0.58649201629E+02 -0.30037362385E+02  0.25403251310E+03  0.26243949722E+03  0.00000000000E+00 0.  1.
         13    1    4    4    0    0 -0.27611252125E+02  0.10794219434E+02  0.75441774416E+02  0.81057743270E+02  0.00000000000E+00 0. -1.
          2    1    1    2  501    0 -0.12668043751E+02  0.38044229678E+02 -0.74892874493E+01  0.40791324700E+02  0.00000000000E+00 0. -1.
<scales pt_clust_5="13000.00000" pt_clust_6="13000.00000" pt_clust_7="13000.00000" pt_clust_8="13000.00000" pt_clust_9="13000.00000"></scales>
<clustering>
<clus scale="   90.019">  7  8 -1 -1</clus>
<clus scale="   40.098">  7  9 -1 -1</clus>
<clus scale="   91.469">  5  6 -1 -1</clus>
<clus scale="   95.171">  1  5  2 -1</clus>
<clus scale="  209.770">  2  5  1 -1</clus>
</clustering>
</event>
<event>
 9    1  0.3312826E-006  0.6379790E+03  0.7546771E-02  0.1039554E+00
          2   -1    0    0  502    0 -0.00000000000E+00  0.00000000000E+00  0.29223964267E+03  0.29223964267E+03  0.00000000000E+00 0. -1.
         21   -1    0    0  501  502  0.00000000000E+00 -0.00000000000E+00 -0.48303525208E+03  0.48303525208E+03  0.00000000000E+00 0. -1.
         23    2    1    2    0    0 -0.31479914909E+02 -0.56003231666E+02 -0.48962465622E+02  0.12172015906E+03  0.91055626313E+02 0.  0.
         23    2    1    2    0    0 -0.41903289336E+02  0.21971774753E+03  0.16875073783E+03  0.29487676746E+03  0.91889728641E+02 0.  0.
        -11    1    4    4    0    0 -0.58132359389E+02  0.11024819642E+03  0.55180583610E+02  0.13630455909E+03  0.00000000000E+00 0.  1.
         11    1    4    4    0    0  0.16229070054E+02  0.10946955111E+03  0.11357015422E+03  0.15857220836E+03  0.00000000000E+00 0. -1.
        -13    1    3    3    0    0 -0.57964889906E+02 -0.10946204456E+02 -0.29447630670E+02  0.65931106512E+02  0.00000000000E+00 0. -1.
         13    1    3    3    0    0  0.26484974996E+02 -0.45057027210E+02 -0.19514834952E+02  0.55789052553E+02  0.00000000000E+00 0.  1.
          2    1    1    2  501    0  0.73383204245E+02 -0.16371451586E+03 -0.31058388162E+03  0.35867796823E+03  0.00000000000E+00 0. -1.
<scales pt_clust_5="13000.00000" pt_clust_6="13000.00000" pt_clust_7="13000.00000" pt_clust_8="13000.00000" pt_clust_9="13000.00000"></scales>
<clustering>
<clus scale="   91.056">  7  8 -1 -1</clus>
<clus scale="   91.890">  5  6 -1 -1</clus>
<clus scale="  111.438">  1  7  2 -1</clus>
<clus scale="  183.066">  5  9 -1 -1</clus>
<clus scale="  637.979">  2  5  1 -1</clus>
</clustering>
</event>
<event>
 9    1  0.3312826E-006  0.1626467E+03  0.7546771E-02  0.1210596E+00
         21   -1    0    0  501  502  0.00000000000E+00  0.00000000000E+00  0.39537157785E+03  0.39537157785E+03  0.00000000000E+00 0. -1.
         -1   -1    0    0    0  501 -0.00000000000E+00 -0.00000000000E+00 -0.43892347915E+02  0.43892347915E+02  0.00000000000E+00 0.  1.
         23    2    1    2    0    0  0.95933767313E+01  0.19531387079E+02  0.85713501026E+02  0.12767866978E+03  0.92095225174E+02 0.  0.
         23    2    1    2    0    0  0.43852239038E+02  0.76309117568E+01  0.14057891745E+03  0.17278337529E+03  0.90057831755E+02 0.  0.
        -13    1    3    3    0    0  0.16211509104E+02 -0.22659816724E+02 -0.41633518694E+01  0.28171152269E+02  0.00000000000E+00 0.  1.
         13    1    3    3    0    0 -0.66181323723E+01  0.42191203803E+02  0.89876852895E+02  0.99507517509E+02  0.00000000000E+00 0. -1.
        -13    1    4    4    0    0  0.17658599090E+02 -0.40510335594E+02  0.77561906478E+02  0.89267926761E+02  0.00000000000E+00 0.  1.
         13    1    4    4    0    0  0.26193639948E+02  0.48141247351E+02  0.63017010973E+02  0.83515448524E+02  0.00000000000E+00 0. -1.
         -1    1    1    2    0  502 -0.53445615769E+02 -0.27162298835E+02  0.12518681146E+03  0.13880188070E+03  0.00000000000E+00 0.  1.
<scales pt_clust_5="13000.00000" pt_clust_6="13000.00000" pt_clust_7="13000.00000" pt_clust_8="13000.00000" pt_clust_9="13000.00000"></scales>
<clustering>
<clus scale="   90.058">  7  8 -1 -1</clus>
<clus scale="   59.952">  7  9 -1 -1</clus>
<clus scale="   92.095">  5  6 -1 -1</clus>
<clus scale="   94.631">  2  5  1 -1</clus>
<clus scale="  162.647">  1  5  2 -1</clus>
</clustering>
</event>
<event>
 9    1  0.3312826E-006  0.1403674E+03  0.7546771E-02  0.1224230E+00
         21   -1    0    0  501  502  0.00000000000E+00  0.00000000000E+00  0.27616432862E+02  0.27616432862E+02  0.00000000000E+00 0. -1.
          2   -1    0    0  502    0 -0.00000000000E+00 -0.00000000000E+00 -0.56997416785E+03  0.56997416785E+03  0.00000000000E+00 0.  1.
         23    2    1    2    0    0  0.50829754344E+02 -0.40102337116E+02 -0.24809656339E+03  0.27156508157E+03  0.89464112305E+02 0.  0.
         23    2    1    2    0    0 -0.91585634413E+01  0.39759136094E+02 -0.20544318884E+03  0.22791721166E+03  0.89859241817E+02 0.  0.
        -11    1    4    4    0    0 -0.40578589761E+02  0.50901405355E+02 -0.12795311134E+03  0.14356034869E+03  0.00000000000E+00 0.  1.
         11    1    4    4    0    0  0.31420026320E+02 -0.11142269261E+02 -0.77490077506E+02  0.84356862969E+02  0.00000000000E+00 0. -1.
        -11    1    3    3    0    0  0.53332424962E+02 -0.64364942784E+02 -0.16504013733E+03  0.18500119011E+03  0.00000000000E+00 0. -1.
         11    1    3    3    0    0 -0.25026706181E+01  0.24262605669E+02 -0.83056426059E+02  0.86563891455E+02  0.00000000000E+00 0.  1.
          2    1    1    2  501    0 -0.41671190903E+02  0.34320102185E+00 -0.88817982756E+02  0.98108307493E+02  0.00000000000E+00 0.  1.
<scales pt_clust_5="13000.00000" pt_clust_6="13000.00000" pt_clust_7="13000.00000" pt_clust_8="13000.00000" pt_clust_9="13000.00000"></scales>
<clustering>
<clus scale="   89.464">  7  8 -1 -1</clus>
<clus scale="   89.859">  5  6 -1 -1</clus>
<clus scale="   41.673">  5  9 -1 -1</clus>
<clus scale="  110.434">  2  7  1 -1</clus>
<clus scale="  140.367">  1  5  2 -1</clus>
</clustering>
</event>
<event>
 9    1  0.3312826E-006  0.2631432E+03  0.7546771E-02  0.1142353E+00
         21   -1    0    0  501  502  0.00000000000E+00  0.00000000000E+00  0.12229682916E+03  0.12229682916E+03  0.00000000000E+00 0.  1.
         -4   -1    0    0    0  501 -0.00000000000E+00 -0.00000000000E+00 -0.50692142982E+03  0.50692142982E+03  0.00000000000E+00 0.  1.
         23    2    1    2    0    0 -0.15649724790E+02  0.46665412133E+02 -0.34814625159E+03  0.36355869868E+03  0.92447500312E+02 0.  0.
         23    2    1    2    0    0  0.59996754932E+02  0.76305146767E+02 -0.14777556674E+02  0.13314789353E+03  0.89932749015E+02 0.  0.
        -11    1    4    4    0    0  0.15006684367E+02  0.80069022516E+02  0.92814457535E+01  0.81990207815E+02  0.00000000000E+00 0.  1.
         11    1    4    4    0    0  0.44990070566E+02 -0.37638757487E+01 -0.24059002427E+02  0.51157685717E+02  0.00000000000E+00 0. -1.
        -13    1    3    3    0    0 -0.39434702476E+01  0.69172443427E+02 -0.31067653052E+03  0.31830847382E+03  0.00000000000E+00 0.  1.
         13    1    3    3    0    0 -0.11706254542E+02 -0.22507031294E+02 -0.37469721068E+02  0.45250224862E+02  0.00000000000E+00 0. -1.
         -4    1    1    2    0  502 -0.44347030142E+02 -0.12297055890E+03 -0.21700792403E+02  0.13251166677E+03  0.00000000000E+00 0.  1.
<scales pt_clust_5="13000.00000" pt_clust_6="13000.00000" pt_clust_7="13000.00000" pt_clust_8="13000.00000" pt_clust_9="13000.00000"></scales>
<clustering>
<clus scale="   89.933">  5  6 -1 -1</clus>
<clus scale="   92.448">  7  8 -1 -1</clus>
<clus scale="  104.734">  2  7  1 -1</clus>
<clus scale="  112.117">  5  9 -1 -1</clus>
<clus scale="  263.143">  1  5  2 -1</clus>
</clustering>
</event>
<event>
 9    1  0.3312826E-006  0.2106059E+03  0.7546771E-02  0.1167895E+00
          1   -1    0    0  502    0 -0.00000000000E+00  0.00000000000E+00  0.13665687439E+03  0.13665687439E+03  0.00000000000E+00 0. -1.
         21   -1    0    0  501  502  0.00000000000E+00 -0.00000000000E+00 -0.46198847308E+03  0.46198847308E+03  0.00000000000E+00 0. -1.
         23    2    1    2    0    0  0.29969607731E+02 -0.56793589617E+02  0.82787334482E+02  0.13938953725E+03  0.91934820042E+02 0.  0.
         23    2    1    2    0    0  0.42584558331E+02 -0.12318898189E+02 -0.14003635655E+03  0.17305848165E+03  0.91508781305E+02 0.  0.
        -11    1    3    3    0    0 -0.23541728725E+02  0.26466698054E+01 -0.79885522672E+00  0.23703502317E+02  0.00000000000E+00 0.  1.
         11    1    3    3    0    0  0.53511336456E+02 -0.59440259422E+02  0.83586189708E+02  0.11568603494E+03  0.00000000000E+00 0. -1.
        -11    1    4    4    0    0 -0.11651122865E+02  0.30050227406E+02 -0.36017046336E+02  0.48332105871E+02  0.00000000000E+00 0.  1.
         11    1    4    4    0    0  0.54235681196E+02 -0.42369125595E+02 -0.10401931021E+03  0.12472637578E+03  0.00000000000E+00 0. -1.
          1    1    1    2  501    0 -0.72554166062E+02  0.69112487805E+02 -0.26808257663E+03  0.28619732856E+03  0.00000000000E+00 0. -1.
<scales pt_clust_5="13000.00000" pt_clust_6="13000.00000" pt_clust_7="13000.00000" pt_clust_8="13000.00000" pt_clust_9="13000.00000"></scales>
<clustering>
<clus scale="   91.509">  7  8 -1 -1</clus>
<clus scale="   91.935">  5  6 -1 -1</clus>
<clus scale="  100.203">  7  9 -1 -1</clus>
<clus scale="  112.141">  1  5  2 -1</clus>
<clus scale="  210.606">  2  5  1 -1</clus>
</clustering>
</event>
<event>
 9    1  0.3312826E-006  0.2511963E+03  0.7546771E-02  0.1148406E+00
         21   -1    0    0  501  502  0.00000000000E+00  0.00000000000E+00  0.15599228271E+03  0.15599228271E+03  0.00000000000E+00 0.  1.
          1   -1    0    0  502    0 -0.00000000000E+00 -0.00000000000E+00 -0.21415436071E+03  0.21415436071E+03  0.00000000000E+00 0. -1.
         23    2    1    2    0    0  0.84253287415E+01 -0.55510585709E+02  0.21967233310E+02  0.10647965184E+03  0.87766426531E+02 0.  0.
         23    2    1    2    0    0 -0.53432764433E+02  0.41814732683E+02  0.50520854212E+02  0.12480478864E+03  0.91762445323E+02 0.  0.
        -13    1    3    3    0    0 -0.28189355584E+02 -0.49917615976E+02  0.35055347725E+02  0.67195874554E+02  0.00000000000E+00 0.  1.
         13    1    3    3    0    0  0.36614684326E+02 -0.55929697324E+01 -0.13088114415E+02  0.39283777283E+02  0.00000000000E+00 0. -1.
        -13    1    4    4    0    0  0.17930402888E+02  0.38700879725E+02  0.17326563651E+02  0.46037672044E+02  0.00000000000E+00 0. -1.
         13    1    4    4    0    0 -0.71363167321E+02  0.31138529578E+01  0.33194290561E+02  0.78767116592E+02  0.00000000000E+00 0.  1.
          1    1    1    2  501    0  0.45007435691E+02  0.13695853025E+02 -0.13065016552E+03  0.13886220295E+03  0.00000000000E+00 0. -1.
<scales pt_clust_5="13000.00000" pt_clust_6="13000.00000" pt_clust_7="13000.00000" pt_clust_8="13000.00000" pt_clust_9="13000.00000"></scales>
<clustering>
<clus scale="   87.766">  5  6 -1 -1</clus>
<clus scale="   91.762">  7  8 -1 -1</clus>
<clus scale="   47.045">  7  9 -1 -1</clus>
<clus scale="  104.189">  2  5  1 -1</clus>
<clus scale="  251.196">  1  5  2 -1</clus>
</clustering>
</event>
<event>
 9    1  0.3312826E-006  0.3510562E+03  0.7546771E-02  0.1078238E+00
          1   -1    0    0  502    0 -0.00000000000E+00  0.00000000000E+00  0.10534968486E+04  0.10534968486E+04  0.00000000000E+00 0. -1.
         21   -1    0    0  501  502  0.00000000000E+00 -0.00000000000E+00 -0.14468465042E+03  0.14468465042E+03  0.00000000000E+00 0. -1.
         23    2    1    2    0    0  0.15026100499E+03 -0.14109742910E+03  0.21805424225E+01  0.22595651843E+03  0.92545876927E+02 0.  0.
         23    2    1    2    0    0 -0.14781107634E+03  0.10685205443E+03  0.91455468814E+03  0.93698973857E+03  0.90961622451E+02 0.  0.
        -11    1    3    3    0    0  0.92171652452E+02 -0.60026905458E+02  0.43123361485E+02  0.11814595719E+03  0.00000000000E+00 0. -1.
         11    1    3    3    0    0  0.58089352536E+02 -0.81070523642E+02 -0.40942819063E+02  0.10781056124E+03  0.00000000000E+00 0.  1.
        -13    1    4    4    0    0 -0.10248977014E+03  0.11530616314E+03  0.76849549934E+03  0.78382714724E+03  0.00000000000E+00 0.  1.
         13    1    4    4    0    0 -0.45321306206E+02 -0.84541087106E+01  0.14605918880E+03  0.15316259133E+03  0.00000000000E+00 0. -1.
          1    1    1    2  501    0 -0.24499286450E+01  0.34245374666E+02 -0.79230324021E+01  0.35235242000E+02  0.00000000000E+00 0. -1.
<scales pt_clust_5="13000.00000" pt_clust_6="13000.00000" pt_clust_7="13000.00000" pt_clust_8="13000.00000" pt_clust_9="13000.00000"></scales>
<clustering>
<clus scale="   90.962">  7  8 -1 -1</clus>
<clus scale="   34.333">  7  9 -1 -1</clus>
<clus scale="   92.546">  5  6 -1 -1</clus>
<clus scale="  225.946">  1  5  2 -1</clus>
<clus scale="  351.056">  2  5  1 -1</clus>
</clustering>
</event>
<event>
 9    1  0.3312826E-006  0.1638436E+03  0.7546771E-02  0.1205204E+00
         -1   -1    0    0    0  501 -0.00000000000E+00  0.00000000000E+00  0.25742178809E+03  0.25742178809E+03  0.00000000000E+00 0.  1.
         21   -1    0    0  501  502  0.00000000000E+00 -0.00000000000E+00 -0.74510137743E+02  0.74510137743E+02  0.00000000000E+00 0. -1.
         23    2    1    2    0    0 -0.64566354979E+00  0.48474872141E+02  0.30843023575E+02  0.10839316028E+03  0.91910581448E+02 0.  0.
         23    2    1    2    0    0  0.39025264237E+02 -0.48019170277E+02  0.14350274936E+03  0.18421223927E+03  0.97531010763E+02 0.  0.
        -11    1    4    4    0    0 -0.28202319066E+02 -0.14133570042E+02  0.14210816493E+02  0.34598784780E+02  0.00000000000E+00 0. -1.
         11    1    4    4    0    0  0.67227583303E+02 -0.33885600235E+02  0.12929193287E+03  0.14961345449E+03  0.00000000000E+00 0.  1.
        -13    1    3    3    0    0 -0.86510942613E+00  0.76190657804E+02  0.22702376621E+02  0.79505739763E+02  0.00000000000E+00 0.  1.
         13    1    3    3    0    0  0.21944587633E+00 -0.27715785663E+02  0.81406469546E+01  0.28887420519E+02  0.00000000000E+00 0. -1.
         -1    1    1    2    0  502 -0.38379600687E+02 -0.45570186431E+00  0.85658774057E+01  0.39326526274E+02  0.00000000000E+00 0.  1.
<scales pt_clust_5="13000.00000" pt_clust_6="13000.00000" pt_clust_7="13000.00000" pt_clust_8="13000.00000" pt_clust_9="13000.00000"></scales>
<clustering>
<clus scale="   91.911">  7  8 -1 -1</clus>
<clus scale="   97.531">  5  6 -1 -1</clus>
<clus scale="   38.382">  5  9 -1 -1</clus>
<clus scale="  103.912">  1  7  2 -1</clus>
<clus scale="  163.844">  2  5  1 -1</clus>
</clustering>
</event>
<event>
 9    1  0.3312826E-006  0.1332809E+03  0.7546771E-02  0.1238189E+00
         -1   -1    0    0    0  501 -0.00000000000E+00  0.00000000000E+00  0.20137974899E+03  0.20137974899E+03  0.00000000000E+00 0.  1.
         21   -1    0    0  501  502  0.00000000000E+00 -0.00000000000E+00 -0.65700629945E+02  0.65700629945E+02  0.00000000000E+00 0. -1.
         23    2    1    2    0    0  0.31100543035E+02 -0.25639841422E+02  0.55518701968E+02  0.11155070993E+03  0.87957884084E+02 0.  0.
         23    2    1    2    0    0 -0.96059067090E+01  0.23467555358E+01  0.84699077803E+02  0.12351113246E+03  0.89349232545E+02 0.  0.
        -11    1    4    4    0    0 -0.30288612022E+02  0.35332380046E+02  0.26691171813E+02  0.53648818726E+02  0.00000000000E+00 0.  1.
         11    1    4    4    0    0  0.20682705313E+02 -0.32985624510E+02  0.58007905990E+02  0.69862313737E+02  0.00000000000E+00 0. -1.
        -13    1    3    3    0    0  0.38466715738E+02  0.16594649969E+02  0.62372449984E+00  0.41898205922E+02  0.00000000000E+00 0. -1.
         13    1    3    3    0    0 -0.73661727027E+01 -0.42234491391E+02  0.54894977468E+02  0.69652504008E+02  0.00000000000E+00 0.  1.
         -1    1    1    2    0  502 -0.21494636326E+02  0.23293085886E+02 -0.45386607282E+01  0.32018536539E+02  0.00000000000E+00 0.  1.
<scales pt_clust_5="13000.00000" pt_clust_6="13000.00000" pt_clust_7="13000.00000" pt_clust_8="13000.00000" pt_clust_9="13000.00000"></scales>
<clustering>
<clus scale="   87.958">  7  8 -1 -1</clus>
<clus scale="   89.349">  5  6 -1 -1</clus>
<clus scale="   31.695">  5  9 -1 -1</clus>
<clus scale="   96.754">  1  7  2 -1</clus>
<clus scale="  133.281">  2  5  1 -1</clus>
</clustering>
</event>
<event>
 9    1  0.3312826E-006  0.4624618E+03  0.7546771E-02  0.1058858E+00
          1   -1    0    0  502    0 -0.00000000000E+00  0.00000000000E+00  0.16733298626E+03  0.16733298626E+03  0.00000000000E+00 0. -1.
         21   -1    0    0  501  502  0.00000000000E+00 -0.00000000000E+00 -0.10520212432E+04  0.10520212432E+04  0.00000000000E+00 0. -1.
         23    2    1    2    0    0 -0.98492111141E+02 -0.10313983609E+03  0.50625242702E+02  0.17595485373E+03  0.89770115333E+02 0.  0.
         23    2    1    2    0    0  0.12951094458E+02 -0.14247885130E+03 -0.19455697381E+03  0.25830954921E+03  0.91670350949E+02 0.  0.
        -11    1    4    4    0    0 -0.31261152018E+02 -0.35744495553E+02 -0.26520461360E+02  0.54389920561E+02  0.00000000000E+00 0. -1.
         11    1    4    4    0    0  0.44212246476E+02 -0.10673435574E+03 -0.16803651245E+03  0.20391962865E+03  0.00000000000E+00 0.  1.
        -13    1    3    3    0    0 -0.56030512088E+02 -0.18945641400E+02  0.56073418660E+02  0.81502048399E+02  0.00000000000E+00 0. -1.
         13    1    3    3    0    0 -0.42461599052E+02 -0.84194194692E+02 -0.54481759581E+01  0.94452805332E+02  0.00000000000E+00 0.  1.
          1    1    1    2  501    0  0.85541016683E+02  0.24561868739E+03 -0.74075652584E+03  0.78508982652E+03  0.00000000000E+00 0. -1.
<scales pt_clust_5="13000.00000" pt_clust_6="13000.00000" pt_clust_7="13000.00000" pt_clust_8="13000.00000" pt_clust_9="13000.00000"></scales>
<clustering>
<clus scale="   89.770">  7  8 -1 -1</clus>
<clus scale="   91.670">  5  6 -1 -1</clus>
<clus scale="  168.515">  1  7  2 -1</clus>
<clus scale="  208.266">  5  9 -1 -1</clus>
<clus scale="  462.462">  2  5  1 -1</clus>
</clustering>
</event>
<event>
 9    1  0.3312826E-006  0.1985634E+03  0.7546771E-02  0.1179140E+00
         21   -1    0    0  501  502  0.00000000000E+00  0.00000000000E+00  0.21416510873E+03  0.21416510873E+03  0.00000000000E+00 0. -1.
          2   -1    0    0  502    0 -0.00000000000E+00 -0.00000000000E+00 -0.11179757553E+03  0.11179757553E+03  0.00000000000E+00 0. -1.
         23    2    1    2    0    0  0.16917790991E+01  0.47008457467E+02  0.23876590897E+01  0.10364897508E+03  0.92329583172E+02 0.  0.
         23    2    1    2    0    0  0.23577114242E+02 -0.81494815807E+02  0.13219550575E+02  0.12559153166E+03  0.91658011047E+02 0.  0.
        -13    1    3    3    0    0 -0.42748972511E+02  0.11020090891E+02 -0.97014382554E+01  0.45199944228E+02  0.00000000000E+00 0. -1.
         13    1    3    3    0    0  0.44440751610E+02  0.35988366577E+02  0.12089097345E+02  0.58449030849E+02  0.00000000000E+00 0.  1.
        -13    1    4    4    0    0  0.36715859689E+02  0.33660671747E+01 -0.66152390801E+01  0.37458592459E+02  0.00000000000E+00 0.  1.
         13    1    4    4    0    0 -0.13138745447E+02 -0.84860882982E+02  0.19834789655E+02  0.88132939205E+02  0.00000000000E+00 0. -1.
          2    1    1    2  501    0 -0.25268893341E+02  0.34486358340E+02  0.86760323537E+02  0.96722177511E+02  0.00000000000E+00 0. -1.
<scales pt_clust_5="13000.00000" pt_clust_6="13000.00000" pt_clust_7="13000.00000" pt_clust_8="13000.00000" pt_clust_9="13000.00000"></scales>
<clustering>
<clus scale="   91.658">  7  8 -1 -1</clus>
<clus scale="   42.753">  7  9 -1 -1</clus>
<clus scale="   92.330">  5  6 -1 -1</clus>
<clus scale="  103.621">  2  5  1 -1</clus>
<clus scale="  198.563">  1  5  2 -1</clus>
</clustering>
</event>
<event>
 9    1  0.3312826E-006  0.1958976E+03  0.7546771E-02  0.1175720E+00
         21   -1    0    0  501  502  0.00000000000E+00  0.00000000000E+00  0.22460525727E+03  0.22460525727E+03  0.00000000000E+00 0. -1.
          2   -1    0    0  502    0 -0.00000000000E+00 -0.00000000000E+00 -0.17597985126E+03  0.17597985126E+03  0.00000000000E+00 0. -1.
         23    2    1    2    0    0 -0.71575455373E+02 -0.67157436322E+01 -0.10087361842E+03  0.15415901581E+03  0.91768013150E+02 0.  0.
         23    2    1    2    0    0  0.21637017072E+02 -0.61777264091E+02  0.93781516979E+02  0.14498852394E+03  0.89118506944E+02 0.  0.
        -11    1    4    4    0    0  0.51788838006E+02 -0.15703103954E+02  0.35020275874E+02  0.64459994866E+02  0.00000000000E+00 0.  1.
         11    1    4    4    0    0 -0.30151820934E+02 -0.46074160137E+02  0.58761241105E+02  0.80528529070E+02  0.00000000000E+00 0. -1.
        -13    1    3    3    0    0 -0.57421975879E+01  0.33172708532E+02 -0.10112681854E+02  0.35152066209E+02  0.00000000000E+00 0.  1.
         13    1    3    3    0    0 -0.65833257785E+02 -0.39888452164E+02 -0.90760936564E+02  0.11900694960E+03  0.00000000000E+00 0. -1.
          2    1    1    2  501    0  0.49938438301E+02  0.68493007723E+02  0.55717507448E+02  0.10143756880E+03  0.00000000000E+00 0. -1.
<scales pt_clust_5="13000.00000" pt_clust_6="13000.00000" pt_clust_7="13000.00000" pt_clust_8="13000.00000" pt_clust_9="13000.00000"></scales>
<clustering>
<clus scale="   89.119">  5  6 -1 -1</clus>
<clus scale="   84.765">  5  9 -1 -1</clus>
<clus scale="   91.768">  7  8 -1 -1</clus>
<clus scale="  116.574">  2  7  1 -1</clus>
<clus scale="  195.898">  1  5  2 -1</clus>
</clustering>
</event>
<event>
 9    1  0.3312826E-006  0.2146206E+03  0.7546771E-02  0.1153716E+00
         21   -1    0    0  501  502  0.00000000000E+00  0.00000000000E+00  0.43176487952E+03  0.43176487952E+03  0.00000000000E+00 0.  1.
          2   -1    0    0  502    0 -0.00000000000E+00 -0.00000000000E+00 -0.82904940105E+02  0.82904940105E+02  0.00000000000E+00 0. -1.
         23    2    1    2    0    0  0.57594596154E+02  0.10055887620E+03  0.21858683246E+03  0.26360589786E+03  0.90987037397E+02 0.  0.
         23    2    1    2    0    0 -0.10335423313E+03 -0.95020529572E+02  0.11328054089E+03  0.20193791071E+03  0.90749326676E+02 0.  0.
        -13    1    3    3    0    0 -0.58603142116E+01  0.63914423032E+02  0.15035666730E+03  0.16348248883E+03  0.00000000000E+00 0.  1.
         13    1    3    3    0    0  0.63454910366E+02  0.36644453173E+02  0.68230165160E+02  0.10012340903E+03  0.00000000000E+00 0. -1.
        -13    1    4    4    0    0 -0.63296111265E+02 -0.10413915620E+03  0.63576327047E+02  0.13745294074E+03  0.00000000000E+00 0. -1.
         13    1    4    4    0    0 -0.40058121870E+02  0.91186266315E+01  0.49704213843E+02  0.64484969978E+02  0.00000000000E+00 0.  1.
          2    1    1    2  501    0  0.45759636980E+02 -0.55383466317E+01  0.16992566067E+02  0.49126011048E+02  0.00000000000E+00 0. -1.
<scales pt_clust_5="13000.00000" pt_clust_6="13000.00000" pt_clust_7="13000.00000" pt_clust_8="13000.00000" pt_clust_9="13000.00000"></scales>
<clustering>
<clus scale="   90.749">  7  8 -1 -1</clus>
<clus scale="   46.094">  7  9 -1 -1</clus>
<clus scale="   90.987">  5  6 -1 -1</clus>
<clus scale="  147.336">  2  5  1 -1</clus>
<clus scale="  214.621">  1  5  2 -1</clus>
</clustering>
</event>
<event>
 9    1  0.3312826E-006  0.5674925E+03  0.7546771E-02  0.1052742E+00
          1   -1    0    0  502    0 -0.00000000000E+00  0.00000000000E+00  0.29366845574E+03  0.29366845574E+03  0.00000000000E+00 0. -1.
         21   -1    0    0  501  502  0.00000000000E+00 -0.00000000000E+00 -0.39058784921E+03  0.39058784921E+03  0.00000000000E+00 0. -1.
         23    2    1    2    0    0 -0.56663364241E+01 -0.63649061219E+02 -0.32358675073E+02  0.11310323784E+03  0.87532555051E+02 0.  0.
         23    2    1    2    0    0 -0.26455314479E+03  0.47625993622E+02  0.22564523514E+02  0.28678338782E+03  0.97359910236E+02 0.  0.
        -11    1    4    4    0    0 -0.15664121915E+03  0.28685621283E+01 -0.28580184400E+02  0.15925302862E+03  0.00000000000E+00 0. -1.
         11    1    4    4    0    0 -0.10791192565E+03  0.44757431493E+02  0.51144707914E+02  0.12753035920E+03  0.00000000000E+00 0.  1.
        -13    1    3    3    0    0  0.45406278100E+01  0.19584251882E+02 -0.19969391827E+02  0.28336140044E+02  0.00000000000E+00 0.  1.
         13    1    3    3    0    0 -0.10206964234E+02 -0.83233313101E+02 -0.12389283247E+02  0.84767097792E+02  0.00000000000E+00 0. -1.
          1    1    1    2  501    0  0.27021948122E+03  0.16023067598E+02 -0.87125241912E+02  0.28436967930E+03  0.00000000000E+00 0. -1.
<scales pt_clust_5="13000.00000" pt_clust_6="13000.00000" pt_clust_7="13000.00000" pt_clust_8="13000.00000" pt_clust_9="13000.00000"></scales>
<clustering>
<clus scale="   87.533">  7  8 -1 -1</clus>
<clus scale="   97.360">  5  6 -1 -1</clus>
<clus scale="  108.376">  1  7  2 -1</clus>
<clus scale="  268.156">  5  9 -1 -1</clus>
<clus scale="  567.493">  2  5  1 -1</clus>
</clustering>
</event>
<event>
 9    1  0.3312826E-006  0.2356117E+03  0.7546771E-02  0.1130304E+00
          1   -1    0    0  502    0 -0.00000000000E+00  0.00000000000E+00  0.44079249180E+03  0.44079249180E+03  0.00000000000E+00 0. -1.
         21   -1    0    0  501  502  0.00000000000E+00 -0.00000000000E+00 -0.11126923355E+03  0.11126923355E+03  0.00000000000E+00 0.  1.
         23    2    1    2    0    0 -0.16386862864E+03  0.46371934809E+02  0.87143627542E+02  0.21403696178E+03  0.95992319460E+02 0.  0.
         23    2    1    2    0    0  0.84794558550E+02 -0.15499083330E+02  0.21391393009E+03  0.24849187782E+03  0.92513269921E+02 0.  0.
        -13    1    3    3    0    0 -0.38025860649E+02  0.56686326976E+02  0.40875195442E+02  0.79561846048E+02  0.00000000000E+00 0. -1.
         13    1    3    3    0    0 -0.12584276799E+03 -0.10314392166E+02  0.46268432100E+02  0.13447511573E+03  0.00000000000E+00 0.  1.
        -13    1    4    4    0    0  0.44525795866E+02 -0.52829761761E+02  0.14288894734E+03  0.15871604045E+03  0.00000000000E+00 0.  1.
         13    1    4    4    0    0  0.40268762684E+02  0.37330678431E+02  0.71024982760E+02  0.89775837374E+02  0.00000000000E+00 0. -1.
          1    1    1    2  501    0  0.79074070092E+02 -0.30872851479E+02  0.28465700607E+02  0.89532885749E+02  0.00000000000E+00 0. -1.
<scales pt_clust_5="13000.00000" pt_clust_6="13000.00000" pt_clust_7="13000.00000" pt_clust_8="13000.00000" pt_clust_9="13000.00000"></scales>
<clustering>
<clus scale="   92.513">  7  8 -1 -1</clus>
<clus scale="   84.887">  7  9 -1 -1</clus>
<clus scale="   95.992">  5  6 -1 -1</clus>
<clus scale="  195.494">  1  5  2 -1</clus>
<clus scale="  235.612">  2  5  1 -1</clus>
</clustering>
</event>
<event>
 9    1  0.3312826E-006  0.4236776E+03  0.7546771E-02  0.1053607E+00
          1   -1    0    0  502    0 -0.00000000000E+00  0.00000000000E+00  0.12225125189E+04  0.12225125189E+04  0.00000000000E+00 0. -1.
         21   -1    0    0  501  502  0.00000000000E+00 -0.00000000000E+00 -0.10225493801E+03  0.10225493801E+03  0.00000000000E+00 0. -1.
         23    2    1    2    0    0 -0.17404585970E+03  0.16123511017E+03  0.61466863132E+03  0.66512901305E+03  0.91051390070E+02 0.  0.
         23    2    1    2    0    0  0.21493918797E+03  0.13474988876E+02  0.36231998073E+03  0.43002598682E+03  0.85241721291E+02 0.  0.
        -11    1    4    4    0    0  0.15321524241E+03  0.12218629382E+02  0.32052546492E+03  0.35547261368E+03  0.00000000000E+00 0. -1.
         11    1    4    4    0    0  0.61723945561E+02  0.12563594935E+01  0.41794515813E+02  0.74553373142E+02  0.00000000000E+00 0.  1.
        -13    1    3    3    0    0 -0.12143450364E+03  0.15043520816E+03  0.40633277635E+03  0.44998157259E+03  0.00000000000E+00 0. -1.
         13    1    3    3    0    0 -0.52611356055E+02  0.10799902005E+02  0.20833585497E+03  0.21514744046E+03  0.00000000000E+00 0.  1.
          1    1    1    2  501    0 -0.40893328275E+02 -0.17471009904E+03  0.14326896885E+03  0.22961245707E+03  0.00000000000E+00 0. -1.
<scales pt_clust_5="13000.00000" pt_clust_6="13000.00000" pt_clust_7="13000.00000" pt_clust_8="13000.00000" pt_clust_9="13000.00000"></scales>
<clustering>
<clus scale="   85.242">  5  6 -1 -1</clus>
<clus scale="   91.051">  7  8 -1 -1</clus>
<clus scale="  179.432">  5  9 -1 -1</clus>
<clus scale="  254.124">  1  7  2 -1</clus>
<clus scale="  423.678">  2  5  1 -1</clus>
</clustering>
</event>
<event>
 9    1  0.3312826E-006  0.2167091E+03  0.7546771E-02  0.1163268E+00
          1   -1    0    0  502    0 -0.00000000000E+00  0.00000000000E+00  0.28846825977E+03  0.28846825977E+03  0.00000000000E+00 0. -1.
         21   -1    0    0  501  502  0.00000000000E+00 -0.00000000000E+00 -0.95545633866E+02  0.95545633866E+02  0.00000000000E+00 0. -1.
         23    2    1    2    0    0 -0.17885563654E+02 -0.69179743971E+02  0.79612681999E+02  0.13946947492E+03  0.89486451135E+02 0.  0.
         23    2    1    2    0    0  0.32033238827E+02 -0.16974891349E+02  0.12562627865E+03  0.15637146367E+03  0.85765945669E+02 0.  0.
        -11    1    4    4    0    0 -0.12582979805E+02 -0.20179168204E+02  0.82401785072E+00  0.23795151094E+02  0.00000000000E+00 0.  1.
         11    1    4    4    0    0  0.44616218633E+02  0.32042768542E+01  0.12480226080E+03  0.13257631258E+03  0.00000000000E+00 0. -1.
        -11    1    3    3    0    0 -0.46971420097E+01 -0.84875716934E+02  0.82864822642E+02  0.11871195938E+03  0.00000000000E+00 0. -1.
         11    1    3    3    0    0 -0.13188421645E+02  0.15695972963E+02 -0.32521406439E+01  0.20757515542E+02  0.00000000000E+00 0.  1.
          1    1    1    2  501    0 -0.14147675173E+02  0.86154635320E+02 -0.12316334745E+02  0.88172955046E+02  0.00000000000E+00 0. -1.
<scales pt_clust_5="13000.00000" pt_clust_6="13000.00000" pt_clust_7="13000.00000" pt_clust_8="13000.00000" pt_clust_9="13000.00000"></scales>
<clustering>
<clus scale="   85.766">  5  6 -1 -1</clus>
<clus scale="   87.309">  5  9 -1 -1</clus>
<clus scale="   89.486">  7  8 -1 -1</clus>
<clus scale="  114.514">  1  7  2 -1</clus>
<clus scale="  216.709">  2  5  1 -1</clus>
</clustering>
</event>
<event>
 9    1  0.3312826E-006  0.1536093E+03  0.7546771E-02  0.1210758E+00
         21   -1    0    0  501  502  0.00000000000E+00  0.00000000000E+00  0.42569574349E+03  0.42569574349E+03  0.00000000000E+00 0.  1.
         -1   -1    0    0    0  501 -0.00000000000E+00 -0.00000000000E+00 -0.12463364470E+03  0.12463364470E+03  0.00000000000E+00 0.  1.
         23    2    1    2    0    0  0.42916912115E+01  0.62602625350E+02 -0.81240585916E+02  0.13832068200E+03  0.92709605510E+02 0.  0.
         23    2    1    2    0    0  0.26358022404E+02 -0.26603811153E+02  0.18699568509E+03  0.21106059432E+03  0.90424997210E+02 0.  0.
        -11    1    3    3    0    0 -0.35387584975E+02  0.20471643744E+02 -0.67374940890E+02  0.78808324610E+02  0.00000000000E+00 0.  1.
         11    1    3    3    0    0  0.39679276186E+02  0.42130981605E+02 -0.13865645026E+02  0.59512357386E+02  0.00000000000E+00 0. -1.
        -11    1    4    4    0    0  0.45586357269E+02  0.11799010233E+02  0.13847724015E+03  0.14626441348E+03  0.00000000000E+00 0.  1.
         11    1    4    4    0    0 -0.19228334864E+02 -0.38402821386E+02  0.48518444937E+02  0.64796180838E+02  0.00000000000E+00 0. -1.
         -1    1    1    2    0  502 -0.30649713616E+02 -0.35998814197E+02  0.19530699961E+03  0.20094811187E+03  0.00000000000E+00 0.  1.
<scales pt_clust_5="13000.00000" pt_clust_6="13000.00000" pt_clust_7="13000.00000" pt_clust_8="13000.00000" pt_clust_9="13000.00000"></scales>
<clustering>
<clus scale="   90.425">  7  8 -1 -1</clus>
<clus scale="   47.279">  7  9 -1 -1</clus>
<clus scale="   92.710">  5  6 -1 -1</clus>
<clus scale="  111.949">  2  5  1 -1</clus>
<clus scale="  153.609">  1  5  2 -1</clus>
</clustering>
</event>
<event>
 9    1  0.3312826E-006  0.1969295E+03  0.7546771E-02  0.1172460E+00
         -4   -1    0    0    0  501 -0.00000000000E+00  0.00000000000E+00  0.62438976216E+02  0.62438976216E+02  0.00000000000E+00 0.  1.
         21   -1    0    0  501  502  0.00000000000E+00 -0.00000000000E+00 -0.46942510730E+03  0.46942510730E+03  0.00000000000E+00 0. -1.
         23    2    1    2    0    0  0.24673788627E+02 -0.78072274810E+02 -0.25410523780E+03  0.28255747316E+03  0.92548245930E+02 0.  0.
         23    2    1    2    0    0 -0.10493076652E+02  0.52565285288E+02 -0.12818046018E+02  0.10623564792E+03  0.90821234908E+02 0.  0.
        -11    1    3    3    0    0 -0.12200673026E+02 -0.66244089961E+02 -0.81848434875E+02  0.10600142531E+03  0.00000000000E+00 0.  1.
         11    1    3    3    0    0  0.36874461652E+02 -0.11828184849E+02 -0.17225680292E+03  0.17655604785E+03  0.00000000000E+00 0. -1.
        -13    1    4    4    0    0 -0.41591529100E+02  0.59892079398E+02 -0.37038584372E+01  0.73011198010E+02  0.00000000000E+00 0.  1.
         13    1    4    4    0    0  0.31098452448E+02 -0.73267941102E+01 -0.91141875812E+01  0.33224449910E+02  0.00000000000E+00 0. -1.
         -4    1    1    2    0  502 -0.14180711974E+02  0.25506989521E+02 -0.14006284726E+03  0.14307096243E+03  0.00000000000E+00 0.  1.
<scales pt_clust_5="13000.00000" pt_clust_6="13000.00000" pt_clust_7="13000.00000" pt_clust_8="13000.00000" pt_clust_9="13000.00000"></scales>
<clustering>
<clus scale="   90.821">  7  8 -1 -1</clus>
<clus scale="   29.184">  7  9 -1 -1</clus>
<clus scale="   92.548">  5  6 -1 -1</clus>
<clus scale="  123.569">  1  5  2 -1</clus>
<clus scale="  196.929">  2  5  1 -1</clus>
</clustering>
</event>
<event>
 9    1  0.3312826E-006  0.1617219E+03  0.7546771E-02  0.1212688E+00
         -3   -1    0    0    0  501 -0.00000000000E+00  0.00000000000E+00  0.28620579803E+03  0.28620579803E+03  0.00000000000E+00 0.  1.
         21   -1    0    0  501  502  0.00000000000E+00 -0.00000000000E+00 -0.75203229898E+02  0.75203229898E+02  0.00000000000E+00 0.  1.
         23    2    1    2    0    0  0.86856912899E+01 -0.15794332410E+02  0.17193514838E+03  0.19503519658E+03  0.90289149340E+02 0.  0.
         23    2    1    2    0    0  0.32520972369E+01  0.48702295259E+02  0.23697730848E+02  0.12814201017E+03  0.11608747832E+03 0.  0.
        -13    1    4    4    0    0 -0.30650395590E+02  0.61024121308E+02 -0.20304637092E+02  0.71243725469E+02  0.00000000000E+00 0.  1.
         13    1    4    4    0    0  0.33902492827E+02 -0.12321826049E+02  0.44002367940E+02  0.56898284697E+02  0.00000000000E+00 0. -1.
        -13    1    3    3    0    0  0.45677811452E+02  0.10135824437E+02  0.92168405130E+02  0.10336446343E+03  0.00000000000E+00 0.  1.
         13    1    3    3    0    0 -0.36992120162E+02 -0.25930156847E+02  0.79766743249E+02  0.91670733153E+02  0.00000000000E+00 0. -1.
         -3    1    1    2    0  502 -0.11937788527E+02 -0.32907962849E+02  0.15369688907E+02  0.38231821182E+02  0.00000000000E+00 0.  1.
<scales pt_clust_5="13000.00000" pt_clust_6="13000.00000" pt_clust_7="13000.00000" pt_clust_8="13000.00000" pt_clust_9="13000.00000"></scales>
<clustering>
<clus scale="   90.289">  7  8 -1 -1</clus>
<clus scale="   92.071">  1  7  2 -1</clus>
<clus scale="  116.087">  5  6 -1 -1</clus>
<clus scale="   38.271">  5  9 -1 -1</clus>
<clus scale="  161.722">  2  5  1 -1</clus>
</clustering>
</event>
<event>
 9    1  0.3312826E-006  0.3091184E+03  0.7546771E-02  0.1097102E+00
         21   -1    0    0  501  502  0.00000000000E+00  0.00000000000E+00  0.10423687470E+03  0.10423687470E+03  0.00000000000E+00 0. -1.
          1   -1    0    0  502    0 -0.00000000000E+00 -0.00000000000E+00 -0.63914241078E+03  0.63914241078E+03  0.00000000000E+00 0. -1.
         23    2    1    2    0    0 -0.17509403896E+03 -0.35232636912E+02 -0.15418945400E+03  0.25297238647E+03  0.91221595064E+02 0.  0.
         23    2    1    2    0    0  0.14043212323E+03 -0.55225701550E+02 -0.34436865421E+03  0.38694050393E+03  0.91444651182E+02 0.  0.
        -11    1    4    4    0    0  0.39631014335E+01 -0.38556586452E+02 -0.68266980287E+02  0.78502847905E+02  0.00000000000E+00 0.  1.
         11    1    4    4    0    0  0.13646902180E+03 -0.16669115098E+02 -0.27610167392E+03  0.30843765602E+03  0.00000000000E+00 0. -1.
        -11    1    3    3    0    0 -0.12626392600E+03 -0.25212054619E+02 -0.15700077135E+03  0.20304548484E+03  0.00000000000E+00 0. -1.
         11    1    3    3    0    0 -0.48830112958E+02 -0.10020582294E+02  0.28113173508E+01  0.49926901629E+02  0.00000000000E+00 0.  1.
          1    1    1    2  501    0  0.34661915726E+02  0.90458338462E+02 -0.36347427866E+02  0.10346639508E+03  0.00000000000E+00 0. -1.
<scales pt_clust_5="13000.00000" pt_clust_6="13000.00000" pt_clust_7="13000.00000" pt_clust_8="13000.00000" pt_clust_9="13000.00000"></scales>
<clustering>
<clus scale="   91.222">  7  8 -1 -1</clus>
<clus scale="   91.445">  5  6 -1 -1</clus>
<clus scale="   96.872">  5  9 -1 -1</clus>
<clus scale="  200.551">  2  7  1 -1</clus>
<clus scale="  309.118">  1  5  2 -1</clus>
</clustering>
</event>
<event>
 9    1  0.3312826E-006  0.2380409E+03  0.7546771E-02  0.1152159E+00
         21   -1    0    0  501  502  0.00000000000E+00  0.00000000000E+00  0.43567319786E+03  0.43567319786E+03  0.00000000000E+00 0. -1.
          1   -1    0    0  502    0 -0.00000000000E+00 -0.00000000000E+00 -0.90303466120E+02  0.90303466120E+02  0.00000000000E+00 0. -1.
         23    2    1    2    0    0 -0.69253213649E+01 -0.61211114091E+02  0.69677959563E+01  0.11223843811E+03  0.93563648092E+02 0.  0.
         23    2    1    2    0    0 -0.40480868055E+02 -0.43757797082E+02  0.97884332071E+02  0.14706513611E+03  0.92159461312E+02 0.  0.
        -11    1    3    3    0    0 -0.11363104106E+02 -0.85654646177E+02 -0.11584674010E+00  0.86405161693E+02  0.00000000000E+00 0.  1.
         11    1    3    3    0    0  0.44377827409E+01  0.24443532087E+02  0.70836426964E+01  0.25833276416E+02  0.00000000000E+00 0. -1.
        -11    1    4    4    0    0  0.22658042379E+02 -0.36892496773E+02  0.23520351812E+02  0.49271189878E+02  0.00000000000E+00 0.  1.
         11    1    4    4    0    0 -0.63138910434E+02 -0.68653003084E+01  0.74363980259E+02  0.97793946229E+02  0.00000000000E+00 0. -1.
          1    1    1    2  501    0  0.47406189420E+02  0.10496891117E+03  0.24051760371E+03  0.26667308976E+03  0.00000000000E+00 0. -1.
<scales pt_clust_5="13000.00000" pt_clust_6="13000.00000" pt_clust_7="13000.00000" pt_clust_8="13000.00000" pt_clust_9="13000.00000"></scales>
<clustering>
<clus scale="   92.159">  7  8 -1 -1</clus>
<clus scale="   93.564">  5  6 -1 -1</clus>
<clus scale="  112.022">  2  5  1 -1</clus>
<clus scale="   95.046">  7  9 -1 -1</clus>
<clus scale="  238.041">  1  5  2 -1</clus>
</clustering>
</event>
<event>
 9    1  0.3312826E-006  0.1370117E+03  0.7546771E-02  0.1235986E+00
          2   -1    0    0  502    0 -0.00000000000E+00  0.00000000000E+00  0.35464345607E+03  0.35464345607E+03  0.00000000000E+00 0. -1.
         21   -1    0    0  501  502  0.00000000000E+00 -0.00000000000E+00 -0.38667320596E+02  0.38667320596E+02  0.00000000000E+00 0.  1.
         23    2    1    2    0    0  0.15714321297E+02 -0.43087695610E+01  0.93203806005E+02  0.13177740076E+03  0.91721472455E+02 0.  0.
         23    2    1    2    0    0 -0.15341723448E+02 -0.18709602087E+02  0.21922896021E+03  0.23824089367E+03  0.90066468423E+02 0.  0.
        -11    1    3    3    0    0 -0.29774157118E+02  0.56952622709E+01  0.32586118214E+01  0.30488604354E+02  0.00000000000E+00 0. -1.
         11    1    3    3    0    0  0.45488478415E+02 -0.10004031832E+02  0.89945194184E+02  0.10128879641E+03  0.00000000000E+00 0.  1.
        -13    1    4    4    0    0  0.21485744970E+02  0.16841438367E+02  0.23793522927E+02  0.36213298890E+02  0.00000000000E+00 0.  1.
         13    1    4    4    0    0 -0.36827468418E+02 -0.35551040454E+02  0.19543543728E+03  0.20202759478E+03  0.00000000000E+00 0. -1.
          2    1    1    2  501    0 -0.37259784914E+00  0.23018371648E+02  0.35433692526E+01  0.23292482224E+02  0.00000000000E+00 0. -1.
<scales pt_clust_5="13000.00000" pt_clust_6="13000.00000" pt_clust_7="13000.00000" pt_clust_8="13000.00000" pt_clust_9="13000.00000"></scales>
<clustering>
<clus scale="   90.066">  7  8 -1 -1</clus>
<clus scale="   23.021">  7  9 -1 -1</clus>
<clus scale="   91.721">  5  6 -1 -1</clus>
<clus scale="   93.158">  1  5  2 -1</clus>
<clus scale="  137.012">  2  5  1 -1</clus>
</clustering>
</event>
<event>
 9    1  0.3312826E-006  0.2131285E+03  0.7546771E-02  0.1157877E+00
          1   -1    0    0  502    0 -0.00000000000E+00  0.00000000000E+00  0.50090033930E+03  0.50090033930E+03  0.00000000000E+00 0. -1.
         21   -1    0    0  501  502  0.00000000000E+00 -0.00000000000E+00 -0.97734430633E+02  0.97734430633E+02  0.00000000000E+00 0.  1.
         23    2    1    2    0    0 -0.38928522975E+01 -0.10332853115E+03  0.35472719799E+03  0.38007114162E+03  0.89054747487E+02 0.  0.
         23    2    1    2    0    0  0.63991425241E+02  0.48834806251E+02  0.59807956626E+02  0.13664498405E+03  0.92817666343E+02 0.  0.
        -11    1    4    4    0    0  0.36507260598E+02 -0.61478846001E+01 -0.14892960212E+02  0.39904596543E+02  0.00000000000E+00 0.  1.
         11    1    4    4    0    0  0.27484164643E+02  0.54982690851E+02  0.74700916837E+02  0.96740387511E+02  0.00000000000E+00 0. -1.
        -13    1    3    3    0    0 -0.45149352437E+02 -0.70078638158E+02  0.22438606918E+03  0.23937123385E+03  0.00000000000E+00 0.  1.
         13    1    3    3    0    0  0.41256500140E+02 -0.33249892994E+02  0.13034112881E+03  0.14069990777E+03  0.00000000000E+00 0. -1.
          1    1    1    2  501    0 -0.60098572944E+02  0.54493724901E+02 -0.11369245950E+02  0.81918644257E+02  0.00000000000E+00 0. -1.
<scales pt_clust_5="13000.00000" pt_clust_6="13000.00000" pt_clust_7="13000.00000" pt_clust_8="13000.00000" pt_clust_9="13000.00000"></scales>
<clustering>
<clus scale="   89.055">  7  8 -1 -1</clus>
<clus scale="   92.818">  5  6 -1 -1</clus>
<clus scale="   81.126">  5  9 -1 -1</clus>
<clus scale="  136.465">  1  7  2 -1</clus>
<clus scale="  213.128">  2  5  1 -1</clus>
</clustering>
</event>
<event>
 9    1  0.3312826E-006  0.1516392E+03  0.7546771E-02  0.1215846E+00
         21   -1    0    0  501  502  0.00000000000E+00  0.00000000000E+00  0.20745459021E+02  0.20745459021E+02  0.00000000000E+00 0.  1.
          3   -1    0    0  502    0 -0.00000000000E+00 -0.00000000000E+00 -0.81842615811E+03  0.81842615811E+03  0.00000000000E+00 0. -1.
         23    2    1    2    0    0  0.51931061979E+02 -0.10356503354E+02 -0.25140138807E+03  0.27223641533E+03  0.90032858160E+02 0.  0.
         23    2    1    2    0    0 -0.62022166388E+02  0.37838551720E+02 -0.36486802384E+03  0.38317680475E+03  0.91745756075E+02 0.  0.
        -11    1    4    4    0    0 -0.78701367887E+02  0.13839150372E+02 -0.19376342223E+03  0.20959411057E+03  0.00000000000E+00 0.  1.
         11    1    4    4    0    0  0.16679201499E+02  0.23999401348E+02 -0.17110460160E+03  0.17358269418E+03  0.00000000000E+00 0. -1.
        -11    1    3    3    0    0 -0.12015430573E+02 -0.20940602251E+02 -0.18309461680E+02  0.30300425434E+02  0.00000000000E+00 0.  1.
         11    1    3    3    0    0  0.63946492552E+02  0.10584098896E+02 -0.23309192638E+03  0.24193598989E+03  0.00000000000E+00 0. -1.
          3    1    1    2  501    0  0.10091104409E+02 -0.27482048365E+02 -0.18141128718E+03  0.18375839706E+03  0.00000000000E+00 0. -1.
<scales pt_clust_5="13000.00000" pt_clust_6="13000.00000" pt_clust_7="13000.00000" pt_clust_8="13000.00000" pt_clust_9="13000.00000"></scales>
<clustering>
<clus scale="   90.033">  7  8 -1 -1</clus>
<clus scale="   91.746">  5  6 -1 -1</clus>
<clus scale="   29.276">  5  9 -1 -1</clus>
<clus scale="  104.451">  2  7  1 -1</clus>
<clus scale="  151.639">  1  5  2 -1</clus>
</clustering>
</event>
<event>
 9    1  0.3312826E-006  0.2436193E+03  0.7546771E-02  0.1148990E+00
         21   -1    0    0  501  502  0.00000000000E+00  0.00000000000E+00  0.17029908058E+03  0.17029908058E+03  0.00000000000E+00 0.  1.
         -2   -1    0    0    0  501 -0.00000000000E+00 -0.00000000000E+00 -0.19403321511E+03  0.19403321511E+03  0.00000000000E+00 0.  1.
         23    2    1    2    0    0  0.60452102007E+02  0.21754673958E+02 -0.41554426615E+02  0.12006210506E+03  0.92522517391E+02 0.  0.
         23    2    1    2    0    0 -0.39787244713E+02  0.20021332049E+02 -0.84971878341E+02  0.13140522128E+03  0.89795509302E+02 0.  0.
        -11    1    4    4    0    0  0.22392852509E+02  0.14039407837E+02 -0.61460571120E+00  0.26437143493E+02  0.00000000000E+00 0. -1.
         11    1    4    4    0    0 -0.62180097222E+02  0.59819242116E+01 -0.84357272630E+02  0.10496807778E+03  0.00000000000E+00 0.  1.
        -11    1    3    3    0    0  0.39280110553E+02  0.58354306542E+02 -0.24962996050E+02  0.74641163904E+02  0.00000000000E+00 0.  1.
         11    1    3    3    0    0  0.21171991453E+02 -0.36599632584E+02 -0.16591430565E+02  0.45420941157E+02  0.00000000000E+00 0. -1.
         -2    1    1    2    0  502 -0.20664857294E+02 -0.41776006007E+02  0.10279217043E+03  0.11286496935E+03  0.00000000000E+00 0.  1.
<scales pt_clust_5="13000.00000" pt_clust_6="13000.00000" pt_clust_7="13000.00000" pt_clust_8="13000.00000" pt_clust_9="13000.00000"></scales>
<clustering>
<clus scale="   89.796">  5  6 -1 -1</clus>
<clus scale="   46.608">  5  9 -1 -1</clus>
<clus scale="   92.523">  7  8 -1 -1</clus>
<clus scale="  112.642">  2  7  1 -1</clus>
<clus scale="  243.619">  1  5  2 -1</clus>
</clustering>
</event>
<event>
 9    1  0.3312826E-006  0.2216204E+03  0.7546771E-02  0.1149857E+00
         21   -1    0    0  501  502  0.00000000000E+00  0.00000000000E+00  0.92828230789E+02  0.92828230789E+02  0.00000000000E+00 0.  1.
         -2   -1    0    0    0  501 -0.00000000000E+00 -0.00000000000E+00 -0.53885851596E+03  0.53885851596E+03  0.00000000000E+00 0.  1.
         23    2    1    2    0    0 -0.71718943380E+02 -0.88871305257E+02 -0.36902198286E+03  0.39706815374E+03  0.91892214804E+02 0.  0.
         23    2    1    2    0    0  0.17843161573E+02  0.28692543844E+02 -0.11153664116E+03  0.14677618085E+03  0.89225469777E+02 0.  0.
        -13    1    3    3    0    0 -0.29090494780E+02 -0.74468964530E+01 -0.19834444123E+02  0.35987752458E+02  0.00000000000E+00 0. -1.
         13    1    3    3    0    0 -0.42628448600E+02 -0.81424408804E+02 -0.34918753873E+03  0.36108040128E+03  0.00000000000E+00 0.  1.
        -13    1    4    4    0    0 -0.13704308032E+02  0.42025478339E+02 -0.10208868106E+03  0.11124768622E+03  0.00000000000E+00 0.  1.
         13    1    4    4    0    0  0.31547469605E+02 -0.13332934495E+02 -0.94479600965E+01  0.35528494630E+02  0.00000000000E+00 0. -1.
         -2    1    1    2    0  502  0.53875781808E+02  0.60178761413E+02  0.34528338848E+02  0.87842412160E+02  0.00000000000E+00 0.  1.
<scales pt_clust_5="13000.00000" pt_clust_6="13000.00000" pt_clust_7="13000.00000" pt_clust_8="13000.00000" pt_clust_9="13000.00000"></scales>
<clustering>
<clus scale="   89.225">  7  8 -1 -1</clus>
<clus scale="   80.772">  7  9 -1 -1</clus>
<clus scale="   91.892">  5  6 -1 -1</clus>
<clus scale="  146.581">  2  5  1 -1</clus>
<clus scale="  221.620">  1  5  2 -1</clus>
</clustering>
</event>
<event>
 9    1  0.3312826E-006  0.1892345E+03  0.7546771E-02  0.1191199E+00
         21   -1    0    0  501  502  0.00000000000E+00  0.00000000000E+00  0.91045534719E+02  0.91045534719E+02  0.00000000000E+00 0. -1.
          4   -1    0    0  502    0 -0.00000000000E+00 -0.00000000000E+00 -0.26173704793E+03  0.26173704793E+03  0.00000000000E+00 0. -1.
         23    2    1    2    0    0 -0.16232936986E+02  0.57925066394E+01 -0.13040230369E+03  0.15930666378E+03  0.89870968289E+02 0.  0.
         23    2    1    2    0    0 -0.41619834188E+02  0.48807357255E+02 -0.15995453378E+02  0.11029975126E+03  0.88293894917E+02 0.  0.
        -11    1    3    3    0    0  0.11068386490E+02  0.36658300566E+02 -0.23971770118E+02  0.45177272411E+02  0.00000000000E+00 0. -1.
         11    1    3    3    0    0 -0.27301323476E+02 -0.30865793927E+02 -0.10643053357E+03  0.11412939137E+03  0.00000000000E+00 0.  1.
        -11    1    4    4    0    0 -0.69095270062E+01  0.42819253619E+02 -0.46583184685E+02  0.63649219472E+02  0.00000000000E+00 0. -1.
         11    1    4    4    0    0 -0.34710307181E+02  0.59881036355E+01  0.30587731307E+02  0.46650531790E+02  0.00000000000E+00 0.  1.
          4    1    1    2  501    0  0.57852771174E+02 -0.54599863894E+02 -0.24293756141E+02  0.83176167603E+02  0.00000000000E+00 0. -1.
<scales pt_clust_5="13000.00000" pt_clust_6="13000.00000" pt_clust_7="13000.00000" pt_clust_8="13000.00000" pt_clust_9="13000.00000"></scales>
<clustering>
<clus scale="   88.294">  7  8 -1 -1</clus>
<clus scale="   79.549">  7  9 -1 -1</clus>
<clus scale="   89.871">  5  6 -1 -1</clus>
<clus scale="   91.509">  2  5  1 -1</clus>
<clus scale="  189.235">  1  5  2 -1</clus>
</clustering>
</event>
<event>
 9    1  0.3312826E-006  0.3976340E+03  0.7546771E-02  0.1096767E+00
          1   -1    0    0  502    0 -0.00000000000E+00  0.00000000000E+00  0.15204535659E+03  0.15204535659E+03  0.00000000000E+00 0. -1.
         21   -1    0    0  501  502  0.00000000000E+00 -0.00000000000E+00 -0.50932381407E+03  0.50932381407E+03  0.00000000000E+00 0. -1.
         23    2    1    2    0    0 -0.11235981651E+02 -0.17390189661E+02  0.36436766228E+02  0.10179392791E+03  0.92766911378E+02 0.  0.
         23    2    1    2    0    0 -0.10714560023E+02 -0.17285186180E+03 -0.13299120286E+03  0.23607736104E+03  0.89740138347E+02 0.  0.
        -13    1    4    4    0    0  0.87568312804E+01 -0.39570314067E+02  0.77551442128E+01  0.41262987182E+02  0.00000000000E+00 0.  1.
         13    1    4    4    0    0 -0.19471391304E+02 -0.13328154774E+03 -0.14074634707E+03  0.19481437385E+03  0.00000000000E+00 0. -1.
        -13    1    3    3    0    0  0.14531915187E+02  0.21075021940E+02 -0.17274202412E+02  0.30882538395E+02  0.00000000000E+00 0.  1.
         13    1    3    3    0    0 -0.25767896838E+02 -0.38465211601E+02  0.53710968640E+02  0.70911389517E+02  0.00000000000E+00 0. -1.
          1    1    1    2  501    0  0.21950541674E+02  0.19024205147E+03 -0.26072402084E+03  0.32349788171E+03  0.00000000000E+00 0. -1.
<scales pt_clust_5="13000.00000" pt_clust_6="13000.00000" pt_clust_7="13000.00000" pt_clust_8="13000.00000" pt_clust_9="13000.00000"></scales>
<clustering>
<clus scale="   89.740">  5  6 -1 -1</clus>
<clus scale="   92.767">  7  8 -1 -1</clus>
<clus scale="   95.049">  1  7  2 -1</clus>
<clus scale="  184.511">  5  9 -1 -1</clus>
<clus scale="  397.634">  2  5  1 -1</clus>
</clustering>
</event>
<event>
 9    1  0.3312826E-006  0.4165224E+03  0.7546771E-02  0.1048402E+00
         21   -1    0    0  501  502  0.00000000000E+00  0.00000000000E+00  0.16284597471E+04  0.16284597471E+04  0.00000000000E+00 0.  1.
          1   -1    0    0  502    0 -0.00000000000E+00 -0.00000000000E+00 -0.81248352843E+02  0.81248352843E+02  0.00000000000E+00 0. -1.
         23    2    1    2    0    0  0.24772649832E+03  0.16263064351E+03  0.69988489419E+03  0.76554014370E+03  0.91628065126E+02 0.  0.
         23    2    1    2    0    0  0.15798521533E+02 -0.92042825334E+02  0.17436213070E+03  0.21800742400E+03  0.91671202218E+02 0.  0.
        -11    1    3    3    0    0  0.24547454396E+03  0.13746395030E+03  0.60283437892E+03  0.66525437073E+03  0.00000000000E+00 0.  1.
         11    1    3    3    0    0  0.22519543538E+01  0.25166693209E+02  0.97050515274E+02  0.10028577297E+03  0.00000000000E+00 0. -1.
        -11    1    4    4    0    0 -0.35657654483E+02 -0.24699373785E+02  0.39163255955E+02  0.58440465481E+02  0.00000000000E+00 0.  1.
         11    1    4    4    0    0  0.51456176017E+02 -0.67343451549E+02  0.13519887475E+03  0.15956695851E+03  0.00000000000E+00 0. -1.
          1    1    1    2  501    0 -0.26352501985E+03 -0.70587818178E+02  0.67296436934E+03  0.72616053223E+03  0.00000000000E+00 0. -1.
<scales pt_clust_5="13000.00000" pt_clust_6="13000.00000" pt_clust_7="13000.00000" pt_clust_8="13000.00000" pt_clust_9="13000.00000"></scales>
<clustering>
<clus scale="   91.628">  5  6 -1 -1</clus>
<clus scale="   91.671">  7  8 -1 -1</clus>
<clus scale="  272.815">  7  9 -1 -1</clus>
<clus scale="  310.182">  2  5  1 -1</clus>
<clus scale="  416.522">  1  5  2 -1</clus>
</clustering>
</event>
<event>
 9    1  0.3312826E-006  0.2239433E+03  0.7546771E-02  0.1164584E+00
         21   -1    0    0  501  502  0.00000000000E+00  0.00000000000E+00  0.81151310099E+02  0.81151310099E+02  0.00000000000E+00 0. -1.
          3   -1    0    0  502    0 -0.00000000000E+00 -0.00000000000E+00 -0.37829022605E+03  0.37829022605E+03  0.00000000000E+00 0. -1.
         23    2    1    2    0    0 -0.29340255713E+02 -0.29733156696E+02 -0.18115803767E+03  0.20724687551E+03  0.91586688909E+02 0.  0.
         23    2    1    2    0    0  0.78805912092E+02 -0.10196421570E+01 -0.14372507157E+03  0.18767856916E+03  0.91405348169E+02 0.  0.
        -11    1    4    4    0    0 -0.10672453825E+02 -0.25261792261E+02 -0.40790909951E+02  0.49152393162E+02  0.00000000000E+00 0.  1.
         11    1    4    4    0    0  0.89478365917E+02  0.24242150104E+02 -0.10293416162E+03  0.13852617600E+03  0.00000000000E+00 0. -1.
        -13    1    3    3    0    0  0.10523488797E+02 -0.20302285107E+02 -0.14328987996E+01  0.22912437583E+02  0.00000000000E+00 0. -1.
         13    1    3    3    0    0 -0.39863744510E+02 -0.94308715889E+01 -0.17972513887E+03  0.18433443793E+03  0.00000000000E+00 0.  1.
          3    1    1    2  501    0 -0.49465656378E+02  0.30752798853E+02  0.27744193287E+02  0.64516091476E+02  0.00000000000E+00 0. -1.
<scales pt_clust_5="13000.00000" pt_clust_6="13000.00000" pt_clust_7="13000.00000" pt_clust_8="13000.00000" pt_clust_9="13000.00000"></scales>
<clustering>
<clus scale="   91.405">  5  6 -1 -1</clus>
<clus scale="   58.246">  5  9 -1 -1</clus>
<clus scale="   91.587">  7  8 -1 -1</clus>
<clus scale="  100.663">  2  7  1 -1</clus>
<clus scale="  223.943">  1  5  2 -1</clus>
</clustering>
</event>
<event>
 9    1  0.3312826E-006  0.1935746E+03  0.7546771E-02  0.1164996E+00
         21   -1    0    0  501  502  0.00000000000E+00  0.00000000000E+00  0.15868852264E+03  0.15868852264E+03  0.00000000000E+00 0. -1.
         -1   -1    0    0    0  501 -0.00000000000E+00 -0.00000000000E+00 -0.26708899139E+03  0.26708899139E+03  0.00000000000E+00 0.  1.
         23    2    1    2    0    0  0.89756036567E+02 -0.85856498012E+02 -0.16314150293E+03  0.22461165920E+03  0.91693855410E+02 0.  0.
         23    2    1    2    0    0 -0.33545069890E+02  0.76936020790E+01  0.59876963165E+01  0.93249224848E+02  0.86458673368E+02 0.  0.
        -11    1    3    3    0    0  0.10569089546E+03 -0.55070921918E+02 -0.13394646334E+03  0.17929034236E+03  0.00000000000E+00 0. -1.
         11    1    3    3    0    0 -0.15934858891E+02 -0.30785576093E+02 -0.29195039590E+02  0.45321316838E+02  0.00000000000E+00 0.  1.
        -13    1    4    4    0    0 -0.59672228006E+02  0.19786103329E+02 -0.34234220103E+01  0.62960181848E+02  0.00000000000E+00 0.  1.
         13    1    4    4    0    0  0.26127158115E+02 -0.12092501250E+02  0.94111183268E+01  0.30289042999E+02  0.00000000000E+00 0. -1.
         -1    1    1    2    0  502 -0.56210966676E+02  0.78162895933E+02  0.48753337858E+02  0.10791662999E+03  0.00000000000E+00 0.  1.
<scales pt_clust_5="13000.00000" pt_clust_6="13000.00000" pt_clust_7="13000.00000" pt_clust_8="13000.00000" pt_clust_9="13000.00000"></scales>
<clustering>
<clus scale="   86.459">  7  8 -1 -1</clus>
<clus scale="   91.694">  5  6 -1 -1</clus>
<clus scale="   96.276">  7  9 -1 -1</clus>
<clus scale="  154.387">  2  5  1 -1</clus>
<clus scale="  193.575">  1  5  2 -1</clus>
</clustering>
</event>
<event>
 9    1  0.3312826E-006  0.2019026E+03  0.7546771E-02  0.1180921E+00
          1   -1    0    0  502    0 -0.00000000000E+00  0.00000000000E+00  0.19035717478E+03  0.19035717478E+03  0.00000000000E+00 0. -1.
         21   -1    0    0  501  502  0.00000000000E+00 -0.00000000000E+00 -0.18384658880E+03  0.18384658880E+03  0.00000000000E+00 0. -1.
         23    2    1    2    0    0 -0.60070533458E+01 -0.25611351884E+02  0.11178434246E+03  0.14650387243E+03  0.90970431371E+02 0.  0.
         23    2    1    2    0    0  0.47469642869E+02  0.21837881677E+02 -0.13666489621E+03  0.17555788255E+03  0.97020699846E+02 0.  0.
        -13    1    4    4    0    0  0.72301484966E+02 -0.24079648484E+00 -0.67903631426E+02  0.99189041088E+02  0.00000000000E+00 0. -1.
         13    1    4    4    0    0 -0.24831842096E+02  0.22078678162E+02 -0.68761264782E+02  0.76368841459E+02  0.00000000000E+00 0.  1.
        -13    1    3    3    0    0  0.31519062958E+02  0.16643130257E+02  0.60349365954E+02  0.70089165251E+02  0.00000000000E+00 0.  1.
         13    1    3    3    0    0 -0.37526116303E+02 -0.42254482141E+02  0.51434976506E+02  0.76414707184E+02  0.00000000000E+00 0. -1.
          1    1    1    2  501    0 -0.41462589524E+02  0.37734702072E+01  0.31391139724E+02  0.52142008597E+02  0.00000000000E+00 0. -1.
<scales pt_clust_5="13000.00000" pt_clust_6="13000.00000" pt_clust_7="13000.00000" pt_clust_8="13000.00000" pt_clust_9="13000.00000"></scales>
<clustering>
<clus scale="   90.970">  7  8 -1 -1</clus>
<clus scale="   94.698">  1  7  2 -1</clus>
<clus scale="   97.021">  5  6 -1 -1</clus>
<clus scale="   47.577">  5  9 -1 -1</clus>
<clus scale="  201.903">  2  5  1 -1</clus>
</clustering>
</event>
<event>
 9    1  0.3312826E-006  0.4721896E+03  0.7546771E-02  0.1064121E+00
         21   -1    0    0  501  502  0.00000000000E+00  0.00000000000E+00  0.72525943195E+02  0.72525943195E+02  0.00000000000E+00 0.  1.
          2   -1    0    0  502    0 -0.00000000000E+00 -0.00000000000E+00 -0.15874501799E+04  0.15874501799E+04  0.00000000000E+00 0. -1.
         23    2    1    2    0    0  0.10024558773E+03  0.16645811646E+02 -0.10290010483E+03  0.17109225521E+03  0.91421372311E+02 0.  0.
         23    2    1    2    0    0 -0.75653899412E+02 -0.22896116597E+03 -0.74488985123E+03  0.78834785223E+03  0.92112526984E+02 0.  0.
        -11    1    4    4    0    0 -0.57608695482E+01 -0.11322632392E+03 -0.23623727906E+03  0.26203328045E+03  0.00000000000E+00 0.  1.
         11    1    4    4    0    0 -0.69893029864E+02 -0.11573484204E+03 -0.50865257217E+03  0.52631457178E+03  0.00000000000E+00 0. -1.
        -13    1    3    3    0    0  0.63465077697E+02 -0.15387568331E+00 -0.11283076274E+03  0.12945509177E+03  0.00000000000E+00 0.  1.
         13    1    3    3    0    0  0.36780510038E+02  0.16799687329E+02  0.99306579132E+01  0.41637163443E+02  0.00000000000E+00 0. -1.
          2    1    1    2  501    0 -0.24591688322E+02  0.21231535432E+03 -0.66713428064E+03  0.70053601565E+03  0.00000000000E+00 0. -1.
<scales pt_clust_5="13000.00000" pt_clust_6="13000.00000" pt_clust_7="13000.00000" pt_clust_8="13000.00000" pt_clust_9="13000.00000"></scales>
<clustering>
<clus scale="   91.421">  7  8 -1 -1</clus>
<clus scale="   92.113">  5  6 -1 -1</clus>
<clus scale="  136.690">  2  7  1 -1</clus>
<clus scale="  221.327">  5  9 -1 -1</clus>
<clus scale="  472.190">  1  5  2 -1</clus>
</clustering>
</event>
<event>
 9    1  0.3312826E-006  0.4173845E+03  0.7546771E-02  0.1086783E+00
         21   -1    0    0  501  502  0.00000000000E+00  0.00000000000E+00  0.52846936068E+02  0.52846936068E+02  0.00000000000E+00 0. -1.
          1   -1    0    0  502    0 -0.00000000000E+00 -0.00000000000E+00 -0.13102061451E+04  0.13102061451E+04  0.00000000000E+00 0. -1.
         23    2    1    2    0    0  0.54807817696E+02 -0.28707208373E+01 -0.21158158123E+03  0.23705987787E+03  0.91752287505E+02 0.  0.
         23    2    1    2    0    0  0.12209488873E+03  0.17721012632E+02 -0.83977264617E+03  0.85404991662E+03  0.94667664365E+02 0.  0.
        -11    1    3    3    0    0  0.32300893501E+02 -0.34786374271E+02 -0.43120458960E+02  0.64131221232E+02  0.00000000000E+00 0. -1.
         11    1    3    3    0    0  0.22506924196E+02  0.31915653434E+02 -0.16846112227E+03  0.17292865664E+03  0.00000000000E+00 0.  1.
        -11    1    4    4    0    0  0.11438648490E+03  0.45707869878E+02 -0.73834911202E+03  0.74855386481E+03  0.00000000000E+00 0. -1.
         11    1    4    4    0    0  0.77084038283E+01 -0.27986857246E+02 -0.10142353415E+03  0.10549605181E+03  0.00000000000E+00 0.  1.
          1    1    1    2  501    0 -0.17690270643E+03 -0.14850291795E+02 -0.20600498160E+03  0.27194328665E+03  0.00000000000E+00 0. -1.
<scales pt_clust_5="13000.00000" pt_clust_6="13000.00000" pt_clust_7="13000.00000" pt_clust_8="13000.00000" pt_clust_9="13000.00000"></scales>
<clustering>
<clus scale="   91.752">  5  6 -1 -1</clus>
<clus scale="   94.668">  7  8 -1 -1</clus>
<clus scale="  106.914">  2  5  1 -1</clus>
<clus scale="  165.567">  7  9 -1 -1</clus>
<clus scale="  417.385">  1  5  2 -1</clus>
</clustering>
</event>
<event>
 9    1  0.3312826E-006  0.3324436E+03  0.7546771E-02  0.1096413E+00
         21   -1    0    0  501  502  0.00000000000E+00  0.00000000000E+00  0.30501929231E+03  0.30501929231E+03  0.00000000000E+00 0. -1.
          3   -1    0    0  502    0 -0.00000000000E+00 -0.00000000000E+00 -0.21781012712E+03  0.21781012712E+03  0.00000000000E+00 0. -1.
         23    2    1    2    0    0  0.13432193779E+03  0.26643331608E+02 -0.36409972113E+02  0.16814583782E+03  0.90526717689E+02 0.  0.
         23    2    1    2    0    0 -0.82050508408E+02  0.11622551028E+03  0.21630080636E+02  0.17152906763E+03  0.93347230729E+02 0.  0.
        -11    1    3    3    0    0  0.23725243077E+01 -0.22946586289E+02 -0.74438098885E+01  0.24240152631E+02  0.00000000000E+00 0.  1.
         11    1    3    3    0    0  0.13194941348E+03  0.49589917897E+02 -0.28966162224E+02  0.14390568519E+03  0.00000000000E+00 0. -1.
        -11    1    4    4    0    0 -0.10257816166E+03  0.10451433328E+03  0.16756893998E+02  0.14739850273E+03  0.00000000000E+00 0. -1.
         11    1    4    4    0    0  0.20527653249E+02  0.11711177001E+02  0.48731866383E+01  0.24130564906E+02  0.00000000000E+00 0.  1.
          3    1    1    2  501    0 -0.52271429381E+02 -0.14286884189E+03  0.10198905667E+03  0.18315451398E+03  0.00000000000E+00 0. -1.
<scales pt_clust_5="13000.00000" pt_clust_6="13000.00000" pt_clust_7="13000.00000" pt_clust_8="13000.00000" pt_clust_9="13000.00000"></scales>
<clustering>
<clus scale="   90.527">  5  6 -1 -1</clus>
<clus scale="   93.347">  7  8 -1 -1</clus>
<clus scale="  152.131">  7  9 -1 -1</clus>
<clus scale="  164.156">  2  5  1 -1</clus>
<clus scale="  332.444">  1  5  2 -1</clus>
</clustering>
</event>
<event>
 9    1  0.3312826E-006  0.9398106E+03  0.7546771E-02  0.1003459E+00
         -1   -1    0    0    0  501 -0.00000000000E+00  0.00000000000E+00  0.54282609593E+03  0.54282609593E+03  0.00000000000E+00 0.  1.
         21   -1    0    0  501  502  0.00000000000E+00 -0.00000000000E+00 -0.52254960092E+03  0.52254960092E+03  0.00000000000E+00 0. -1.
         23    2    1    2    0    0  0.36416447174E+02  0.34637831474E+02  0.68645480809E+02  0.12432125882E+03  0.90651179610E+02 0.  0.
         23    2    1    2    0    0  0.13075234488E+03 -0.44594498133E+03  0.73702574910E+02  0.48059766210E+03  0.97872065469E+02 0.  0.
        -11    1    4    4    0    0  0.49600904165E+02 -0.30044081904E+03  0.76499096595E+02  0.31396981897E+03  0.00000000000E+00 0. -1.
         11    1    4    4    0    0  0.81151440717E+02 -0.14550416229E+03 -0.27965216846E+01  0.16662784314E+03  0.00000000000E+00 0.  1.
        -13    1    3    3    0    0  0.64609240440E+02  0.28079688317E+02  0.63659965759E+02  0.94949534421E+02  0.00000000000E+00 0.  1.
         13    1    3    3    0    0 -0.28192793266E+02  0.65581431564E+01  0.49855150499E+01  0.29371724398E+02  0.00000000000E+00 0. -1.
         -1    1    1    2    0  502 -0.16716879206E+03  0.41130714986E+03 -0.12207156072E+03  0.46045677593E+03  0.00000000000E+00 0.  1.
<scales pt_clust_5="13000.00000" pt_clust_6="13000.00000" pt_clust_7="13000.00000" pt_clust_8="13000.00000" pt_clust_9="13000.00000"></scales>
<clustering>
<clus scale="   90.651">  7  8 -1 -1</clus>
<clus scale="   97.872">  5  6 -1 -1</clus>
<clus scale="  103.651">  1  7  2 -1</clus>
<clus scale="  451.296">  5  9 -1 -1</clus>
<clus scale="  939.811">  2  5  1 -1</clus>
</clustering>
</event>
<event>
 9    1  0.3312826E-006  0.1227828E+03  0.7546771E-02  0.1250962E+00
         -1   -1    0    0    0  501 -0.00000000000E+00  0.00000000000E+00  0.64878089203E+03  0.64878089203E+03  0.00000000000E+00 0.  1.
         21   -1    0    0  501  502  0.00000000000E+00 -0.00000000000E+00 -0.22638536852E+02  0.22638536852E+02  0.00000000000E+00 0. -1.
         23    2    1    2    0    0  0.22093320335E+02 -0.10684755382E+02  0.42605983988E+03  0.43666717060E+03  0.92460542478E+02 0.  0.
         23    2    1    2    0    0  0.25360142947E+01  0.79791150782E+01  0.12174930092E+03  0.15259377067E+03  0.91607144511E+02 0.  0.
        -11    1    4    4    0    0  0.17119753000E+02  0.30500827649E+02  0.12078270452E+03  0.12574517144E+03  0.00000000000E+00 0.  1.
         11    1    4    4    0    0 -0.14583738706E+02 -0.22521712570E+02  0.96659640304E+00  0.26848599225E+02  0.00000000000E+00 0. -1.
        -11    1    3    3    0    0  0.42878643434E+02 -0.39798849863E+02  0.22692503827E+03  0.23434483034E+03  0.00000000000E+00 0.  1.
         11    1    3    3    0    0 -0.20785323098E+02  0.29114094482E+02  0.19913480162E+03  0.20232234026E+03  0.00000000000E+00 0. -1.
         -1    1    1    2    0  502 -0.24629334630E+02  0.27056403033E+01  0.78333214371E+02  0.82158487617E+02  0.00000000000E+00 0.  1.
<scales pt_clust_5="13000.00000" pt_clust_6="13000.00000" pt_clust_7="13000.00000" pt_clust_8="13000.00000" pt_clust_9="13000.00000"></scales>
<clustering>
<clus scale="   91.607">  5  6 -1 -1</clus>
<clus scale="   24.778">  5  9 -1 -1</clus>
<clus scale="   92.461">  7  8 -1 -1</clus>
<clus scale="   95.662">  1  7  2 -1</clus>
<clus scale="  122.783">  2  5  1 -1</clus>
</clustering>
</event>
<event>
 9    1  0.3312826E-006  0.2637888E+03  0.7546771E-02  0.1145604E+00
          1   -1    0    0  502    0 -0.00000000000E+00  0.00000000000E+00  0.59550762480E+02  0.59550762480E+02  0.00000000000E+00 0. -1.
         21   -1    0    0  501  502  0.00000000000E+00 -0.00000000000E+00 -0.54407256014E+03  0.54407256014E+03  0.00000000000E+00 0. -1.
         23    2    1    2    0    0 -0.21522493860E+02 -0.28312638518E+02 -0.13310610101E+03  0.16421745224E+03  0.89360585558E+02 0.  0.
         23    2    1    2    0    0 -0.75044711722E+02  0.23680948250E+02 -0.73482858573E+02  0.14513840662E+03  0.97328980803E+02 0.  0.
        -13    1    3    3    0    0 -0.39884270733E+01 -0.59598843294E+02 -0.74240453754E+02  0.95286802057E+02  0.00000000000E+00 0.  1.
         13    1    3    3    0    0 -0.17534066787E+02  0.31286204776E+02 -0.58865647255E+02  0.68930650180E+02  0.00000000000E+00 0. -1.
        -13    1    4    4    0    0 -0.33968135892E+02 -0.37446590055E+02 -0.21212102418E+02  0.54827316656E+02  0.00000000000E+00 0. -1.
         13    1    4    4    0    0 -0.41076575830E+02  0.61127538305E+02 -0.52270756156E+02  0.90311089962E+02  0.00000000000E+00 0.  1.
          1    1    1    2  501    0  0.96567205582E+02  0.46316902684E+01 -0.27793283808E+03  0.29426746376E+03  0.00000000000E+00 0. -1.
<scales pt_clust_5="13000.00000" pt_clust_6="13000.00000" pt_clust_7="13000.00000" pt_clust_8="13000.00000" pt_clust_9="13000.00000"></scales>
<clustering>
<clus scale="   89.361">  5  6 -1 -1</clus>
<clus scale="   96.178">  1  5  2 -1</clus>
<clus scale="   97.329">  7  8 -1 -1</clus>
<clus scale="   92.574">  7  9 -1 -1</clus>
<clus scale="  263.789">  2  5  1 -1</clus>
</clustering>
</event>
<event>
 9    1  0.3312826E-006  0.2257415E+03  0.7546771E-02  0.1165039E+00
          1   -1    0    0  502    0 -0.00000000000E+00  0.00000000000E+00  0.17202975020E+03  0.17202975020E+03  0.00000000000E+00 0. -1.
         21   -1    0    0  501  502  0.00000000000E+00 -0.00000000000E+00 -0.15977726432E+03  0.15977726432E+03  0.00000000000E+00 0.  1.
         23    2    1    2    0    0  0.28056452856E+02  0.20403226071E+02  0.38400006496E+02  0.10455625739E+03  0.90851495744E+02 0.  0.
         23    2    1    2    0    0 -0.16347585411E+02  0.19906037274E+02  0.74324988278E+02  0.11836246882E+03  0.88441937299E+02 0.  0.
        -11    1    3    3    0    0  0.11740466833E+01  0.50334335935E+02  0.21358381117E+01  0.50393308723E+02  0.00000000000E+00 0.  1.
         11    1    3    3    0    0  0.26882406172E+02 -0.29931109864E+02  0.36264168384E+02  0.54162948663E+02  0.00000000000E+00 0. -1.
        -13    1    4    4    0    0  0.11802337874E+02 -0.30707755627E+02  0.17664198504E+02  0.37340130473E+02  0.00000000000E+00 0. -1.
         13    1    4    4    0    0 -0.28149923285E+02  0.50613792902E+02  0.56660789775E+02  0.81022338344E+02  0.00000000000E+00 0.  1.
          1    1    1    2  501    0 -0.11708867444E+02 -0.40309263345E+02 -0.10047250890E+03  0.10888828832E+03  0.00000000000E+00 0. -1.
<scales pt_clust_5="13000.00000" pt_clust_6="13000.00000" pt_clust_7="13000.00000" pt_clust_8="13000.00000" pt_clust_9="13000.00000"></scales>
<clustering>
<clus scale="   88.442">  7  8 -1 -1</clus>
<clus scale="   41.975">  7  9 -1 -1</clus>
<clus scale="   90.851">  5  6 -1 -1</clus>
<clus scale="   97.249">  1  5  2 -1</clus>
<clus scale="  225.741">  2  5  1 -1</clus>
</clustering>
</event>
<event>
 9    1  0.3312826E-006  0.1964614E+03  0.7546771E-02  0.1181711E+00
         21   -1    0    0  501  502  0.00000000000E+00  0.00000000000E+00  0.13396701225E+03  0.13396701225E+03  0.00000000000E+00 0.  1.
          2   -1    0    0  502    0 -0.00000000000E+00 -0.00000000000E+00 -0.17163019130E+03  0.17163019130E+03  0.00000000000E+00 0. -1.
         23    2    1    2    0    0 -0.29217244192E+02  0.32569300026E+02 -0.41309022655E+02  0.10910193266E+03  0.91007635367E+02 0.  0.
         23    2    1    2    0    0  0.44987378628E+02 -0.79798599979E+02  0.39305079069E+02  0.13525080185E+03  0.91412304235E+02 0.  0.
        -11    1    3    3    0    0 -0.48792313038E+02  0.40172066339E+02 -0.49670663667E+00  0.63203887879E+02  0.00000000000E+00 0. -1.
         11    1    3    3    0    0  0.19575068846E+02 -0.76027663130E+01 -0.40812316018E+02  0.45898044781E+02  0.00000000000E+00 0.  1.
        -13    1    4    4    0    0  0.56487097403E+02 -0.84453774863E+01  0.16037970006E+02  0.59323966960E+02  0.00000000000E+00 0. -1.
         13    1    4    4    0    0 -0.11499718775E+02 -0.71353222493E+02  0.23267109062E+02  0.75926834888E+02  0.00000000000E+00 0.  1.
          2    1    1    2  501    0 -0.15770134437E+02  0.47229299953E+02 -0.35659235461E+02  0.61244469039E+02  0.00000000000E+00 0. -1.
<scales pt_clust_5="13000.00000" pt_clust_6="13000.00000" pt_clust_7="13000.00000" pt_clust_8="13000.00000" pt_clust_9="13000.00000"></scales>
<clustering>
<clus scale="   91.008">  5  6 -1 -1</clus>
<clus scale="   91.412">  7  8 -1 -1</clus>
<clus scale="   49.793">  7  9 -1 -1</clus>
<clus scale="  100.979">  2  5  1 -1</clus>
<clus scale="  196.461">  1  5  2 -1</clus>
</clustering>
</event>
<event>
 9    1  0.3312826E-006  0.1980766E+03  0.7546771E-02  0.1182578E+00
          3   -1    0    0  502    0 -0.00000000000E+00  0.00000000000E+00  0.28542598337E+03  0.28542598337E+03  0.00000000000E+00 0. -1.
         21   -1    0    0  501  502  0.00000000000E+00 -0.00000000000E+00 -0.76709055701E+02  0.76709055701E+02  0.00000000000E+00 0.  1.
         23    2    1    2    0    0 -0.29099942997E+01  0.74963450758E+01  0.84204661896E+02  0.12817424873E+03  0.96299271528E+02 0.  0.
         23    2    1    2    0    0 -0.66045525095E+02 -0.21233720113E+02  0.34747623229E+02  0.11993767786E+03  0.91459100125E+02 0.  0.
        -11    1    4    4    0    0 -0.43995950759E+02  0.15528340437E+02  0.55338026172E+02  0.72381421515E+02  0.00000000000E+00 0. -1.
         11    1    4    4    0    0 -0.22049574336E+02 -0.36762060550E+02 -0.20590402943E+02  0.47556256346E+02  0.00000000000E+00 0.  1.
        -13    1    3    3    0    0  0.34453923514E+02  0.34754481483E+02  0.54297555301E+02  0.73096999530E+02  0.00000000000E+00 0. -1.
         13    1    3    3    0    0 -0.37363917813E+02 -0.27258136408E+02  0.29907106595E+02  0.55077249202E+02  0.00000000000E+00 0.  1.
          3    1    1    2  501    0  0.68955519394E+02  0.13737375037E+02  0.89764642540E+02  0.11402311247E+03  0.00000000000E+00 0. -1.
<scales pt_clust_5="13000.00000" pt_clust_6="13000.00000" pt_clust_7="13000.00000" pt_clust_8="13000.00000" pt_clust_9="13000.00000"></scales>
<clustering>
<clus scale="   91.459">  5  6 -1 -1</clus>
<clus scale="   70.311">  5  9 -1 -1</clus>
<clus scale="   96.299">  7  8 -1 -1</clus>
<clus scale="   96.634">  1  7  2 -1</clus>
<clus scale="  198.077">  2  5  1 -1</clus>
</clustering>
</event>
<event>
 9    1  0.3312826E-006  0.2967753E+03  0.7546771E-02  0.1122193E+00
          2   -1    0    0  502    0 -0.00000000000E+00  0.00000000000E+00  0.30579609390E+03  0.30579609390E+03  0.00000000000E+00 0. -1.
         21   -1    0    0  501  502  0.00000000000E+00 -0.00000000000E+00 -0.17601026486E+03  0.17601026486E+03  0.00000000000E+00 0. -1.
         23    2    1    2    0    0  0.49204351629E+02 -0.47628165723E+02 -0.55645524491E+02  0.13186300917E+03  0.97989379024E+02 0.  0.
         23    2    1    2    0    0 -0.49655033523E+02  0.12595488235E+02  0.25307121675E+03  0.27376827031E+03  0.90993166783E+02 0.  0.
        -13    1    4    4    0    0  0.10475267184E+02  0.35939751163E+02  0.65849935511E+02  0.75747019367E+02  0.00000000000E+00 0.  1.
         13    1    4    4    0    0 -0.60130300707E+02 -0.23344262928E+02  0.18722128124E+03  0.19802125094E+03  0.00000000000E+00 0. -1.
        -13    1    3    3    0    0  0.61380996850E+02  0.46875559610E+01 -0.12151386488E+02  0.62747558907E+02  0.00000000000E+00 0.  1.
         13    1    3    3    0    0 -0.12176645220E+02 -0.52315721684E+02 -0.43494138002E+02  0.69115450261E+02  0.00000000000E+00 0. -1.
          2    1    1    2  501    0  0.45068189406E+00  0.35032677489E+02 -0.67639863228E+02  0.76175079283E+02  0.00000000000E+00 0. -1.
<scales pt_clust_5="13000.00000" pt_clust_6="13000.00000" pt_clust_7="13000.00000" pt_clust_8="13000.00000" pt_clust_9="13000.00000"></scales>
<clustering>
<clus scale="   90.993">  5  6 -1 -1</clus>
<clus scale="   35.036">  5  9 -1 -1</clus>
<clus scale="   97.989">  7  8 -1 -1</clus>
<clus scale="  119.547">  1  7  2 -1</clus>
<clus scale="  296.775">  2  5  1 -1</clus>
</clustering>
</event>
<event>
 9    1  0.3312826E-006  0.7787119E+03  0.7546771E-02  0.1005349E+00
         21   -1    0    0  501  502  0.00000000000E+00  0.00000000000E+00  0.40136711296E+03  0.40136711296E+03  0.00000000000E+00 0.  1.
          1   -1    0    0  502    0 -0.00000000000E+00 -0.00000000000E+00 -0.57204416981E+03  0.57204416981E+03  0.00000000000E+00 0. -1.
         23    2    1    2    0    0 -0.48178061407E+02 -0.12937408959E+03  0.16408399103E+02  0.17254103808E+03  0.10218803062E+03 0.  0.
         23    2    1    2    0    0 -0.86446278062E+02  0.42810860774E+03 -0.63649240023E+02  0.45072381172E+03  0.91382655308E+02 0.  0.
        -11    1    3    3    0    0 -0.18327621284E+02 -0.77274262430E+02 -0.41079087795E+02  0.89413113077E+02  0.00000000000E+00 0.  1.
         11    1    3    3    0    0 -0.29850440123E+02 -0.52099827160E+02  0.57487486898E+02  0.83127925004E+02  0.00000000000E+00 0. -1.
        -13    1    4    4    0    0 -0.30635963989E+02  0.22961560780E+03 -0.76972921074E+02  0.24410391273E+03  0.00000000000E+00 0. -1.
         13    1    4    4    0    0 -0.55810314073E+02  0.19849299994E+03  0.13323681052E+02  0.20661989899E+03  0.00000000000E+00 0.  1.
          1    1    1    2  501    0  0.13462433947E+03 -0.29873451815E+03 -0.12343621593E+03  0.35014643296E+03  0.00000000000E+00 0. -1.
<scales pt_clust_5="13000.00000" pt_clust_6="13000.00000" pt_clust_7="13000.00000" pt_clust_8="13000.00000" pt_clust_9="13000.00000"></scales>
<clustering>
<clus scale="   91.383">  7  8 -1 -1</clus>
<clus scale="  102.188">  5  6 -1 -1</clus>
<clus scale="  171.759">  2  5  1 -1</clus>
<clus scale="  377.598">  7  9 -1 -1</clus>
<clus scale="  778.712">  1  5  2 -1</clus>
</clustering>
</event>
<event>
 9    1  0.3312826E-006  0.4154615E+03  0.7546771E-02  0.1089650E+00
         21   -1    0    0  501  502  0.00000000000E+00  0.00000000000E+00  0.14273415832E+03  0.14273415832E+03  0.00000000000E+00 0. -1.
          1   -1    0    0  502    0 -0.00000000000E+00 -0.00000000000E+00 -0.46870806575E+03  0.46870806575E+03  0.00000000000E+00 0. -1.
         23    2    1    2    0    0 -0.29395725253E+02  0.24340185964E+02 -0.46349659027E+02  0.11064485350E+03  0.92937825446E+02 0.  0.
         23    2    1    2    0    0  0.12648815954E+02  0.37193353420E+02 -0.37452256418E+03  0.38646222384E+03  0.86847920505E+02 0.  0.
        -11    1    4    4    0    0  0.35437717760E+02  0.55545371186E+02 -0.24834102717E+03  0.25693264852E+03  0.00000000000E+00 0. -1.
         11    1    4    4    0    0 -0.22788901805E+02 -0.18352017765E+02 -0.12618153700E+03  0.12952957532E+03  0.00000000000E+00 0.  1.
        -13    1    3    3    0    0 -0.49527904116E+02  0.22728255812E+02 -0.63834523567E+02  0.83931122341E+02  0.00000000000E+00 0.  1.
         13    1    3    3    0    0  0.20132178863E+02  0.16119301527E+01  0.17484864540E+02  0.26713731161E+02  0.00000000000E+00 0. -1.
          1    1    1    2  501    0  0.16746909299E+02 -0.61533539385E+02  0.94898315769E+02  0.11433514672E+03  0.00000000000E+00 0. -1.
<scales pt_clust_5="13000.00000" pt_clust_6="13000.00000" pt_clust_7="13000.00000" pt_clust_8="13000.00000" pt_clust_9="13000.00000"></scales>
<clustering>
<clus scale="   86.848">  5  6 -1 -1</clus>
<clus scale="   63.772">  5  9 -1 -1</clus>
<clus scale="   92.938">  7  8 -1 -1</clus>
<clus scale="  100.469">  2  7  1 -1</clus>
<clus scale="  415.462">  1  5  2 -1</clus>
</clustering>
</event>
<event>
 9    1  0.3312826E-006  0.2679144E+03  0.7546771E-02  0.1117277E+00
          3   -1    0    0  502    0 -0.00000000000E+00  0.00000000000E+00  0.10525571134E+03  0.10525571134E+03  0.00000000000E+00 0. -1.
         21   -1    0    0  501  502  0.00000000000E+00 -0.00000000000E+00 -0.49602665576E+03  0.49602665576E+03  0.00000000000E+00 0.  1.
         23    2    1    2    0    0  0.11324819920E+03 -0.11032127428E+03 -0.20474207331E+03  0.27511544467E+03  0.93665645435E+02 0.  0.
         23    2    1    2    0    0  0.31426269463E+01  0.22156634066E+01 -0.15247406303E+02  0.92928940452E+02  0.91588860163E+02 0.  0.
        -13    1    3    3    0    0 -0.13086450206E+02 -0.22251517355E+02 -0.12175464710E+02  0.28541673821E+02  0.00000000000E+00 0. -1.
         13    1    3    3    0    0  0.12633464941E+03 -0.88069756926E+02 -0.19256660860E+03  0.24657377085E+03  0.00000000000E+00 0.  1.
        -13    1    4    4    0    0  0.38265957791E+02  0.13286379492E+02 -0.32810916450E+02  0.52128376571E+02  0.00000000000E+00 0.  1.
         13    1    4    4    0    0 -0.35123330845E+02 -0.11070716085E+02  0.17563510147E+02  0.40800563880E+02  0.00000000000E+00 0. -1.
          3    1    1    2  501    0 -0.11639082615E+03  0.10810561087E+03 -0.17078146481E+03  0.23323798198E+03  0.00000000000E+00 0. -1.
<scales pt_clust_5="13000.00000" pt_clust_6="13000.00000" pt_clust_7="13000.00000" pt_clust_8="13000.00000" pt_clust_9="13000.00000"></scales>
<clustering>
<clus scale="   91.589">  7  8 -1 -1</clus>
<clus scale="   93.666">  5  6 -1 -1</clus>
<clus scale="  158.851">  7  9 -1 -1</clus>
<clus scale="  183.764">  1  5  2 -1</clus>
<clus scale="  267.914">  2  5  1 -1</clus>
</clustering>
</event>
<event>
 9    1  0.3312826E-006  0.9322348E+03  0.7546771E-02  0.1002085E+00
          2   -1    0    0  502    0 -0.00000000000E+00  0.00000000000E+00  0.53023398116E+03  0.53023398116E+03  0.00000000000E+00 0. -1.
         21   -1    0    0  501  502  0.00000000000E+00 -0.00000000000E+00 -0.52552601210E+03  0.52552601210E+03  0.00000000000E+00 0. -1.
         23    2    1    2    0    0  0.58084586051E+02  0.27387919929E+01  0.51718880368E+02  0.12234063308E+03  0.94398452307E+02 0.  0.
         23    2    1    2    0    0  0.33541584369E+03  0.17507278623E+03 -0.24353539633E+03  0.45899189600E+03  0.90607961270E+02 0.  0.
        -13    1    3    3    0    0  0.37029834748E+02 -0.45223665474E+02  0.25617263944E+02  0.63817182580E+02  0.00000000000E+00 0.  1.
         13    1    3    3    0    0  0.21054751302E+02  0.47962457467E+02  0.26101616424E+02  0.58523450502E+02  0.00000000000E+00 0. -1.
        -13    1    4    4    0    0  0.26650899815E+02  0.47851639609E+02 -0.27833953495E+02  0.61439228848E+02  0.00000000000E+00 0.  1.
         13    1    4    4    0    0  0.30876494388E+03  0.12722114662E+03 -0.21570144284E+03  0.39755266715E+03  0.00000000000E+00 0. -1.
          2    1    1    2  501    0 -0.39350042974E+03 -0.17781157823E+03  0.19652448502E+03  0.47442746418E+03  0.00000000000E+00 0. -1.
<scales pt_clust_5="13000.00000" pt_clust_6="13000.00000" pt_clust_7="13000.00000" pt_clust_8="13000.00000" pt_clust_9="13000.00000"></scales>
<clustering>
<clus scale="   90.608">  7  8 -1 -1</clus>
<clus scale="   94.398">  5  6 -1 -1</clus>
<clus scale="  110.871">  1  5  2 -1</clus>
<clus scale="  391.227">  7  9 -1 -1</clus>
<clus scale="  932.235">  2  5  1 -1</clus>
</clustering>
</event>
<event>
 9    1  0.3312826E-006  0.1620503E+03  0.7546771E-02  0.1211854E+00
          2   -1    0    0  502    0 -0.00000000000E+00  0.00000000000E+00  0.13713049561E+03  0.13713049561E+03  0.00000000000E+00 0. -1.
         21   -1    0    0  501  502  0.00000000000E+00 -0.00000000000E+00 -0.15521387020E+03  0.15521387020E+03  0.00000000000E+00 0.  1.
         23    2    1    2    0    0  0.18410175566E+02  0.12779185554E+01  0.61687360470E+02  0.11172412525E+03  0.91303790065E+02 0.  0.
         23    2    1    2    0    0  0.15348035492E+02  0.38410982693E+02 -0.67415264267E+02  0.12707135304E+03  0.99455241798E+02 0.  0.
        -11    1    4    4    0    0 -0.38475264854E+02 -0.26936689892E+01 -0.34605276423E+02  0.51818211225E+02  0.00000000000E+00 0.  1.
         11    1    4    4    0    0  0.53823300346E+02  0.41104651682E+02 -0.32809987844E+02  0.75253141810E+02  0.00000000000E+00 0. -1.
        -13    1    3    3    0    0  0.18806938874E+02  0.34510699076E+02  0.67380136701E+02  0.78004949346E+02  0.00000000000E+00 0. -1.
         13    1    3    3    0    0 -0.39676330781E+00 -0.33232780521E+02 -0.56927762310E+01  0.33719175901E+02  0.00000000000E+00 0.  1.
          2    1    1    2  501    0 -0.33758211058E+02 -0.39688901248E+02 -0.12355470795E+02  0.53548887521E+02  0.00000000000E+00 0. -1.
<scales pt_clust_5="13000.00000" pt_clust_6="13000.00000" pt_clust_7="13000.00000" pt_clust_8="13000.00000" pt_clust_9="13000.00000"></scales>
<clustering>
<clus scale="   91.304">  7  8 -1 -1</clus>
<clus scale="   93.150">  1  7  2 -1</clus>
<clus scale="   99.455">  5  6 -1 -1</clus>
<clus scale="   47.143">  5  9 -1 -1</clus>
<clus scale="  162.050">  2  5  1 -1</clus>
</clustering>
</event>
<event>
 9    1  0.3312826E-006  0.4251430E+03  0.7546771E-02  0.1040902E+00
         21   -1    0    0  501  502  0.00000000000E+00  0.00000000000E+00  0.85976483848E+02  0.85976483848E+02  0.00000000000E+00 0.  1.
         -3   -1    0    0    0  501 -0.00000000000E+00 -0.00000000000E+00 -0.19486568314E+04  0.19486568314E+04  0.00000000000E+00 0.  1.
         23    2    1    2    0    0 -0.12035033004E+03 -0.32916648998E+03 -0.11405247621E+04  0.11966265816E+04  0.91014629952E+02 0.  0.
         23    2    1    2    0    0 -0.44456313388E+02  0.69342644711E+02 -0.22664560053E+03  0.25474023753E+03  0.82095031545E+02 0.  0.
        -11    1    4    4    0    0 -0.23094449879E+02  0.86052924828E+02 -0.16980720337E+03  0.19176273309E+03  0.00000000000E+00 0. -1.
         11    1    4    4    0    0 -0.21361863510E+02 -0.16710280117E+02 -0.56838397156E+02  0.62977504440E+02  0.00000000000E+00 0.  1.
        -11    1    3    3    0    0 -0.12957552398E+03 -0.26167902997E+03 -0.97009015639E+03  0.10130847164E+04  0.00000000000E+00 0.  1.
         11    1    3    3    0    0  0.92251939394E+01 -0.67487460010E+02 -0.17043460568E+03  0.18354186518E+03  0.00000000000E+00 0. -1.
         -3    1    1    2    0  502  0.16480664343E+03  0.25982384527E+03 -0.49550998500E+03  0.58326649614E+03  0.00000000000E+00 0.  1.
<scales pt_clust_5="13000.00000" pt_clust_6="13000.00000" pt_clust_7="13000.00000" pt_clust_8="13000.00000" pt_clust_9="13000.00000"></scales>
<clustering>
<clus scale="   82.095">  5  6 -1 -1</clus>
<clus scale="   91.015">  7  8 -1 -1</clus>
<clus scale="  307.685">  5  9 -1 -1</clus>
<clus scale="  362.103">  2  7  1 -1</clus>
<clus scale="  425.143">  1  5  2 -1</clus>
</clustering>
</event>
<event>
 9    1  0.3312826E-006  0.2663851E+03  0.7546771E-02  0.1134435E+00
         21   -1    0    0  501  502  0.00000000000E+00  0.00000000000E+00  0.33384070427E+03  0.33384070427E+03  0.00000000000E+00 0. -1.
         -1   -1    0    0    0  501 -0.00000000000E+00 -0.00000000000E+00 -0.15645473679E+03  0.15645473679E+03  0.00000000000E+00 0.  1.
         23    2    1    2    0    0  0.59303354435E+02 -0.56142531106E+02 -0.57526094420E+02  0.13512690296E+03  0.91000861089E+02 0.  0.
         23    2    1    2    0    0 -0.72147675358E+02 -0.42387692919E+02  0.22346877205E+03  0.25514788768E+03  0.90333542696E+02 0.  0.
        -11    1    4    4    0    0 -0.40749745947E+02 -0.12559564206E+02  0.20266554861E+03  0.20710289482E+03  0.00000000000E+00 0. -1.
         11    1    4    4    0    0 -0.31397929411E+02 -0.29828128713E+02  0.20803223438E+02  0.48044992863E+02  0.00000000000E+00 0.  1.
        -13    1    3    3    0    0  0.37635929364E+02  0.16929967796E+02 -0.29288110770E+01  0.41372272393E+02  0.00000000000E+00 0.  1.
         13    1    3    3    0    0  0.21667425071E+02 -0.73072498902E+02 -0.54597283343E+02  0.93754630570E+02  0.00000000000E+00 0. -1.
         -1    1    1    2    0  502  0.12844320923E+02  0.98530224025E+02  0.11443289851E+02  0.10002065041E+03  0.00000000000E+00 0.  1.
<scales pt_clust_5="13000.00000" pt_clust_6="13000.00000" pt_clust_7="13000.00000" pt_clust_8="13000.00000" pt_clust_9="13000.00000"></scales>
<clustering>
<clus scale="   90.334">  5  6 -1 -1</clus>
<clus scale="   91.001">  7  8 -1 -1</clus>
<clus scale="   99.364">  5  9 -1 -1</clus>
<clus scale="  122.270">  2  7  1 -1</clus>
<clus scale="  266.385">  1  5  2 -1</clus>
</clustering>
</event>
<event>
 9    1  0.3312826E-006  0.3158286E+03  0.7546771E-02  0.1118750E+00
         -3   -1    0    0    0  501 -0.00000000000E+00  0.00000000000E+00  0.36725417413E+03  0.36725417413E+03  0.00000000000E+00 0.  1.
         21   -1    0    0  501  502  0.00000000000E+00 -0.00000000000E+00 -0.20976901620E+03  0.20976901620E+03  0.00000000000E+00 0.  1.
         23    2    1    2    0    0 -0.26103954739E+02  0.51907544893E+02  0.22896949242E+03  0.25320582213E+03  0.91161122358E+02 0.  0.
         23    2    1    2    0    0 -0.10155662978E+03 -0.10189630135E+03 -0.25129931755E+01  0.17034702405E+03  0.91187653704E+02 0.  0.
        -13    1    3    3    0    0  0.21176087595E+02  0.53181358797E+02  0.15676920292E+03  0.16689297946E+03  0.00000000000E+00 0. -1.
         13    1    3    3    0    0 -0.47280042334E+02 -0.12738139034E+01  0.72200289501E+02  0.86312842665E+02  0.00000000000E+00 0.  1.
        -13    1    4    4    0    0 -0.54587231138E+02 -0.75853367557E+02 -0.43213692781E+02  0.10296078096E+03  0.00000000000E+00 0.  1.
         13    1    4    4    0    0 -0.46969398642E+02 -0.26042933795E+02  0.40700699605E+02  0.67386243090E+02  0.00000000000E+00 0. -1.
         -3    1    1    2    0  502  0.12766058452E+03  0.49988756458E+02 -0.68971341315E+02  0.15347034415E+03  0.00000000000E+00 0.  1.
<scales pt_clust_5="13000.00000" pt_clust_6="13000.00000" pt_clust_7="13000.00000" pt_clust_8="13000.00000" pt_clust_9="13000.00000"></scales>
<clustering>
<clus scale="   91.161">  5  6 -1 -1</clus>
<clus scale="   91.188">  7  8 -1 -1</clus>
<clus scale="  108.103">  1  5  2 -1</clus>
<clus scale="  136.677">  7  9 -1 -1</clus>
<clus scale="  315.829">  2  5  1 -1</clus>
</clustering>
</event>
<event>
 9    1  0.3312826E-006  0.3636120E+03  0.7546771E-02  0.1085335E+00
         -1   -1    0    0    0  501 -0.00000000000E+00  0.00000000000E+00  0.10036897636E+03  0.10036897636E+03  0.00000000000E+00 0.  1.
         21   -1    0    0  501  502  0.00000000000E+00 -0.00000000000E+00 -0.97464657519E+03  0.97464657519E+03  0.00000000000E+00 0.  1.
         23    2    1    2    0    0 -0.14107039731E+03 -0.10216877351E+02 -0.58998954888E+03  0.61346014357E+03  0.90776860387E+02 0.  0.
         23    2    1    2    0    0 -0.49615180261E+02 -0.50877761445E+02 -0.10289897614E+01  0.11467035560E+03  0.89988993286E+02 0.  0.
        -11    1    4    4    0    0 -0.71649258402E+02 -0.57139877423E+02  0.12349694822E+01  0.91652097472E+02  0.00000000000E+00 0.  1.
         11    1    4    4    0    0  0.22034078140E+02  0.62621159779E+01 -0.22639592436E+01  0.23018258133E+02  0.00000000000E+00 0. -1.
        -11    1    3    3    0    0 -0.37208922540E+02  0.16430979069E+02 -0.58429971094E+02  0.71193697135E+02  0.00000000000E+00 0. -1.
         11    1    3    3    0    0 -0.10386147477E+03 -0.26647856421E+02 -0.53155957779E+03  0.54226644644E+03  0.00000000000E+00 0.  1.
         -1    1    1    2    0  502  0.19068557757E+03  0.61094638797E+02 -0.28325906019E+03  0.34688505238E+03  0.00000000000E+00 0.  1.
<scales pt_clust_5="13000.00000" pt_clust_6="13000.00000" pt_clust_7="13000.00000" pt_clust_8="13000.00000" pt_clust_9="13000.00000"></scales>
<clustering>
<clus scale="   89.989">  5  6 -1 -1</clus>
<clus scale="   90.777">  7  8 -1 -1</clus>
<clus scale="  168.065">  1  7  2 -1</clus>
<clus scale="  151.368">  5  9 -1 -1</clus>
<clus scale="  363.612">  2  5  1 -1</clus>
</clustering>
</event>
<event>
 9    1  0.3312826E-006  0.2507322E+03  0.7546771E-02  0.1140023E+00
          2   -1    0    0  502    0 -0.00000000000E+00  0.00000000000E+00  0.69015380468E+02  0.69015380468E+02  0.00000000000E+00 0. -1.
         21   -1    0    0  501  502  0.00000000000E+00 -0.00000000000E+00 -0.65681508400E+03  0.65681508400E+03  0.00000000000E+00 0. -1.
         23    2    1    2    0    0 -0.88012744214E+02 -0.23284619047E+02 -0.59814587832E+02  0.14133503274E+03  0.90052151195E+02 0.  0.
         23    2    1    2    0    0  0.12300722110E+02 -0.66347375535E+02 -0.14775513420E+03  0.18657453057E+03  0.91788854281E+02 0.  0.
        -13    1    4    4    0    0 -0.24521373605E+02 -0.51143300587E+02 -0.13211791824E+03  0.14377788174E+03  0.00000000000E+00 0. -1.
         13    1    4    4    0    0  0.36822095715E+02 -0.15204074948E+02 -0.15637215961E+02  0.42796648828E+02  0.00000000000E+00 0.  1.
        -13    1    3    3    0    0 -0.25912626917E+02  0.29130010451E+02 -0.43564940269E+02  0.58463029029E+02  0.00000000000E+00 0.  1.
         13    1    3    3    0    0 -0.62100117298E+02 -0.52414629498E+02 -0.16249647562E+02  0.82872003715E+02  0.00000000000E+00 0. -1.
          2    1    1    2  501    0  0.75712022104E+02  0.89631994582E+02 -0.38022998150E+03  0.39792090115E+03  0.00000000000E+00 0. -1.
<scales pt_clust_5="13000.00000" pt_clust_6="13000.00000" pt_clust_7="13000.00000" pt_clust_8="13000.00000" pt_clust_9="13000.00000"></scales>
<clustering>
<clus scale="   90.052">  7  8 -1 -1</clus>
<clus scale="   91.789">  5  6 -1 -1</clus>
<clus scale="  117.330">  5  9 -1 -1</clus>
<clus scale="  128.054">  1  7  2 -1</clus>
<clus scale="  250.732">  2  5  1 -1</clus>
</clustering>
</event>
<event>
 9    1  0.3312826E-006  0.1799840E+03  0.7546771E-02  0.1193660E+00
         21   -1    0    0  501  502  0.00000000000E+00  0.00000000000E+00  0.53984650017E+03  0.53984650017E+03  0.00000000000E+00 0.  1.
         -4   -1    0    0    0  501 -0.00000000000E+00 -0.00000000000E+00 -0.36993753407E+02  0.36993753407E+02  0.00000000000E+00 0.  1.
         23    2    1    2    0    0 -0.33410976321E+00 -0.43146493205E+02  0.14935408950E+03  0.18015959590E+03  0.91044518984E+02 0.  0.
         23    2    1    2    0    0  0.54404190956E+01 -0.28337663631E+02  0.11672897519E+03  0.14930252319E+03  0.88504058910E+02 0.  0.
        -11    1    4    4    0    0  0.14313198320E+02 -0.57901668712E+02  0.59316017273E+02  0.84118135921E+02  0.00000000000E+00 0.  1.
         11    1    4    4    0    0 -0.88727792242E+01  0.29564005081E+02  0.57412957915E+02  0.65184387272E+02  0.00000000000E+00 0. -1.
        -13    1    3    3    0    0  0.29148669802E+02  0.61250235727E+01  0.13563224067E+02  0.32727998902E+02  0.00000000000E+00 0. -1.
         13    1    3    3    0    0 -0.29482779566E+02 -0.49271516778E+02  0.13579086544E+03  0.14743159700E+03  0.00000000000E+00 0.  1.
         -4    1    1    2    0  502 -0.51063093324E+01  0.71484156836E+02  0.23676968207E+03  0.24737813448E+03  0.00000000000E+00 0.  1.
<scales pt_clust_5="13000.00000" pt_clust_6="13000.00000" pt_clust_7="13000.00000" pt_clust_8="13000.00000" pt_clust_9="13000.00000"></scales>
<clustering>
<clus scale="   88.504">  5  6 -1 -1</clus>
<clus scale="   71.666">  5  9 -1 -1</clus>
<clus scale="   91.045">  7  8 -1 -1</clus>
<clus scale="  100.751">  2  7  1 -1</clus>
<clus scale="  179.984">  1  5  2 -1</clus>
</clustering>
</event>
<event>
 9    1  0.3312826E-006  0.5233586E+03  0.7546771E-02  0.1022184E+00
         21   -1    0    0  501  502  0.00000000000E+00  0.00000000000E+00  0.15235686395E+04  0.15235686395E+04  0.00000000000E+00 0.  1.
          1   -1    0    0  502    0 -0.00000000000E+00 -0.00000000000E+00 -0.17619724781E+03  0.17619724781E+03  0.00000000000E+00 0. -1.
         23    2    1    2    0    0 -0.12102705801E+03 -0.30121969843E+03  0.10385729496E+04  0.10920976626E+04  0.93073505854E+02 0.  0.
         23    2    1    2    0    0  0.57631943534E+02 -0.38908074969E+02 -0.34845495443E+02  0.12002388857E+03  0.91412504954E+02 0.  0.
        -11    1    4    4    0    0  0.76328913304E+01 -0.58244723931E+02 -0.30634277709E+02  0.66250795215E+02  0.00000000000E+00 0.  1.
         11    1    4    4    0    0  0.49999052204E+02  0.19336648962E+02 -0.42112177342E+01  0.53773093357E+02  0.00000000000E+00 0. -1.
        -13    1    3    3    0    0 -0.61905234819E+02 -0.16822501087E+03  0.71790879656E+03  0.73994929053E+03  0.00000000000E+00 0.  1.
         13    1    3    3    0    0 -0.59121823189E+02 -0.13299468756E+03  0.32066415307E+03  0.35214837208E+03  0.00000000000E+00 0. -1.
          1    1    1    2  501    0  0.63395114473E+02  0.34012777339E+03  0.34364393751E+03  0.48764433613E+03  0.00000000000E+00 0. -1.
<scales pt_clust_5="13000.00000" pt_clust_6="13000.00000" pt_clust_7="13000.00000" pt_clust_8="13000.00000" pt_clust_9="13000.00000"></scales>
<clustering>
<clus scale="   91.413">  5  6 -1 -1</clus>
<clus scale="   93.074">  7  8 -1 -1</clus>
<clus scale="  337.703">  2  7  1 -1</clus>
<clus scale="  195.061">  5  9 -1 -1</clus>
<clus scale="  523.359">  1  5  2 -1</clus>
</clustering>
</event>
<event>
 9    1  0.3312826E-006  0.1443492E+03  0.7546771E-02  0.1227977E+00
         21   -1    0    0  501  502  0.00000000000E+00  0.00000000000E+00  0.16144462211E+03  0.16144462211E+03  0.00000000000E+00 0.  1.
          1   -1    0    0  502    0 -0.00000000000E+00 -0.00000000000E+00 -0.21587352258E+03  0.21587352258E+03  0.00000000000E+00 0. -1.
         23    2    1    2    0    0  0.21550472731E+02  0.11102958766E+02 -0.16878234435E+03  0.19316224800E+03  0.90755031380E+02 0.  0.
         23    2    1    2    0    0 -0.22529373361E+02 -0.49734143670E+02  0.79044672835E+02  0.13181054345E+03  0.90249107207E+02 0.  0.
        -11    1    4    4    0    0 -0.39478109007E+02 -0.68402700271E+02  0.50588514411E+02  0.93790448797E+02  0.00000000000E+00 0.  1.
         11    1    4    4    0    0  0.16948735646E+02  0.18668556601E+02  0.28456158424E+02  0.38020094658E+02  0.00000000000E+00 0. -1.
        -11    1    3    3    0    0 -0.12195191540E+02 -0.32314742056E+02 -0.38343793289E+02  0.51606314871E+02  0.00000000000E+00 0.  1.
         11    1    3    3    0    0  0.33745664271E+02  0.43417700822E+02 -0.13043855106E+03  0.14155593313E+03  0.00000000000E+00 0. -1.
          1    1    1    2  501    0  0.97890062979E+00  0.38631184904E+02  0.35308771043E+02  0.52345353243E+02  0.00000000000E+00 0. -1.
<scales pt_clust_5="13000.00000" pt_clust_6="13000.00000" pt_clust_7="13000.00000" pt_clust_8="13000.00000" pt_clust_9="13000.00000"></scales>
<clustering>
<clus scale="   90.249">  5  6 -1 -1</clus>
<clus scale="   38.644">  5  9 -1 -1</clus>
<clus scale="   90.755">  7  8 -1 -1</clus>
<clus scale="   93.937">  2  7  1 -1</clus>
<clus scale="  144.349">  1  5  2 -1</clus>
</clustering>
</event>
<event>
 9    1  0.3312826E-006  0.8538409E+03  0.7546771E-02  0.1015963E+00
          2   -1    0    0  502    0 -0.00000000000E+00  0.00000000000E+00  0.41838959425E+03  0.41838959425E+03  0.00000000000E+00 0. -1.
         21   -1    0    0  501  502  0.00000000000E+00 -0.00000000000E+00 -0.94603815926E+03  0.94603815926E+03  0.00000000000E+00 0. -1.
         23    2    1    2    0    0  0.23497206001E+02 -0.76512683490E+01  0.21384695775E+03  0.23356086061E+03  0.90606256250E+02 0.  0.
         23    2    1    2    0    0  0.35464362225E+03  0.17820376281E+03 -0.52027815950E+03  0.66074375887E+03  0.91456392587E+02 0.  0.
        -11    1    3    3    0    0  0.45680869216E+02  0.14942768777E+02  0.18354602586E+03  0.18973447699E+03  0.00000000000E+00 0. -1.
         11    1    3    3    0    0 -0.22183663215E+02 -0.22594037126E+02  0.30300931890E+02  0.43826383614E+02  0.00000000000E+00 0.  1.
        -11    1    4    4    0    0  0.27427736038E+03  0.17791084258E+03 -0.41917543780E+03  0.53159043067E+03  0.00000000000E+00 0. -1.
         11    1    4    4    0    0  0.80366261868E+02  0.29292023229E+00 -0.10110272170E+03  0.12915332820E+03  0.00000000000E+00 0.  1.
          2    1    1    2  501    0 -0.37814082825E+03 -0.17055249446E+03 -0.22121736325E+03  0.47012313404E+03  0.00000000000E+00 0. -1.
<scales pt_clust_5="13000.00000" pt_clust_6="13000.00000" pt_clust_7="13000.00000" pt_clust_8="13000.00000" pt_clust_9="13000.00000"></scales>
<clustering>
<clus scale="   90.606">  5  6 -1 -1</clus>
<clus scale="   91.456">  7  8 -1 -1</clus>
<clus scale="   93.916">  1  5  2 -1</clus>
<clus scale="  403.283">  7  9 -1 -1</clus>
<clus scale="  853.841">  2  5  1 -1</clus>
</clustering>
</event>
<event>
 9    1  0.3312826E-006  0.2248302E+03  0.7546771E-02  0.1147243E+00
         21   -1    0    0  501  502  0.00000000000E+00  0.00000000000E+00  0.16503833377E+03  0.16503833377E+03  0.00000000000E+00 0.  1.
         -1   -1    0    0    0  501 -0.00000000000E+00 -0.00000000000E+00 -0.25831644303E+03  0.25831644303E+03  0.00000000000E+00 0.  1.
         23    2    1    2    0    0  0.84862717757E+02  0.82303945816E+02  0.49085246631E+02  0.15724210796E+03  0.91324140927E+02 0.  0.
         23    2    1    2    0    0 -0.79099710431E+02  0.66978898790E+01 -0.12507388557E+03  0.17526408715E+03  0.93661077698E+02 0.  0.
        -11    1    4    4    0    0 -0.19746176084E+02  0.45896635480E+02 -0.37661108740E+02  0.62568136698E+02  0.00000000000E+00 0.  1.
         11    1    4    4    0    0 -0.59353534347E+02 -0.39198745601E+02 -0.87412776830E+02  0.11269595046E+03  0.00000000000E+00 0. -1.
        -13    1    3    3    0    0  0.80156750155E+02  0.28117011369E+02  0.56973445058E+02  0.10228218010E+03  0.00000000000E+00 0.  1.
         13    1    3    3    0    0  0.47059676012E+01  0.54186934447E+02 -0.78881984271E+01  0.54959927859E+02  0.00000000000E+00 0. -1.
         -1    1    1    2    0  502 -0.57630073259E+01 -0.89001835695E+02 -0.17289470316E+02  0.90848581686E+02  0.00000000000E+00 0.  1.
<scales pt_clust_5="13000.00000" pt_clust_6="13000.00000" pt_clust_7="13000.00000" pt_clust_8="13000.00000" pt_clust_9="13000.00000"></scales>
<clustering>
<clus scale="   91.324">  7  8 -1 -1</clus>
<clus scale="   93.661">  5  6 -1 -1</clus>
<clus scale="   89.188">  5  9 -1 -1</clus>
<clus scale="  149.385">  2  7  1 -1</clus>
<clus scale="  224.830">  1  5  2 -1</clus>
</clustering>
</event>
<event>
 9    1  0.3312826E-006  0.5474031E+03  0.7546771E-02  0.1031508E+00
         21   -1    0    0  501  502  0.00000000000E+00  0.00000000000E+00  0.77656168828E+03  0.77656168828E+03  0.00000000000E+00 0. -1.
          2   -1    0    0  502    0 -0.00000000000E+00 -0.00000000000E+00 -0.35607104800E+03  0.35607104800E+03  0.00000000000E+00 0. -1.
         23    2    1    2    0    0  0.13271608202E+03  0.15563309233E+03 -0.20375479008E+03  0.30237219836E+03  0.89876103621E+02 0.  0.
         23    2    1    2    0    0  0.86328882715E+02  0.34271847352E+02 -0.11946702785E+02  0.13112892445E+03  0.91786903246E+02 0.  0.
        -11    1    4    4    0    0  0.13572405918E+02  0.49705880478E+02 -0.22097167985E+02  0.56063977646E+02  0.00000000000E+00 0. -1.
         11    1    4    4    0    0  0.72756476798E+02 -0.15434033126E+02  0.10150465200E+02  0.75064946801E+02  0.00000000000E+00 0.  1.
        -13    1    3    3    0    0  0.57083527246E+02  0.66643601645E+02 -0.29450319186E+02  0.92559278429E+02  0.00000000000E+00 0.  1.
         13    1    3    3    0    0  0.75632554773E+02  0.88989490688E+02 -0.17430447090E+03  0.20981291993E+03  0.00000000000E+00 0. -1.
          2    1    1    2  501    0 -0.21904496473E+03 -0.18990493968E+03  0.63619213314E+03  0.69913161348E+03  0.00000000000E+00 0. -1.
<scales pt_clust_5="13000.00000" pt_clust_6="13000.00000" pt_clust_7="13000.00000" pt_clust_8="13000.00000" pt_clust_9="13000.00000"></scales>
<clustering>
<clus scale="   89.876">  7  8 -1 -1</clus>
<clus scale="   91.787">  5  6 -1 -1</clus>
<clus scale="  223.412">  2  7  1 -1</clus>
<clus scale="  228.315">  5  9 -1 -1</clus>
<clus scale="  547.403">  1  5  2 -1</clus>
</clustering>
</event>
<event>
 9    1  0.3312826E-006  0.3183696E+03  0.7546771E-02  0.1090782E+00
         21   -1    0    0  501  502  0.00000000000E+00  0.00000000000E+00  0.21764959529E+03  0.21764959529E+03  0.00000000000E+00 0. -1.
          1   -1    0    0  502    0 -0.00000000000E+00 -0.00000000000E+00 -0.33073512858E+03  0.33073512858E+03  0.00000000000E+00 0. -1.
         23    2    1    2    0    0 -0.49290662299E+02 -0.19054831231E+03 -0.66253438522E+02  0.22658906135E+03  0.90635842215E+02 0.  0.
         23    2    1    2    0    0  0.36836979644E+02  0.18709710349E+02 -0.99991655692E+02  0.14149164634E+03  0.91184090961E+02 0.  0.
        -11    1    4    4    0    0  0.30000860060E+02 -0.34858194764E+02 -0.42624997840E+02  0.62705946986E+02  0.00000000000E+00 0. -1.
         11    1    4    4    0    0  0.68361195838E+01  0.53567905112E+02 -0.57366657852E+02  0.78785699351E+02  0.00000000000E+00 0.  1.
        -13    1    3    3    0    0 -0.58719044939E+02 -0.86484883836E+02 -0.62994394388E+02  0.12204857678E+03  0.00000000000E+00 0. -1.
         13    1    3    3    0    0  0.94283826404E+01 -0.10406342847E+03 -0.32590441342E+01  0.10454048456E+03  0.00000000000E+00 0.  1.
          1    1    1    2  501    0  0.12453682655E+02  0.17183860196E+03  0.53159560929E+02  0.18030401619E+03  0.00000000000E+00 0. -1.
<scales pt_clust_5="13000.00000" pt_clust_6="13000.00000" pt_clust_7="13000.00000" pt_clust_8="13000.00000" pt_clust_9="13000.00000"></scales>
<clustering>
<clus scale="   90.636">  7  8 -1 -1</clus>
<clus scale="   91.184">  5  6 -1 -1</clus>
<clus scale="  172.289">  5  9 -1 -1</clus>
<clus scale="  216.687">  2  7  1 -1</clus>
<clus scale="  318.370">  1  5  2 -1</clus>
</clustering>
</event>
<event>
 9    1  0.3312826E-006  0.2903847E+03  0.7546771E-02  0.1105222E+00
         21   -1    0    0  501  502  0.00000000000E+00  0.00000000000E+00  0.67329480705E+02  0.67329480705E+02  0.00000000000E+00 0. -1.
          1   -1    0    0  502    0 -0.00000000000E+00 -0.00000000000E+00 -0.12566493890E+04  0.12566493890E+04  0.00000000000E+00 0. -1.
         23    2    1    2    0    0  0.80620929726E+02  0.15288404037E+03 -0.87232539133E+03  0.89408491811E+03  0.92536416213E+02 0.  0.
         23    2    1    2    0    0 -0.33519503079E+02 -0.11487996391E+03 -0.33345831296E+03  0.36717305561E+03  0.96439841826E+02 0.  0.
        -13    1    4    4    0    0 -0.50919822004E+02 -0.59046418071E+02 -0.10169561760E+03  0.12814564526E+03  0.00000000000E+00 0.  1.
         13    1    4    4    0    0  0.17400318925E+02 -0.55833545842E+02 -0.23176269536E+03  0.23902741036E+03  0.00000000000E+00 0. -1.
        -13    1    3    3    0    0 -0.20518113463E+02  0.26964381959E+02 -0.12535838516E+03  0.12985682733E+03  0.00000000000E+00 0.  1.
         13    1    3    3    0    0  0.10113904319E+03  0.12591965841E+03 -0.74696700617E+03  0.76422809078E+03  0.00000000000E+00 0. -1.
          1    1    1    2  501    0 -0.47101426648E+02 -0.38004076455E+02  0.16463795962E+02  0.62720896015E+02  0.00000000000E+00 0. -1.
<scales pt_clust_5="13000.00000" pt_clust_6="13000.00000" pt_clust_7="13000.00000" pt_clust_8="13000.00000" pt_clust_9="13000.00000"></scales>
<clustering>
<clus scale="   92.536">  7  8 -1 -1</clus>
<clus scale="   96.440">  5  6 -1 -1</clus>
<clus scale="   60.522">  5  9 -1 -1</clus>
<clus scale="  196.052">  2  7  1 -1</clus>
<clus scale="  290.385">  1  5  2 -1</clus>
</clustering>
</event>
<event>
 9    1  0.3312826E-006  0.4379724E+03  0.7546771E-02  0.1064084E+00
          1   -1    0    0  502    0 -0.00000000000E+00  0.00000000000E+00  0.82371598303E+02  0.82371598303E+02  0.00000000000E+00 0. -1.
         21   -1    0    0  501  502  0.00000000000E+00 -0.00000000000E+00 -0.11317320708E+04  0.11317320708E+04  0.00000000000E+00 0. -1.
         23    2    1    2    0    0 -0.13544703458E+00  0.14532765466E+03 -0.33039669834E+03  0.37224336443E+03  0.91010980264E+02 0.  0.
         23    2    1    2    0    0 -0.11937204240E+03 -0.68982724849E+01 -0.69584494149E+02  0.16722100610E+03  0.93933978862E+02 0.  0.
        -11    1    3    3    0    0 -0.34458454142E+02  0.12170623196E+03 -0.21367441195E+03  0.24830736252E+03  0.00000000000E+00 0. -1.
         11    1    3    3    0    0  0.34323007108E+02  0.23621422696E+02 -0.11672228639E+03  0.12393600190E+03  0.00000000000E+00 0.  1.
        -13    1    4    4    0    0 -0.11654949199E+02  0.30118038951E+02  0.25589691163E+01  0.32395716291E+02  0.00000000000E+00 0.  1.
         13    1    4    4    0    0 -0.10771709320E+03 -0.37016311435E+02 -0.72143463266E+02  0.13482528981E+03  0.00000000000E+00 0. -1.
          1    1    1    2  501    0  0.11950748944E+03 -0.13842938217E+03 -0.64937927996E+03  0.67463929853E+03  0.00000000000E+00 0. -1.
<scales pt_clust_5="13000.00000" pt_clust_6="13000.00000" pt_clust_7="13000.00000" pt_clust_8="13000.00000" pt_clust_9="13000.00000"></scales>
<clustering>
<clus scale="   91.011">  5  6 -1 -1</clus>
<clus scale="   93.934">  7  8 -1 -1</clus>
<clus scale="  171.474">  1  5  2 -1</clus>
<clus scale="  161.432">  7  9 -1 -1</clus>
<clus scale="  437.972">  2  5  1 -1</clus>
</clustering>
</event>
<event>
 9    1  0.3312826E-006  0.2748317E+03  0.7546771E-02  0.1132398E+00
          4   -1    0    0  502    0 -0.00000000000E+00  0.00000000000E+00  0.10324558686E+03  0.10324558686E+03  0.00000000000E+00 0. -1.
         21   -1    0    0  501  502  0.00000000000E+00 -0.00000000000E+00 -0.39581280684E+03  0.39581280684E+03  0.00000000000E+00 0. -1.
         23    2    1    2    0    0 -0.63850543428E+02 -0.35224892483E+02 -0.34351077862E+02  0.12195360259E+03  0.91515024381E+02 0.  0.
         23    2    1    2    0    0  0.15127584260E+03  0.47162189120E+02 -0.20033743671E+03  0.27157931302E+03  0.92258235806E+02 0.  0.
        -13    1    3    3    0    0 -0.61966411520E+02 -0.44958982858E+01 -0.56539327406E+02  0.84004433226E+02  0.00000000000E+00 0.  1.
         13    1    3    3    0    0 -0.18841319086E+01 -0.30728994198E+02  0.22188249544E+02  0.37949169362E+02  0.00000000000E+00 0. -1.
        -13    1    4    4    0    0  0.73241559080E+01  0.33751119417E+02 -0.18205842694E+02  0.39041439905E+02  0.00000000000E+00 0.  1.
         13    1    4    4    0    0  0.14395168669E+03  0.13411069702E+02 -0.18213159402E+03  0.23253787311E+03  0.00000000000E+00 0. -1.
          4    1    1    2  501    0 -0.87425299171E+02 -0.11937296636E+02 -0.57878705410E+02  0.10552547809E+03  0.00000000000E+00 0. -1.
<scales pt_clust_5="13000.00000" pt_clust_6="13000.00000" pt_clust_7="13000.00000" pt_clust_8="13000.00000" pt_clust_9="13000.00000"></scales>
<clustering>
<clus scale="   91.515">  5  6 -1 -1</clus>
<clus scale="   92.258">  7  8 -1 -1</clus>
<clus scale="   88.237">  7  9 -1 -1</clus>
<clus scale="  117.016">  1  5  2 -1</clus>
<clus scale="  274.832">  2  5  1 -1</clus>
</clustering>
</event>
<event>
 9    1  0.3312826E-006  0.1731332E+03  0.7546771E-02  0.1207046E+00
         21   -1    0    0  501  502  0.00000000000E+00  0.00000000000E+00  0.11646917079E+03  0.11646917079E+03  0.00000000000E+00 0. -1.
          1   -1    0    0  502    0 -0.00000000000E+00 -0.00000000000E+00 -0.17760434632E+03  0.17760434632E+03  0.00000000000E+00 0. -1.
         23    2    1    2    0    0  0.10912484797E+02 -0.61442839331E+01 -0.84219720429E+02  0.11940808840E+03  0.83716758873E+02 0.  0.
         23    2    1    2    0    0  0.36721618168E+02 -0.26848199998E+02 -0.17963914898E+02  0.10365495192E+03  0.91391157865E+02 0.  0.
        -11    1    4    4    0    0 -0.29722472812E+02 -0.10039431228E+02  0.41338746264E+01  0.31643395660E+02  0.00000000000E+00 0.  1.
         11    1    4    4    0    0  0.66444090980E+02 -0.16808768770E+02 -0.22097789524E+02  0.72011556265E+02  0.00000000000E+00 0. -1.
        -13    1    3    3    0    0 -0.21258788096E+01  0.23887764678E+02  0.48886368346E+01  0.24475363779E+02  0.00000000000E+00 0.  1.
         13    1    3    3    0    0  0.13038363607E+02 -0.30032048611E+02 -0.89108357264E+02  0.94932724619E+02  0.00000000000E+00 0. -1.
          1    1    1    2  501    0 -0.47634102966E+02  0.32992483931E+02  0.41048459799E+02  0.71010476784E+02  0.00000000000E+00 0. -1.
<scales pt_clust_5="13000.00000" pt_clust_6="13000.00000" pt_clust_7="13000.00000" pt_clust_8="13000.00000" pt_clust_9="13000.00000"></scales>
<clustering>
<clus scale="   83.717">  7  8 -1 -1</clus>
<clus scale="   84.648">  2  7  1 -1</clus>
<clus scale="   91.391">  5  6 -1 -1</clus>
<clus scale="   55.480">  5  9 -1 -1</clus>
<clus scale="  173.133">  1  5  2 -1</clus>
</clustering>
</event>
<event>
 9    1  0.3312826E-006  0.2704129E+03  0.7546771E-02  0.1131493E+00
          1   -1    0    0  502    0 -0.00000000000E+00  0.00000000000E+00  0.86353677271E+03  0.86353677271E+03  0.00000000000E+00 0. -1.
         21   -1    0    0  501  502  0.00000000000E+00 -0.00000000000E+00 -0.95302824863E+02  0.95302824863E+02  0.00000000000E+00 0. -1.
         23    2    1    2    0    0  0.36013853882E+02 -0.25501595821E+02  0.65287946203E+03  0.66485016620E+03  0.11758750996E+03 0.  0.
         23    2    1    2    0    0 -0.26075485544E+02 -0.23778296125E+02  0.18413981154E+03  0.20879142699E+03  0.91875195120E+02 0.  0.
        -13    1    3    3    0    0 -0.39991219047E+02  0.95988993404E+01  0.18228619632E+03  0.18686811884E+03  0.00000000000E+00 0.  1.
         13    1    3    3    0    0  0.76005072929E+02 -0.35100495161E+02  0.47059326571E+03  0.47798204736E+03  0.00000000000E+00 0. -1.
        -13    1    4    4    0    0  0.32934710229E+02 -0.16547581379E+02  0.92313118206E+02  0.99399342957E+02  0.00000000000E+00 0.  1.
         13    1    4    4    0    0 -0.59010195773E+02 -0.72307147450E+01  0.91826693337E+02  0.10939208404E+03  0.00000000000E+00 0. -1.
          1    1    1    2  501    0 -0.99383683381E+01  0.49279891945E+02 -0.68785325723E+02  0.85198004379E+02  0.00000000000E+00 0. -1.
<scales pt_clust_5="13000.00000" pt_clust_6="13000.00000" pt_clust_7="13000.00000" pt_clust_8="13000.00000" pt_clust_9="13000.00000"></scales>
<clustering>
<clus scale="   91.875">  7  8 -1 -1</clus>
<clus scale="   50.272">  7  9 -1 -1</clus>
<clus scale="  117.588">  5  6 -1 -1</clus>
<clus scale="  125.595">  1  5  2 -1</clus>
<clus scale="  270.413">  2  5  1 -1</clus>
</clustering>
</event>
<event>
 9    1  0.3312826E-006  0.1829093E+03  0.7546771E-02  0.1195653E+00
         21   -1    0    0  501  502  0.00000000000E+00  0.00000000000E+00  0.56547375115E+02  0.56547375115E+02  0.00000000000E+00 0. -1.
          1   -1    0    0  502    0 -0.00000000000E+00 -0.00000000000E+00 -0.35560024057E+03  0.35560024057E+03  0.00000000000E+00 0. -1.
         23    2    1    2    0    0 -0.53586456803E+01  0.15292009969E+02 -0.15128871699E+03  0.17700920545E+03  0.90451214874E+02 0.  0.
         23    2    1    2    0    0  0.95399166062E+01  0.38211632007E+02 -0.15584505786E+03  0.18086665120E+03  0.82909134770E+02 0.  0.
        -11    1    3    3    0    0  0.33943726589E+02 -0.19045201225E+02 -0.76203306311E+02  0.85567751853E+02  0.00000000000E+00 0.  1.
         11    1    3    3    0    0 -0.39302372269E+02  0.34337211195E+02 -0.75085410681E+02  0.91441453596E+02  0.00000000000E+00 0. -1.
        -13    1    4    4    0    0  0.20629334692E+02  0.60184569228E+02 -0.13231367861E+03  0.14681505839E+03  0.00000000000E+00 0. -1.
         13    1    4    4    0    0 -0.11089418085E+02 -0.21972937221E+02 -0.23531379250E+02  0.34051592811E+02  0.00000000000E+00 0.  1.
          1    1    1    2  501    0 -0.41812709259E+01 -0.53503641976E+02  0.80809094024E+01  0.54271759028E+02  0.00000000000E+00 0. -1.
<scales pt_clust_5="13000.00000" pt_clust_6="13000.00000" pt_clust_7="13000.00000" pt_clust_8="13000.00000" pt_clust_9="13000.00000"></scales>
<clustering>
<clus scale="   82.909">  7  8 -1 -1</clus>
<clus scale="   53.667">  7  9 -1 -1</clus>
<clus scale="   90.451">  5  6 -1 -1</clus>
<clus scale="   91.891">  2  5  1 -1</clus>
<clus scale="  182.909">  1  5  2 -1</clus>
</clustering>
</event>
<event>
 9    1  0.3312826E-006  0.2553807E+03  0.7546771E-02  0.1145089E+00
          1   -1    0    0  502    0 -0.00000000000E+00  0.00000000000E+00  0.57891021877E+03  0.57891021877E+03  0.00000000000E+00 0. -1.
         21   -1    0    0  501  502  0.00000000000E+00 -0.00000000000E+00 -0.61572680028E+02  0.61572680028E+02  0.00000000000E+00 0. -1.
         23    2    1    2    0    0 -0.58022645534E+02  0.81573547155E+01  0.79272882214E+02  0.13341295826E+03  0.89898040831E+02 0.  0.
         23    2    1    2    0    0 -0.40311475212E+02 -0.53501073951E+02  0.34834966318E+03  0.36644834829E+03  0.91921293389E+02 0.  0.
        -13    1    3    3    0    0  0.12954935621E+02  0.23698436266E+02  0.16037419475E+01  0.27055835353E+02  0.00000000000E+00 0.  1.
         13    1    3    3    0    0 -0.70977581155E+02 -0.15541081551E+02  0.77669140266E+02  0.10635712290E+03  0.00000000000E+00 0. -1.
        -13    1    4    4    0    0 -0.61338211042E+02 -0.58048310092E+01  0.18999675467E+03  0.19973692443E+03  0.00000000000E+00 0.  1.
         13    1    4    4    0    0  0.21026735830E+02 -0.47696242942E+02  0.15835290851E+03  0.16671142386E+03  0.00000000000E+00 0. -1.
          1    1    1    2  501    0  0.98334120747E+02  0.45343719235E+02  0.89714993355E+02  0.14062159226E+03  0.00000000000E+00 0. -1.
<scales pt_clust_5="13000.00000" pt_clust_6="13000.00000" pt_clust_7="13000.00000" pt_clust_8="13000.00000" pt_clust_9="13000.00000"></scales>
<clustering>
<clus scale="   89.898">  5  6 -1 -1</clus>
<clus scale="   91.921">  7  8 -1 -1</clus>
<clus scale="  107.307">  1  5  2 -1</clus>
<clus scale="   96.586">  7  9 -1 -1</clus>
<clus scale="  255.381">  2  5  1 -1</clus>
</clustering>
</event>
<event>
 9    1  0.3312826E-006  0.1936565E+03  0.7546771E-02  0.1181328E+00
         -3   -1    0    0    0  501 -0.00000000000E+00  0.00000000000E+00  0.23415549016E+03  0.23415549016E+03  0.00000000000E+00 0.  1.
         21   -1    0    0  501  502  0.00000000000E+00 -0.00000000000E+00 -0.13558078961E+03  0.13558078961E+03  0.00000000000E+00 0.  1.
         23    2    1    2    0    0 -0.47900503364E+02 -0.27437058087E+02 -0.57613180771E+02  0.12094422642E+03  0.90889916526E+02 0.  0.
         23    2    1    2    0    0  0.96083824140E+01 -0.41460723357E+02  0.13424949165E+03  0.16697222839E+03  0.89696635667E+02 0.  0.
        -11    1    4    4    0    0 -0.22883371927E+02 -0.10545701035E+02  0.11574464389E+03  0.11845540557E+03  0.00000000000E+00 0. -1.
         11    1    4    4    0    0  0.32491754341E+02 -0.30915022322E+02  0.18504847769E+02  0.48516822817E+02  0.00000000000E+00 0.  1.
        -13    1    3    3    0    0 -0.62618326979E+02 -0.49057371855E+02 -0.37458457080E+02  0.87925062490E+02  0.00000000000E+00 0.  1.
         13    1    3    3    0    0  0.14717823615E+02  0.21620313769E+02 -0.20154723690E+02  0.33019163927E+02  0.00000000000E+00 0. -1.
         -3    1    1    2    0  502  0.38292120950E+02  0.68897781443E+02  0.21938389669E+02  0.81819824957E+02  0.00000000000E+00 0.  1.
<scales pt_clust_5="13000.00000" pt_clust_6="13000.00000" pt_clust_7="13000.00000" pt_clust_8="13000.00000" pt_clust_9="13000.00000"></scales>
<clustering>
<clus scale="   89.697">  5  6 -1 -1</clus>
<clus scale="   78.824">  5  9 -1 -1</clus>
<clus scale="   90.890">  7  8 -1 -1</clus>
<clus scale="  106.340">  1  7  2 -1</clus>
<clus scale="  193.656">  2  5  1 -1</clus>
</clustering>
</event>
<event>
 9    1  0.3312826E-006  0.1605619E+03  0.7546771E-02  0.1206413E+00
         21   -1    0    0  501  502  0.00000000000E+00  0.00000000000E+00  0.94728516445E+02  0.94728516445E+02  0.00000000000E+00 0. -1.
          1   -1    0    0  502    0 -0.00000000000E+00 -0.00000000000E+00 -0.33856903992E+03  0.33856903992E+03  0.00000000000E+00 0. -1.
         23    2    1    2    0    0  0.58095224135E+02  0.32535168812E+01  0.33634975644E+02  0.11271562187E+03  0.90486791236E+02 0.  0.
         23    2    1    2    0    0 -0.24956241424E+02 -0.16490966442E+02 -0.16064118848E+03  0.19841942638E+03  0.11256070081E+03 0.  0.
        -13    1    4    4    0    0  0.20440944651E+02  0.12404805495E+02 -0.13796822282E+03  0.14002479040E+03  0.00000000000E+00 0.  1.
         13    1    4    4    0    0 -0.45397186074E+02 -0.28895771938E+02 -0.22672965656E+02  0.58394635978E+02  0.00000000000E+00 0. -1.
        -13    1    3    3    0    0  0.55907981352E+02  0.24506701324E+02 -0.12104792529E+02  0.62231879217E+02  0.00000000000E+00 0.  1.
         13    1    3    3    0    0  0.21872427821E+01 -0.21253184443E+02  0.45739768173E+02  0.50483742655E+02  0.00000000000E+00 0. -1.
          1    1    1    2  501    0 -0.33138982711E+02  0.13237449561E+02 -0.11683431065E+03  0.12216250812E+03  0.00000000000E+00 0. -1.
<scales pt_clust_5="13000.00000" pt_clust_6="13000.00000" pt_clust_7="13000.00000" pt_clust_8="13000.00000" pt_clust_9="13000.00000"></scales>
<clustering>
<clus scale="   90.487">  7  8 -1 -1</clus>
<clus scale="  107.580">  2  7  1 -1</clus>
<clus scale="  112.561">  5  6 -1 -1</clus>
<clus scale="   17.601">  5  9 -1 -1</clus>
<clus scale="  160.562">  1  5  2 -1</clus>
</clustering>
</event>
<event>
 9    1  0.3312826E-006  0.4474168E+03  0.7546771E-02  0.1046406E+00
          1   -1    0    0  502    0 -0.00000000000E+00  0.00000000000E+00  0.38850837990E+03  0.38850837990E+03  0.00000000000E+00 0. -1.
         21   -1    0    0  501  502  0.00000000000E+00 -0.00000000000E+00 -0.44420048534E+03  0.44420048534E+03  0.00000000000E+00 0. -1.
         23    2    1    2    0    0 -0.12212487043E+03 -0.20981103357E+03 -0.23160921396E+03  0.35195051981E+03  0.10625999540E+03 0.  0.
         23    2    1    2    0    0  0.89020198146E+02  0.12380049623E+03  0.28597718389E+03  0.33720712791E+03  0.93137204519E+02 0.  0.
        -13    1    3    3    0    0  0.15592622387E+01 -0.98760610324E+02 -0.85094633286E+02  0.13037325671E+03  0.00000000000E+00 0.  1.
         13    1    3    3    0    0 -0.12368413266E+03 -0.11105042325E+03 -0.14651458067E+03  0.22157726311E+03  0.00000000000E+00 0. -1.
        -13    1    4    4    0    0  0.71460692090E+01  0.76134604307E+02  0.17696730183E+03  0.19278218330E+03  0.00000000000E+00 0. -1.
         13    1    4    4    0    0  0.81874128937E+02  0.47665891926E+02  0.10900988205E+03  0.14442494462E+03  0.00000000000E+00 0.  1.
          1    1    1    2  501    0  0.33104672280E+02  0.86010537339E+02 -0.11006007537E+03  0.14355121751E+03  0.00000000000E+00 0. -1.
<scales pt_clust_5="13000.00000" pt_clust_6="13000.00000" pt_clust_7="13000.00000" pt_clust_8="13000.00000" pt_clust_9="13000.00000"></scales>
<clustering>
<clus scale="   93.137">  7  8 -1 -1</clus>
<clus scale="   92.161">  7  9 -1 -1</clus>
<clus scale="  106.260">  5  6 -1 -1</clus>
<clus scale="  265.003">  1  5  2 -1</clus>
<clus scale="  447.417">  2  5  1 -1</clus>
</clustering>
</event>
<event>
 9    1  0.3312826E-006  0.6284808E+03  0.7546771E-02  0.1043985E+00
         21   -1    0    0  501  502  0.00000000000E+00  0.00000000000E+00  0.75077290434E+03  0.75077290434E+03  0.00000000000E+00 0. -1.
          2   -1    0    0  502    0 -0.00000000000E+00 -0.00000000000E+00 -0.24391476584E+03  0.24391476584E+03  0.00000000000E+00 0. -1.
         23    2    1    2    0    0  0.14498760124E+02 -0.43666723600E+02 -0.83651580907E+02  0.13231314943E+03  0.91608873641E+02 0.  0.
         23    2    1    2    0    0 -0.15909561267E+03  0.24758586898E+03  0.12624974393E+03  0.33509035405E+03  0.98673051283E+02 0.  0.
        -11    1    3    3    0    0  0.53469835861E+02 -0.21382597837E+02 -0.48721464732E+02  0.75432220986E+02  0.00000000000E+00 0. -1.
         11    1    3    3    0    0 -0.38971075737E+02 -0.22284125763E+02 -0.34930116175E+02  0.56880928448E+02  0.00000000000E+00 0.  1.
        -13    1    4    4    0    0 -0.86554511258E+02  0.18643273344E+03  0.45545714654E+02  0.21053089949E+03  0.00000000000E+00 0. -1.
         13    1    4    4    0    0 -0.72541101411E+02  0.61153135542E+02  0.80704029276E+02  0.12455945457E+03  0.00000000000E+00 0.  1.
          2    1    1    2  501    0  0.14459685254E+03 -0.20391914538E+03  0.46425997548E+03  0.52728416670E+03  0.00000000000E+00 0. -1.
<scales pt_clust_5="13000.00000" pt_clust_6="13000.00000" pt_clust_7="13000.00000" pt_clust_8="13000.00000" pt_clust_9="13000.00000"></scales>
<clustering>
<clus scale="   91.609">  5  6 -1 -1</clus>
<clus scale="   98.673">  7  8 -1 -1</clus>
<clus scale="  102.514">  2  5  1 -1</clus>
<clus scale="  260.203">  7  9 -1 -1</clus>
<clus scale="  628.481">  1  5  2 -1</clus>
</clustering>
</event>
<event>
 9    1  0.3312826E-006  0.5279376E+03  0.7546771E-02  0.1025145E+00
         21   -1    0    0  501  502  0.00000000000E+00  0.00000000000E+00  0.18984081011E+04  0.18984081011E+04  0.00000000000E+00 0. -1.
          1   -1    0    0  502    0 -0.00000000000E+00 -0.00000000000E+00 -0.91555640280E+02  0.91555640280E+02  0.00000000000E+00 0. -1.
         23    2    1    2    0    0  0.24667987838E+03 -0.14604570885E+03  0.76244143351E+03  0.81970201333E+03  0.91728619615E+02 0.  0.
         23    2    1    2    0    0  0.33295887113E+02  0.18124465671E+03  0.67388630988E+03  0.70452149849E+03  0.90937019501E+02 0.  0.
        -11    1    3    3    0    0  0.22695492683E+03 -0.15651060826E+03  0.66793267975E+03  0.72259129111E+03  0.00000000000E+00 0. -1.
         11    1    3    3    0    0  0.19724951555E+02  0.10464899410E+02  0.94508753752E+02  0.97110722216E+02  0.00000000000E+00 0.  1.
        -11    1    4    4    0    0  0.20569150685E+02 -0.21503084231E+01  0.49838128513E+02  0.53958806880E+02  0.00000000000E+00 0. -1.
         11    1    4    4    0    0  0.12726736428E+02  0.18339496513E+03  0.62404818136E+03  0.65056269161E+03  0.00000000000E+00 0.  1.
          1    1    1    2  501    0 -0.27997576550E+03 -0.35198947858E+02  0.37052471742E+03  0.46574022954E+03  0.00000000000E+00 0. -1.
<scales pt_clust_5="13000.00000" pt_clust_6="13000.00000" pt_clust_7="13000.00000" pt_clust_8="13000.00000" pt_clust_9="13000.00000"></scales>
<clustering>
<clus scale="   90.937">  7  8 -1 -1</clus>
<clus scale="   91.729">  5  6 -1 -1</clus>
<clus scale="  282.180">  7  9 -1 -1</clus>
<clus scale="  300.989">  2  5  1 -1</clus>
<clus scale="  527.938">  1  5  2 -1</clus>
</clustering>
</event>
<event>
 9    1  0.3312826E-006  0.3219809E+03  0.7546771E-02  0.1094446E+00
         21   -1    0    0  501  502  0.00000000000E+00  0.00000000000E+00  0.10823042147E+04  0.10823042147E+04  0.00000000000E+00 0.  1.
         -1   -1    0    0    0  501 -0.00000000000E+00 -0.00000000000E+00 -0.16772214625E+03  0.16772214625E+03  0.00000000000E+00 0.  1.
         23    2    1    2    0    0 -0.16756124822E+03 -0.94181870251E+00 -0.78696806612E+02  0.20586419196E+03  0.90051203392E+02 0.  0.
         23    2    1    2    0    0 -0.19671754906E+02  0.13069183455E+02  0.90964224993E+02  0.12254674043E+03  0.78647516587E+02 0.  0.
        -11    1    3    3    0    0 -0.13446744261E+03  0.36659166362E+02 -0.65876382922E+02  0.15415928590E+03  0.00000000000E+00 0.  1.
         11    1    3    3    0    0 -0.33093805611E+02 -0.37600985065E+02 -0.12820423690E+02  0.51704906065E+02  0.00000000000E+00 0. -1.
        -13    1    4    4    0    0 -0.15360250282E+02 -0.30903723692E+02  0.22963691651E+02  0.41452485583E+02  0.00000000000E+00 0.  1.
         13    1    4    4    0    0 -0.43115046245E+01  0.43972907147E+02  0.68000533342E+02  0.81094254851E+02  0.00000000000E+00 0. -1.
         -1    1    1    2    0  502  0.18723300313E+03 -0.12127364752E+02  0.90231465010E+03  0.92161542859E+03  0.00000000000E+00 0.  1.
<scales pt_clust_5="13000.00000" pt_clust_6="13000.00000" pt_clust_7="13000.00000" pt_clust_8="13000.00000" pt_clust_9="13000.00000"></scales>
<clustering>
<clus scale="   78.648">  7  8 -1 -1</clus>
<clus scale="   90.051">  5  6 -1 -1</clus>
<clus scale="  187.625">  7  9 -1 -1</clus>
<clus scale="  190.228">  2  5  1 -1</clus>
<clus scale="  321.981">  1  5  2 -1</clus>
</clustering>
</event>
<event>
 9    1  0.3312826E-006  0.1917117E+03  0.7546771E-02  0.1178131E+00
         21   -1    0    0  501  502  0.00000000000E+00  0.00000000000E+00  0.11694852830E+03  0.11694852830E+03  0.00000000000E+00 0. -1.
         -1   -1    0    0    0  501 -0.00000000000E+00 -0.00000000000E+00 -0.21931226201E+03  0.21931226201E+03  0.00000000000E+00 0.  1.
         23    2    1    2    0    0  0.57623638358E+02 -0.45824106031E+02 -0.81904414317E+02  0.14346049149E+03  0.91936103586E+02 0.  0.
         23    2    1    2    0    0 -0.65161364001E+02 -0.12272624925E+01 -0.62264136369E+02  0.12941030505E+03  0.92858466734E+02 0.  0.
        -11    1    3    3    0    0  0.10895882167E+01 -0.35772216026E+02  0.81050742324E+01  0.36695106898E+02  0.00000000000E+00 0. -1.
         11    1    3    3    0    0  0.56534050141E+02 -0.10051890005E+02 -0.90009488549E+02  0.10676538459E+03  0.00000000000E+00 0.  1.
        -13    1    4    4    0    0  0.20621629567E+02  0.47647269053E+01 -0.31764129359E+02  0.38169544697E+02  0.00000000000E+00 0.  1.
         13    1    4    4    0    0 -0.85782993568E+02 -0.59919893978E+01 -0.30500007010E+02  0.91240760354E+02  0.00000000000E+00 0. -1.
         -1    1    1    2    0  502  0.75377256433E+01  0.47051368524E+02  0.41804816975E+02  0.63389993770E+02  0.00000000000E+00 0.  1.
<scales pt_clust_5="13000.00000" pt_clust_6="13000.00000" pt_clust_7="13000.00000" pt_clust_8="13000.00000" pt_clust_9="13000.00000"></scales>
<clustering>
<clus scale="   91.936">  5  6 -1 -1</clus>
<clus scale="   92.858">  7  8 -1 -1</clus>
<clus scale="   47.651">  7  9 -1 -1</clus>
<clus scale="  117.782">  2  5  1 -1</clus>
<clus scale="  191.712">  1  5  2 -1</clus>
</clustering>
</event>
<event>
 9    1  0.3312826E-006  0.2639597E+03  0.7546771E-02  0.1124070E+00
         21   -1    0    0  501  502  0.00000000000E+00  0.00000000000E+00  0.17527717703E+03  0.17527717703E+03  0.00000000000E+00 0.  1.
         -4   -1    0    0    0  501 -0.00000000000E+00 -0.00000000000E+00 -0.25967254137E+03  0.25967254137E+03  0.00000000000E+00 0.  1.
         23    2    1    2    0    0  0.99782957744E+02 -0.10199837182E+03 -0.21278782705E+02  0.16354887930E+03  0.77039878098E+02 0.  0.
         23    2    1    2    0    0 -0.73350073405E+02 -0.31183293947E+02 -0.62531882119E+02  0.13562015070E+03  0.90166279195E+02 0.  0.
        -13    1    3    3    0    0  0.36583505491E+02 -0.33327015270E+02 -0.45396830832E+02  0.67155901232E+02  0.00000000000E+00 0.  1.
         13    1    3    3    0    0  0.63199452253E+02 -0.68671356549E+02  0.24118048127E+02  0.96392978068E+02  0.00000000000E+00 0. -1.
        -13    1    4    4    0    0  0.16035451857E+02  0.12989524962E+02 -0.10390925787E+02  0.23104865585E+02  0.00000000000E+00 0. -1.
         13    1    4    4    0    0 -0.89385525261E+02 -0.44172818909E+02 -0.52140956332E+02  0.11251528511E+03  0.00000000000E+00 0.  1.
         -4    1    1    2    0  502 -0.26432884339E+02  0.13318166577E+03 -0.58469951206E+00  0.13578068841E+03  0.00000000000E+00 0.  1.
<scales pt_clust_5="13000.00000" pt_clust_6="13000.00000" pt_clust_7="13000.00000" pt_clust_8="13000.00000" pt_clust_9="13000.00000"></scales>
<clustering>
<clus scale="   77.040">  5  6 -1 -1</clus>
<clus scale="   90.166">  7  8 -1 -1</clus>
<clus scale="  135.779">  7  9 -1 -1</clus>
<clus scale="  162.159">  2  5  1 -1</clus>
<clus scale="  263.960">  1  5  2 -1</clus>
</clustering>
</event>
<event>
 9    1  0.3312826E-006  0.1915219E+03  0.7546771E-02  0.1178405E+00
         21   -1    0    0  501  502  0.00000000000E+00  0.00000000000E+00  0.71604874495E+02  0.71604874495E+02  0.00000000000E+00 0. -1.
         -1   -1    0    0    0  501 -0.00000000000E+00 -0.00000000000E+00 -0.36714608345E+03  0.36714608345E+03  0.00000000000E+00 0.  1.
         23    2    1    2    0    0 -0.32642901947E+02 -0.67561275532E+02 -0.50656781043E+02  0.12786667251E+03  0.90297793293E+02 0.  0.
         23    2    1    2    0    0  0.55351796137E+02  0.23537965377E+02 -0.77856569280E+02  0.13666588437E+03  0.94858112041E+02 0.  0.
        -11    1    3    3    0    0  0.24007120107E+02 -0.46263127811E+02 -0.56125114598E+01  0.52422505620E+02  0.00000000000E+00 0. -1.
         11    1    3    3    0    0 -0.56650022054E+02 -0.21298147722E+02 -0.45044269583E+02  0.75444166888E+02  0.00000000000E+00 0.  1.
        -11    1    4    4    0    0  0.67066625674E+02  0.49617592795E+01 -0.13401731284E+02  0.68572281105E+02  0.00000000000E+00 0. -1.
         11    1    4    4    0    0 -0.11714829537E+02  0.18576206098E+02 -0.64454837997E+02  0.68093603262E+02  0.00000000000E+00 0.  1.
         -1    1    1    2    0  502 -0.22708894190E+02  0.44023310155E+02 -0.16702785863E+03  0.17421840107E+03  0.00000000000E+00 0.  1.
<scales pt_clust_5="13000.00000" pt_clust_6="13000.00000" pt_clust_7="13000.00000" pt_clust_8="13000.00000" pt_clust_9="13000.00000"></scales>
<clustering>
<clus scale="   90.298">  5  6 -1 -1</clus>
<clus scale="   94.858">  7  8 -1 -1</clus>
<clus scale="   49.535">  7  9 -1 -1</clus>
<clus scale="  117.404">  2  5  1 -1</clus>
<clus scale="  191.522">  1  5  2 -1</clus>
</clustering>
</event>
<event>
 9    1  0.3312826E-006  0.4768306E+03  0.7546771E-02  0.1044330E+00
          2   -1    0    0  502    0 -0.00000000000E+00  0.00000000000E+00  0.74679810614E+03  0.74679810614E+03  0.00000000000E+00 0. -1.
         21   -1    0    0  501  502  0.00000000000E+00 -0.00000000000E+00 -0.20867971245E+03  0.20867971245E+03  0.00000000000E+00 0. -1.
         23    2    1    2    0    0 -0.20017484235E+03 -0.74144454418E+02  0.39383496348E+03  0.45729594916E+03  0.91903422265E+02 0.  0.
         23    2    1    2    0    0 -0.99780474584E+02  0.72192094065E+01  0.13521743907E+03  0.19071744422E+03  0.89895092241E+02 0.  0.
        -11    1    3    3    0    0 -0.70173476738E+02 -0.74391630997E+02  0.18131604471E+03  0.20816805631E+03  0.00000000000E+00 0.  1.
         11    1    3    3    0    0 -0.13000136561E+03  0.24717657910E+00  0.21251891878E+03  0.24912789285E+03  0.00000000000E+00 0. -1.
        -13    1    4    4    0    0 -0.53161461372E+02  0.48439856516E+02  0.79296154871E+02  0.10705344858E+03  0.00000000000E+00 0.  1.
         13    1    4    4    0    0 -0.46619013213E+02 -0.41220647109E+02  0.55921284194E+02  0.83663995643E+02  0.00000000000E+00 0. -1.
          2    1    1    2  501    0  0.29995531693E+03  0.66925245011E+02  0.90659911365E+01  0.30746442521E+03  0.00000000000E+00 0. -1.
<scales pt_clust_5="13000.00000" pt_clust_6="13000.00000" pt_clust_7="13000.00000" pt_clust_8="13000.00000" pt_clust_9="13000.00000"></scales>
<clustering>
<clus scale="   89.895">  7  8 -1 -1</clus>
<clus scale="   91.903">  5  6 -1 -1</clus>
<clus scale="  232.408">  1  5  2 -1</clus>
<clus scale="  203.615">  7  9 -1 -1</clus>
<clus scale="  476.831">  2  5  1 -1</clus>
</clustering>
</event>
<event>
 9    1  0.3560300E-006  0.3827455E+03  0.7546771E-02  0.1082483E+00
          1   -1    0    0  502    0 -0.00000000000E+00  0.00000000000E+00  0.11144182967E+04  0.11144182967E+04  0.00000000000E+00 0. -1.
         21   -1    0    0  501  502  0.00000000000E+00 -0.00000000000E+00 -0.71449262310E+02  0.71449262310E+02  0.00000000000E+00 0. -1.
         23    2    1    2    0    0 -0.29878702824E+02  0.11792403292E+03  0.48435021408E+03  0.50870501589E+03  0.96885751764E+02 0.  0.
         23    2    1    2    0    0 -0.13052196590E+02  0.45685866307E+02  0.47970878410E+03  0.49051299167E+03  0.90691340448E+02 0.  0.
        -11    1    3    3    0    0 -0.21099476346E+02 -0.69230060206E+00  0.19023051326E+02  0.28417312750E+02  0.00000000000E+00 0.  1.
         11    1    3    3    0    0 -0.87792264783E+01  0.11861633352E+03  0.46532716275E+03  0.48028770314E+03  0.00000000000E+00 0. -1.
        -13    1    4    4    0    0 -0.40570417991E+02  0.59167008876E+02  0.33542700558E+03  0.34301307530E+03  0.00000000000E+00 0. -1.
         13    1    4    4    0    0  0.27518221401E+02 -0.13481142569E+02  0.14428177852E+03  0.14749991637E+03  0.00000000000E+00 0.  1.
          1    1    1    2  501    0  0.42930899414E+02 -0.16360989923E+03  0.78910036250E+02  0.18664955149E+03  0.00000000000E+00 0. -1.
<scales pt_clust_5="13000.00000" pt_clust_6="13000.00000" pt_clust_7="13000.00000" pt_clust_8="13000.00000" pt_clust_9="13000.00000"></scales>
<clustering>
<clus scale="   90.691">  7  8 -1 -1</clus>
<clus scale="   96.886">  5  6 -1 -1</clus>
<clus scale="  155.517">  1  5  2 -1</clus>
<clus scale="  143.008">  7  9 -1 -1</clus>
<clus scale="  382.746">  2  5  1 -1</clus>
</clustering>
</event>
<event>
 9    1  0.3312826E-006  0.1949934E+03  0.7546771E-02  0.1185888E+00
          1   -1    0    0  502    0 -0.00000000000E+00  0.00000000000E+00  0.24547676362E+03  0.24547676362E+03  0.00000000000E+00 0. -1.
         21   -1    0    0  501  502  0.00000000000E+00 -0.00000000000E+00 -0.22615112218E+03  0.22615112218E+03  0.00000000000E+00 0. -1.
         23    2    1    2    0    0 -0.11635562574E+02  0.17743430435E+02  0.19030467401E+03  0.21228976330E+03  0.91656200071E+02 0.  0.
         23    2    1    2    0    0  0.51040988097E+02 -0.70578282554E+02 -0.96694153468E+02  0.16002773824E+03  0.93127016795E+02 0.  0.
        -13    1    3    3    0    0 -0.23759996210E+01 -0.36376901596E+02  0.52186863907E+02  0.63658409565E+02  0.00000000000E+00 0. -1.
         13    1    3    3    0    0 -0.92595629533E+01  0.54120332031E+02  0.13811781010E+03  0.14863135373E+03  0.00000000000E+00 0.  1.
        -13    1    4    4    0    0  0.77144829474E+02 -0.41044143556E+02 -0.74249104066E+02  0.11466854795E+03  0.00000000000E+00 0. -1.
         13    1    4    4    0    0 -0.26103841376E+02 -0.29534138999E+02 -0.22445049402E+02  0.45359190289E+02  0.00000000000E+00 0.  1.
          1    1    1    2  501    0 -0.39405425523E+02  0.52834852119E+02 -0.74284879100E+02  0.99310384260E+02  0.00000000000E+00 0. -1.
<scales pt_clust_5="13000.00000" pt_clust_6="13000.00000" pt_clust_7="13000.00000" pt_clust_8="13000.00000" pt_clust_9="13000.00000"></scales>
<clustering>
<clus scale="   91.656">  5  6 -1 -1</clus>
<clus scale="   93.127">  7  8 -1 -1</clus>
<clus scale="   65.911">  7  9 -1 -1</clus>
<clus scale="   94.080">  1  5  2 -1</clus>
<clus scale="  194.993">  2  5  1 -1</clus>
</clustering>
</event>
<event>
 9    1  0.3312826E-006  0.9956270E+03  0.7546771E-02  0.9780701E-01
          2   -1    0    0  502    0 -0.00000000000E+00  0.00000000000E+00  0.33236545973E+04  0.33236545973E+04  0.00000000000E+00 0. -1.
         21   -1    0    0  501  502  0.00000000000E+00 -0.00000000000E+00 -0.11097927004E+03  0.11097927004E+03  0.00000000000E+00 0. -1.
         23    2    1    2    0    0 -0.79335747061E+02 -0.15626913454E+03  0.32432855810E+03  0.37950373382E+03  0.90110305799E+02 0.  0.
         23    2    1    2    0    0 -0.96521882826E+02  0.54892422992E+03  0.15769014382E+04  0.16749153727E+04  0.89939289691E+02 0.  0.
        -11    1    3    3    0    0  0.40106614784E+01 -0.82027864450E+02  0.17260130289E+03  0.19114357356E+03  0.00000000000E+00 0.  1.
         11    1    3    3    0    0 -0.83346408539E+02 -0.74241270090E+02  0.15172725520E+03  0.18836016026E+03  0.00000000000E+00 0. -1.
        -13    1    4    4    0    0 -0.10836579894E+03  0.47669363655E+03  0.13130553000E+04  0.14011046322E+04  0.00000000000E+00 0. -1.
         13    1    4    4    0    0  0.11843916110E+02  0.72230593369E+02  0.26384613824E+03  0.27381074054E+03  0.00000000000E+00 0.  1.
          2    1    1    2  501    0  0.17585762989E+03 -0.39265509538E+03  0.13114453309E+04  0.13802147608E+04  0.00000000000E+00 0. -1.
<scales pt_clust_5="13000.00000" pt_clust_6="13000.00000" pt_clust_7="13000.00000" pt_clust_8="13000.00000" pt_clust_9="13000.00000"></scales>
<clustering>
<clus scale="   89.939">  7  8 -1 -1</clus>
<clus scale="   90.110">  5  6 -1 -1</clus>
<clus scale="  197.064">  1  5  2 -1</clus>
<clus scale="  484.090">  7  9 -1 -1</clus>
<clus scale="  995.627">  2  5  1 -1</clus>
</clustering>
</event>
<event>
 9    1  0.3312826E-006  0.1424314E+03  0.7546771E-02  0.1229685E+00
         -4   -1    0    0    0  501 -0.00000000000E+00  0.00000000000E+00  0.12258640123E+03  0.12258640123E+03  0.00000000000E+00 0.  1.
         21   -1    0    0  501  502  0.00000000000E+00 -0.00000000000E+00 -0.42395781412E+03  0.42395781412E+03  0.00000000000E+00 0.  1.
         23    2    1    2    0    0  0.91780890965E+01  0.31784877962E+02  0.89780264721E+02  0.13026746764E+03  0.88400234192E+02 0.  0.
         23    2    1    2    0    0  0.38663947259E+01  0.14339905724E+01 -0.34867157080E+03  0.36079511778E+03  0.92651213664E+02 0.  0.
        -11    1    4    4    0    0  0.25283441562E+02 -0.35695188665E+02 -0.11134855530E+03  0.11963235214E+03  0.00000000000E+00 0. -1.
         11    1    4    4    0    0 -0.21417046836E+02  0.37129179237E+02 -0.23732301550E+03  0.24116276564E+03  0.00000000000E+00 0.  1.
        -13    1    3    3    0    0  0.39240332904E+02  0.46560694662E+02  0.57898716096E+02  0.84023587994E+02  0.00000000000E+00 0. -1.
         13    1    3    3    0    0 -0.30062243808E+02 -0.14775816700E+02  0.31881548625E+02  0.46243879645E+02  0.00000000000E+00 0.  1.
         -4    1    1    2    0  502 -0.13044483822E+02 -0.33218868534E+02 -0.42480106815E+02  0.55481629932E+02  0.00000000000E+00 0.  1.
<scales pt_clust_5="13000.00000" pt_clust_6="13000.00000" pt_clust_7="13000.00000" pt_clust_8="13000.00000" pt_clust_9="13000.00000"></scales>
<clustering>
<clus scale="   88.400">  7  8 -1 -1</clus>
<clus scale="   92.651">  5  6 -1 -1</clus>
<clus scale="   35.688">  5  9 -1 -1</clus>
<clus scale="   94.388">  1  7  2 -1</clus>
<clus scale="  142.431">  2  5  1 -1</clus>
</clustering>
</event>
<event>
 9    1  0.3312826E-006  0.1635431E+03  0.7546771E-02  0.1204831E+00
         21   -1    0    0  501  502  0.00000000000E+00  0.00000000000E+00  0.21721363326E+03  0.21721363326E+03  0.00000000000E+00 0. -1.
         -1   -1    0    0    0  501 -0.00000000000E+00 -0.00000000000E+00 -0.10533380839E+03  0.10533380839E+03  0.00000000000E+00 0.  1.
         23    2    1    2    0    0  0.41449254243E+02  0.25521993418E+02 -0.26167665024E+02  0.10853004817E+03  0.93405630656E+02 0.  0.
         23    2    1    2    0    0 -0.60584220394E+02  0.15305309518E+02  0.12324585488E+03  0.16656105572E+03  0.92996474538E+02 0.  0.
        -13    1    4    4    0    0  0.19449446124E+02  0.18832186672E+02  0.55079169787E+02  0.61373016496E+02  0.00000000000E+00 0.  1.
         13    1    4    4    0    0 -0.80033666519E+02 -0.35268771536E+01  0.68166685097E+02  0.10518803922E+03  0.00000000000E+00 0. -1.
        -13    1    3    3    0    0 -0.16901644795E+02  0.39349432894E+02 -0.22683128796E+02  0.48462024285E+02  0.00000000000E+00 0. -1.
         13    1    3    3    0    0  0.58350899038E+02 -0.13827439477E+02 -0.34845362286E+01  0.60068023887E+02  0.00000000000E+00 0.  1.
         -1    1    1    2    0  502  0.19134966151E+02 -0.40827302936E+02  0.14801635006E+02  0.47456337759E+02  0.00000000000E+00 0.  1.
<scales pt_clust_5="13000.00000" pt_clust_6="13000.00000" pt_clust_7="13000.00000" pt_clust_8="13000.00000" pt_clust_9="13000.00000"></scales>
<clustering>
<clus scale="   92.996">  5  6 -1 -1</clus>
<clus scale="   45.089">  5  9 -1 -1</clus>
<clus scale="   93.406">  7  8 -1 -1</clus>
<clus scale="  105.328">  2  7  1 -1</clus>
<clus scale="  163.543">  1  5  2 -1</clus>
</clustering>
</event>
<event>
 9    1  0.3312826E-006  0.4523292E+03  0.7546771E-02  0.1045105E+00
         21   -1    0    0  501  502  0.00000000000E+00  0.00000000000E+00  0.13943982509E+03  0.13943982509E+03  0.00000000000E+00 0. -1.
          2   -1    0    0  502    0 -0.00000000000E+00 -0.00000000000E+00 -0.15344093872E+04  0.15344093872E+04  0.00000000000E+00 0. -1.
         23    2    1    2    0    0 -0.13980014685E+03 -0.20726597870E+03 -0.11048457228E+04  0.11364726868E+04  0.91557794456E+02 0.  0.
         23    2    1    2    0    0  0.15420131255E+02  0.41744528082E+02 -0.31291884143E+03  0.32908021970E+03  0.91625343674E+02 0.  0.
        -13    1    4    4    0    0  0.39807041385E+02 -0.10476285777E+02 -0.92395561773E+02  0.10114985389E+03  0.00000000000E+00 0.  1.
         13    1    4    4    0    0 -0.24386910130E+02  0.52220813859E+02 -0.22052327965E+03  0.22793036580E+03  0.00000000000E+00 0. -1.
        -13    1    3    3    0    0 -0.75490969057E+02 -0.59697326705E+02 -0.28034581574E+03  0.29640585964E+03  0.00000000000E+00 0.  1.
         13    1    3    3    0    0 -0.64309177797E+02 -0.14756865200E+03 -0.82449990702E+03  0.84006682715E+03  0.00000000000E+00 0. -1.
          2    1    1    2  501    0  0.12438001560E+03  0.16552145062E+03  0.22795002071E+02  0.20829630581E+03  0.00000000000E+00 0. -1.
<scales pt_clust_5="13000.00000" pt_clust_6="13000.00000" pt_clust_7="13000.00000" pt_clust_8="13000.00000" pt_clust_9="13000.00000"></scales>
<clustering>
<clus scale="   91.558">  7  8 -1 -1</clus>
<clus scale="   91.625">  5  6 -1 -1</clus>
<clus scale="  207.045">  5  9 -1 -1</clus>
<clus scale="  266.244">  2  7  1 -1</clus>
<clus scale="  452.329">  1  5  2 -1</clus>
</clustering>
</event>
<event>
 9    1  0.3312826E-006  0.9948293E+03  0.7546771E-02  0.9735870E-01
         21   -1    0    0  501  502  0.00000000000E+00  0.00000000000E+00  0.13335803644E+04  0.13335803644E+04  0.00000000000E+00 0.  1.
         -1   -1    0    0    0  501 -0.00000000000E+00 -0.00000000000E+00 -0.28414968254E+03  0.28414968254E+03  0.00000000000E+00 0.  1.
         23    2    1    2    0    0 -0.15007272904E+03 -0.14279877354E+03  0.13207855985E+03  0.26450414257E+03  0.98001947629E+02 0.  0.
         23    2    1    2    0    0 -0.19442525843E+03  0.31434343404E+03  0.25306533117E+02  0.38170556666E+03  0.91900725573E+02 0.  0.
        -11    1    4    4    0    0 -0.12407319559E+03  0.12664234114E+03 -0.12449502908E+02  0.17772853050E+03  0.00000000000E+00 0.  1.
         11    1    4    4    0    0 -0.70352062845E+02  0.18770109290E+03  0.37756036025E+02  0.20397703616E+03  0.00000000000E+00 0. -1.
        -13    1    3    3    0    0 -0.13420130939E+03 -0.12533169607E+03  0.67315073994E+02  0.19557439676E+03  0.00000000000E+00 0.  1.
         13    1    3    3    0    0 -0.15871419646E+02 -0.17467077470E+02  0.64763485854E+02  0.68929745806E+02  0.00000000000E+00 0. -1.
         -1    1    1    2    0  502  0.34449798747E+03 -0.17154466050E+03  0.89204558885E+03  0.97152033767E+03  0.00000000000E+00 0.  1.
<scales pt_clust_5="13000.00000" pt_clust_6="13000.00000" pt_clust_7="13000.00000" pt_clust_8="13000.00000" pt_clust_9="13000.00000"></scales>
<clustering>
<clus scale="   91.901">  5  6 -1 -1</clus>
<clus scale="   98.002">  7  8 -1 -1</clus>
<clus scale="  229.167">  2  7  1 -1</clus>
<clus scale="  373.648">  5  9 -1 -1</clus>
<clus scale="  994.829">  1  5  2 -1</clus>
</clustering>
</event>
<event>
 9    1  0.3470153E-006  0.6412740E+03  0.7546771E-02  0.1033792E+00
         21   -1    0    0  501  502  0.00000000000E+00  0.00000000000E+00  0.36436121896E+03  0.36436121896E+03  0.00000000000E+00 0. -1.
          1   -1    0    0  502    0 -0.00000000000E+00 -0.00000000000E+00 -0.42513502512E+03  0.42513502512E+03  0.00000000000E+00 0. -1.
         23    2    1    2    0    0  0.68120000138E+02 -0.55058653643E+02 -0.71204291879E+02  0.14813745335E+03  0.95931559678E+02 0.  0.
         23    2    1    2    0    0  0.20856001389E+02  0.13134043325E+01 -0.29988702109E+03  0.31409401154E+03  0.91028154116E+02 0.  0.
        -13    1    4    4    0    0 -0.34215880230E+02 -0.97326088947E+01 -0.88761820258E+02  0.95624844425E+02  0.00000000000E+00 0.  1.
         13    1    4    4    0    0  0.55071881619E+02  0.11046013227E+02 -0.21112520083E+03  0.21846916711E+03  0.00000000000E+00 0. -1.
        -13    1    3    3    0    0  0.89610170852E+02 -0.25248643409E+02 -0.49106035584E+02  0.10525625608E+03  0.00000000000E+00 0. -1.
         13    1    3    3    0    0 -0.21490170713E+02 -0.29810010234E+02 -0.22098256295E+02  0.42881197263E+02  0.00000000000E+00 0.  1.
          1    1    1    2  501    0 -0.88976001527E+02  0.53745249311E+02  0.31031750681E+03  0.32726477920E+03  0.00000000000E+00 0. -1.
<scales pt_clust_5="13000.00000" pt_clust_6="13000.00000" pt_clust_7="13000.00000" pt_clust_8="13000.00000" pt_clust_9="13000.00000"></scales>
<clustering>
<clus scale="   91.028">  5  6 -1 -1</clus>
<clus scale="   95.932">  7  8 -1 -1</clus>
<clus scale="  103.949">  5  9 -1 -1</clus>
<clus scale="  129.902">  2  7  1 -1</clus>
<clus scale="  641.274">  1  5  2 -1</clus>
</clustering>
</event>
<event>
 9    1  0.3312826E-006  0.4225866E+03  0.7546771E-02  0.1088815E+00
         21   -1    0    0  501  502  0.00000000000E+00  0.00000000000E+00  0.47211965111E+03  0.47211965111E+03  0.00000000000E+00 0.  1.
         -2   -1    0    0    0  501 -0.00000000000E+00 -0.00000000000E+00 -0.17437752755E+03  0.17437752755E+03  0.00000000000E+00 0. -1.
         23    2    1    2    0    0 -0.18082919406E+02  0.27555315146E+02 -0.40043639503E+02  0.10549933811E+03  0.91871268138E+02 0.  0.
         23    2    1    2    0    0 -0.11624669445E+03 -0.16767119188E+03  0.21651742953E+03  0.31212470366E+03  0.94419864391E+02 0.  0.
        -13    1    3    3    0    0  0.29727027430E+02  0.38171348387E+02 -0.23663786794E+02  0.53858358710E+02  0.00000000000E+00 0. -1.
         13    1    3    3    0    0 -0.47809946836E+02 -0.10616033241E+02 -0.16379852710E+02  0.51640979397E+02  0.00000000000E+00 0.  1.
        -13    1    4    4    0    0 -0.25532885818E+02 -0.11862522504E+03  0.10834329594E+03  0.16267188463E+03  0.00000000000E+00 0. -1.
         13    1    4    4    0    0 -0.90713808633E+02 -0.49045966836E+02  0.10817413358E+03  0.14945281903E+03  0.00000000000E+00 0.  1.
         -2    1    1    2    0  502  0.13432961386E+03  0.14011587673E+03  0.12126833353E+03  0.22887313689E+03  0.00000000000E+00 0. -1.
<scales pt_clust_5="13000.00000" pt_clust_6="13000.00000" pt_clust_7="13000.00000" pt_clust_8="13000.00000" pt_clust_9="13000.00000"></scales>
<clustering>
<clus scale="   91.871">  5  6 -1 -1</clus>
<clus scale="   94.420">  7  8 -1 -1</clus>
<clus scale="   97.604">  2  5  1 -1</clus>
<clus scale="  198.741">  7  9 -1 -1</clus>
<clus scale="  422.587">  1  5  2 -1</clus>
</clustering>
</event>
<event>
 9    1  0.3312826E-006  0.2795533E+03  0.7546771E-02  0.1117293E+00
         -3   -1    0    0    0  501 -0.00000000000E+00  0.00000000000E+00  0.72370191427E+03  0.72370191427E+03  0.00000000000E+00 0.  1.
         21   -1    0    0  501  502  0.00000000000E+00 -0.00000000000E+00 -0.80525206621E+02  0.80525206621E+02  0.00000000000E+00 0.  1.
         23    2    1    2    0    0 -0.20887938717E+02 -0.13272268676E+03  0.40813455555E+03  0.43899454578E+03  0.89948753304E+02 0.  0.
         23    2    1    2    0    0  0.66511264469E+02  0.12863233868E+03  0.26124820661E+03  0.31245970241E+03  0.91708305586E+02 0.  0.
        -11    1    3    3    0    0 -0.14246179271E+02 -0.60174069340E+02  0.31363646009E+03  0.31967436767E+03  0.00000000000E+00 0. -1.
         11    1    3    3    0    0 -0.66417594460E+01 -0.72548617422E+02  0.94498095460E+02  0.11932017811E+03  0.00000000000E+00 0.  1.
        -13    1    4    4    0    0 -0.21531225205E+02  0.27161194536E+02  0.76939584275E+02  0.84386158674E+02  0.00000000000E+00 0. -1.
         13    1    4    4    0    0  0.88042489674E+02  0.10147114415E+03  0.18430862234E+03  0.22807354373E+03  0.00000000000E+00 0.  1.
         -3    1    1    2    0  502 -0.45623325752E+02  0.40903480783E+01 -0.26206054518E+02  0.52772872704E+02  0.00000000000E+00 0.  1.
<scales pt_clust_5="13000.00000" pt_clust_6="13000.00000" pt_clust_7="13000.00000" pt_clust_8="13000.00000" pt_clust_9="13000.00000"></scales>
<clustering>
<clus scale="   89.949">  5  6 -1 -1</clus>
<clus scale="   91.708">  7  8 -1 -1</clus>
<clus scale="   45.806">  7  9 -1 -1</clus>
<clus scale="  161.686">  1  5  2 -1</clus>
<clus scale="  279.553">  2  5  1 -1</clus>
</clustering>
</event>
<event>
 9    1  0.3312826E-006  0.1602170E+03  0.7546771E-02  0.1202414E+00
         21   -1    0    0  501  502  0.00000000000E+00  0.00000000000E+00  0.16660040515E+03  0.16660040515E+03  0.00000000000E+00 0.  1.
          1   -1    0    0  502    0 -0.00000000000E+00 -0.00000000000E+00 -0.15107717328E+03  0.15107717328E+03  0.00000000000E+00 0. -1.
         23    2    1    2    0    0 -0.63994946355E+02  0.48991009379E+02  0.82525253928E+02  0.14401479975E+03  0.86222809356E+02 0.  0.
         23    2    1    2    0    0  0.43475907370E+02 -0.31809003514E+02 -0.89934948007E+02  0.13841832693E+03  0.90384573523E+02 0.  0.
        -11    1    4    4    0    0  0.60044040589E+02  0.90374962566E+01 -0.45941977472E+02  0.76142159431E+02  0.00000000000E+00 0. -1.
         11    1    4    4    0    0 -0.16568133219E+02 -0.40846499771E+02 -0.43992970535E+02  0.62276167499E+02  0.00000000000E+00 0.  1.
        -13    1    3    3    0    0 -0.62951861990E+02  0.19199385693E+02  0.11266278124E+02  0.66771868042E+02  0.00000000000E+00 0. -1.
         13    1    3    3    0    0 -0.10430843644E+01  0.29791623685E+02  0.71258975804E+02  0.77242931712E+02  0.00000000000E+00 0.  1.
          1    1    1    2  501    0  0.20519038985E+02 -0.17182005864E+02  0.22932925947E+02  0.35244451746E+02  0.00000000000E+00 0. -1.
<scales pt_clust_5="13000.00000" pt_clust_6="13000.00000" pt_clust_7="13000.00000" pt_clust_8="13000.00000" pt_clust_9="13000.00000"></scales>
<clustering>
<clus scale="   86.223">  7  8 -1 -1</clus>
<clus scale="   90.385">  5  6 -1 -1</clus>
<clus scale="   26.763">  5  9 -1 -1</clus>
<clus scale="  118.025">  2  7  1 -1</clus>
<clus scale="  160.217">  1  5  2 -1</clus>
</clustering>
</event>
<event>
 9    1  0.3312826E-006  0.1703974E+03  0.7546771E-02  0.1205985E+00
          2   -1    0    0  502    0 -0.00000000000E+00  0.00000000000E+00  0.88152165334E+03  0.88152165334E+03  0.00000000000E+00 0. -1.
         21   -1    0    0  501  502  0.00000000000E+00 -0.00000000000E+00 -0.19553428004E+02  0.19553428004E+02  0.00000000000E+00 0.  1.
         23    2    1    2    0    0 -0.32559186505E+01 -0.21926207030E+02  0.34442430753E+03  0.35620172940E+03  0.88092047570E+02 0.  0.
         23    2    1    2    0    0 -0.40724214726E+02  0.16943583177E+02  0.46673178045E+03  0.47748676593E+03  0.90606346806E+02 0.  0.
        -11    1    4    4    0    0  0.10995930653E+02 -0.28563906349E+02  0.11081978729E+03  0.11496883270E+03  0.00000000000E+00 0.  1.
         11    1    4    4    0    0 -0.51720145379E+02  0.45507489526E+02  0.35591199316E+03  0.36251793323E+03  0.00000000000E+00 0. -1.
        -13    1    3    3    0    0 -0.10390418680E+02 -0.54063179949E+02  0.25589672766E+03  0.26175164460E+03  0.00000000000E+00 0.  1.
         13    1    3    3    0    0  0.71345000300E+01  0.32136972919E+02  0.88527579875E+02  0.94450084794E+02  0.00000000000E+00 0. -1.
          2    1    1    2  501    0  0.43980133377E+02  0.49826238534E+01  0.50812137350E+02  0.67386586013E+02  0.00000000000E+00 0. -1.
<scales pt_clust_5="13000.00000" pt_clust_6="13000.00000" pt_clust_7="13000.00000" pt_clust_8="13000.00000" pt_clust_9="13000.00000"></scales>
<clustering>
<clus scale="   88.092">  7  8 -1 -1</clus>
<clus scale="   90.606">  5  6 -1 -1</clus>
<clus scale="   44.262">  5  9 -1 -1</clus>
<clus scale="   90.838">  1  7  2 -1</clus>
<clus scale="  170.397">  2  5  1 -1</clus>
</clustering>
</event>
<event>
 9    1  0.3312826E-006  0.9948567E+03  0.7546771E-02  0.9881786E-01
         21   -1    0    0  501  502  0.00000000000E+00  0.00000000000E+00  0.72117519316E+03  0.72117519316E+03  0.00000000000E+00 0.  1.
         -1   -1    0    0    0  501 -0.00000000000E+00 -0.00000000000E+00 -0.52460583254E+03  0.52460583254E+03  0.00000000000E+00 0.  1.
         23    2    1    2    0    0 -0.48293152910E+02  0.98102255343E+02 -0.13616762444E+03  0.19675583522E+03  0.90636392404E+02 0.  0.
         23    2    1    2    0    0  0.99627032817E+02  0.19162538676E+03 -0.28249198924E+03  0.36705454254E+03  0.91002630170E+02 0.  0.
        -11    1    4    4    0    0  0.11459882484E+03  0.16509281375E+03 -0.26257226795E+03  0.33065499195E+03  0.00000000000E+00 0.  1.
         11    1    4    4    0    0 -0.14971792021E+02  0.26532573018E+02 -0.19919721289E+02  0.36399550594E+02  0.00000000000E+00 0. -1.
        -11    1    3    3    0    0  0.28613713232E+01  0.89178673467E+02 -0.96367494963E+02  0.13133056511E+03  0.00000000000E+00 0.  1.
         11    1    3    3    0    0 -0.51154524233E+02  0.89235818769E+01 -0.39800129476E+02  0.65425270113E+02  0.00000000000E+00 0. -1.
         -1    1    1    2    0  502 -0.51333879908E+02 -0.28972764211E+03  0.61522897430E+03  0.68197064793E+03  0.00000000000E+00 0.  1.
<scales pt_clust_5="13000.00000" pt_clust_6="13000.00000" pt_clust_7="13000.00000" pt_clust_8="13000.00000" pt_clust_9="13000.00000"></scales>
<clustering>
<clus scale="   90.636">  7  8 -1 -1</clus>
<clus scale="   91.003">  5  6 -1 -1</clus>
<clus scale="  142.025">  2  7  1 -1</clus>
<clus scale="  286.088">  5  9 -1 -1</clus>
<clus scale="  994.857">  1  5  2 -1</clus>
</clustering>
</event>
<event>
 9    1  0.3312826E-006  0.1758225E+03  0.7546771E-02  0.1199807E+00
         21   -1    0    0  501  502  0.00000000000E+00  0.00000000000E+00  0.45944457651E+02  0.45944457651E+02  0.00000000000E+00 0.  1.
         -2   -1    0    0    0  501 -0.00000000000E+00 -0.00000000000E+00 -0.52898122350E+03  0.52898122350E+03  0.00000000000E+00 0.  1.
         23    2    1    2    0    0  0.25984324872E+02 -0.14280632335E+02 -0.32519629921E+03  0.33864798864E+03  0.89725724254E+02 0.  0.
         23    2    1    2    0    0  0.20437226841E+02  0.34059725448E+02 -0.16113661100E+03  0.18571053364E+03  0.83340564917E+02 0.  0.
        -13    1    3    3    0    0  0.43399879375E+02 -0.37766370672E+02 -0.27128745964E+03  0.27732063400E+03  0.00000000000E+00 0.  1.
         13    1    3    3    0    0 -0.17415554502E+02  0.23485738336E+02 -0.53908839567E+02  0.61327354641E+02  0.00000000000E+00 0. -1.
        -13    1    4    4    0    0  0.40636541574E+02  0.12684447890E+02 -0.31970058097E+02  0.53238222586E+02  0.00000000000E+00 0.  1.
         13    1    4    4    0    0 -0.20199314733E+02  0.21375277558E+02 -0.12916655290E+03  0.13247231105E+03  0.00000000000E+00 0. -1.
         -2    1    1    2    0  502 -0.46421551713E+02 -0.19779093113E+02  0.32961443690E+01  0.50567158864E+02  0.00000000000E+00 0.  1.
<scales pt_clust_5="13000.00000" pt_clust_6="13000.00000" pt_clust_7="13000.00000" pt_clust_8="13000.00000" pt_clust_9="13000.00000"></scales>
<clustering>
<clus scale="   83.341">  7  8 -1 -1</clus>
<clus scale="   50.460">  7  9 -1 -1</clus>
<clus scale="   89.726">  5  6 -1 -1</clus>
<clus scale="   94.498">  2  5  1 -1</clus>
<clus scale="  175.822">  1  5  2 -1</clus>
</clustering>
</event>
<event>
 9    1  0.3312826E-006  0.1709637E+03  0.7546771E-02  0.1202920E+00
         21   -1    0    0  501  502  0.00000000000E+00  0.00000000000E+00  0.10354359561E+03  0.10354359561E+03  0.00000000000E+00 0.  1.
          1   -1    0    0  502    0 -0.00000000000E+00 -0.00000000000E+00 -0.18008027396E+03  0.18008027396E+03  0.00000000000E+00 0. -1.
         23    2    1    2    0    0 -0.19143452158E+02 -0.69682478961E+01 -0.56572375926E+02  0.11149841651E+03  0.93895872795E+02 0.  0.
         23    2    1    2    0    0  0.59068576970E+02 -0.83510078686E+00 -0.53371405626E+02  0.11948571154E+03  0.89098451984E+02 0.  0.
        -11    1    4    4    0    0 -0.66358962596E+01 -0.20096920745E+02 -0.45981537184E+02  0.50618406775E+02  0.00000000000E+00 0.  1.
         11    1    4    4    0    0  0.65704473230E+02  0.19261819958E+02 -0.73898684411E+01  0.68867304769E+02  0.00000000000E+00 0. -1.
        -11    1    3    3    0    0 -0.30964520658E+02  0.31779829675E+02 -0.31906315240E+01  0.44485269958E+02  0.00000000000E+00 0.  1.
         11    1    3    3    0    0  0.11821068500E+02 -0.38748077571E+02 -0.53381744402E+02  0.67013146555E+02  0.00000000000E+00 0. -1.
          1    1    1    2  501    0 -0.39925124812E+02  0.78033486830E+01  0.33407103198E+02  0.52639741508E+02  0.00000000000E+00 0. -1.
<scales pt_clust_5="13000.00000" pt_clust_6="13000.00000" pt_clust_7="13000.00000" pt_clust_8="13000.00000" pt_clust_9="13000.00000"></scales>
<clustering>
<clus scale="   89.098">  5  6 -1 -1</clus>
<clus scale="   40.681">  5  9 -1 -1</clus>
<clus scale="   93.896">  7  8 -1 -1</clus>
<clus scale="   96.081">  2  7  1 -1</clus>
<clus scale="  170.964">  1  5  2 -1</clus>
</clustering>
</event>
<event>
 9    1  0.3312826E-006  0.2443097E+03  0.7546771E-02  0.1148193E+00
         21   -1    0    0  501  502  0.00000000000E+00  0.00000000000E+00  0.87602740017E+02  0.87602740017E+02  0.00000000000E+00 0. -1.
          2   -1    0    0  502    0 -0.00000000000E+00 -0.00000000000E+00 -0.54457868111E+03  0.54457868111E+03  0.00000000000E+00 0. -1.
         23    2    1    2    0    0  0.66689516394E+02 -0.10317624647E+02 -0.34526436728E+03  0.36354276551E+03  0.91661955393E+02 0.  0.
         23    2    1    2    0    0 -0.47415215948E+02  0.85293904236E+02 -0.13330258293E+03  0.18827004960E+03  0.90292746981E+02 0.  0.
        -11    1    3    3    0    0  0.57805571127E+02 -0.47544533797E+02 -0.20862709896E+03  0.22164664032E+03  0.00000000000E+00 0.  1.
         11    1    3    3    0    0  0.88839452663E+01  0.37226909150E+02 -0.13663726832E+03  0.14189612519E+03  0.00000000000E+00 0. -1.
        -11    1    4    4    0    0 -0.34960427974E+02  0.10441528609E+03 -0.10921525312E+03  0.15508950644E+03  0.00000000000E+00 0. -1.
         11    1    4    4    0    0 -0.12454787974E+02 -0.19121381850E+02 -0.24087329804E+02  0.33180543161E+02  0.00000000000E+00 0.  1.
          2    1    1    2  501    0 -0.19274300446E+02 -0.74976279589E+02  0.21591009115E+02  0.80368606018E+02  0.00000000000E+00 0. -1.
<scales pt_clust_5="13000.00000" pt_clust_6="13000.00000" pt_clust_7="13000.00000" pt_clust_8="13000.00000" pt_clust_9="13000.00000"></scales>
<clustering>
<clus scale="   90.293">  7  8 -1 -1</clus>
<clus scale="   77.414">  7  9 -1 -1</clus>
<clus scale="   91.662">  5  6 -1 -1</clus>
<clus scale="  113.824">  2  5  1 -1</clus>
<clus scale="  244.310">  1  5  2 -1</clus>
</clustering>
</event>
<event>
 9    1  0.3312826E-006  0.4798651E+03  0.7546771E-02  0.1026213E+00
         21   -1    0    0  501  502  0.00000000000E+00  0.00000000000E+00  0.89269810228E+02  0.89269810228E+02  0.00000000000E+00 0.  1.
          2   -1    0    0  502    0 -0.00000000000E+00 -0.00000000000E+00 -0.21399198527E+04  0.21399198527E+04  0.00000000000E+00 0. -1.
         23    2    1    2    0    0  0.36426839652E+03  0.97965469012E+02 -0.78814701521E+03  0.87856595279E+03  0.91726321139E+02 0.  0.
         23    2    1    2    0    0 -0.32805857887E+01 -0.33798239914E+02 -0.43367211681E+03  0.44431785067E+03  0.90519413724E+02 0.  0.
        -11    1    4    4    0    0 -0.27330984381E+02  0.21745892088E+02 -0.19414060262E+03  0.19725729420E+03  0.00000000000E+00 0. -1.
         11    1    4    4    0    0  0.24050398592E+02 -0.55544132003E+02 -0.23953151419E+03  0.24706055647E+03  0.00000000000E+00 0.  1.
        -13    1    3    3    0    0  0.19333346461E+03  0.41990401573E+02 -0.31047400546E+03  0.36815096147E+03  0.00000000000E+00 0.  1.
         13    1    3    3    0    0  0.17093493191E+03  0.55975067439E+02 -0.47767300975E+03  0.51041499132E+03  0.00000000000E+00 0. -1.
          2    1    1    2  501    0 -0.36098781073E+03 -0.64167229098E+02 -0.82883091043E+03  0.90630585945E+03  0.00000000000E+00 0. -1.
<scales pt_clust_5="13000.00000" pt_clust_6="13000.00000" pt_clust_7="13000.00000" pt_clust_8="13000.00000" pt_clust_9="13000.00000"></scales>
<clustering>
<clus scale="   90.519">  5  6 -1 -1</clus>
<clus scale="   91.726">  7  8 -1 -1</clus>
<clus scale="  366.647">  5  9 -1 -1</clus>
<clus scale="  388.204">  2  7  1 -1</clus>
<clus scale="  479.865">  1  5  2 -1</clus>
</clustering>
</event>
<event>
 9    1  0.3312826E-006  0.1578941E+03  0.7546771E-02  0.1216483E+00
         21   -1    0    0  501  502  0.00000000000E+00  0.00000000000E+00  0.46053408001E+02  0.46053408001E+02  0.00000000000E+00 0. -1.
          1   -1    0    0  502    0 -0.00000000000E+00 -0.00000000000E+00 -0.34714851789E+03  0.34714851789E+03  0.00000000000E+00 0. -1.
         23    2    1    2    0    0  0.18696259137E+02  0.46192408268E+01 -0.14380599525E+03  0.17033332430E+03  0.89232222903E+02 0.  0.
         23    2    1    2    0    0  0.32730387331E+02 -0.25421895969E+02 -0.90166765997E+02  0.13578898219E+03  0.92687922327E+02 0.  0.
        -11    1    3    3    0    0  0.24334589819E+02 -0.29829789082E+02 -0.23584711620E+02  0.45146729677E+02  0.00000000000E+00 0.  1.
         11    1    3    3    0    0 -0.56383306821E+01  0.34449029908E+02 -0.12022128363E+03  0.12518659462E+03  0.00000000000E+00 0. -1.
        -13    1    4    4    0    0  0.46680407310E+00 -0.55355917640E+02 -0.36164555207E+02  0.66123903221E+02  0.00000000000E+00 0.  1.
         13    1    4    4    0    0  0.32263583258E+02  0.29934021671E+02 -0.54002210790E+02  0.69665078973E+02  0.00000000000E+00 0. -1.
          1    1    1    2  501    0 -0.51426646468E+02  0.20802655143E+02 -0.67122348638E+02  0.87079619399E+02  0.00000000000E+00 0. -1.
<scales pt_clust_5="13000.00000" pt_clust_6="13000.00000" pt_clust_7="13000.00000" pt_clust_8="13000.00000" pt_clust_9="13000.00000"></scales>
<clustering>
<clus scale="   89.232">  5  6 -1 -1</clus>
<clus scale="   91.287">  2  5  1 -1</clus>
<clus scale="   92.688">  7  8 -1 -1</clus>
<clus scale="   49.360">  7  9 -1 -1</clus>
<clus scale="  157.894">  1  5  2 -1</clus>
</clustering>
</event>
<event>
 9    1  0.3312826E-006  0.4404933E+03  0.7546771E-02  0.1087250E+00
          1   -1    0    0  502    0 -0.00000000000E+00  0.00000000000E+00  0.80061091615E+03  0.80061091615E+03  0.00000000000E+00 0. -1.
         21   -1    0    0  501  502  0.00000000000E+00 -0.00000000000E+00 -0.12145464914E+03  0.12145464914E+03  0.00000000000E+00 0. -1.
         23    2    1    2    0    0 -0.12018842820E+02 -0.19186114798E+02  0.37784666779E+03  0.38837854760E+03  0.86932343171E+02 0.  0.
         23    2    1    2    0    0  0.57075783029E+02  0.10131507910E+03  0.38486713898E+03  0.40815950243E+03  0.70349658840E+02 0.  0.
        -11    1    4    4    0    0  0.13074600819E+02  0.85981422959E+02  0.21258060697E+03  0.22968296572E+03  0.00000000000E+00 0. -1.
         11    1    4    4    0    0  0.44001182210E+02  0.15333656140E+02  0.17228653200E+03  0.17847653671E+03  0.00000000000E+00 0.  1.
        -13    1    3    3    0    0 -0.10291381101E+02  0.33003911650E+02  0.20219821260E+03  0.20513236675E+03  0.00000000000E+00 0.  1.
         13    1    3    3    0    0 -0.17274617193E+01 -0.52190026448E+02  0.17564845519E+03  0.18324618085E+03  0.00000000000E+00 0. -1.
          1    1    1    2  501    0 -0.45056940209E+02 -0.82128964300E+02 -0.83557539756E+02  0.12552751526E+03  0.00000000000E+00 0. -1.
<scales pt_clust_5="13000.00000" pt_clust_6="13000.00000" pt_clust_7="13000.00000" pt_clust_8="13000.00000" pt_clust_9="13000.00000"></scales>
<clustering>
<clus scale="   70.350">  5  6 -1 -1</clus>
<clus scale="   86.932">  7  8 -1 -1</clus>
<clus scale="   89.832">  1  7  2 -1</clus>
<clus scale="   94.813">  5  9 -1 -1</clus>
<clus scale="  440.493">  2  5  1 -1</clus>
</clustering>
</event>
<event>
 9    1  0.3312826E-006  0.3033817E+03  0.7546771E-02  0.1128879E+00
          1   -1    0    0  502    0 -0.00000000000E+00  0.00000000000E+00  0.49219335804E+03  0.49219335804E+03  0.00000000000E+00 0. -1.
         21   -1    0    0  501  502  0.00000000000E+00 -0.00000000000E+00 -0.99219201864E+02  0.99219201864E+02  0.00000000000E+00 0. -1.
         23    2    1    2    0    0 -0.39013924177E+02 -0.96737366484E+01  0.22605979064E+03  0.24514554588E+03  0.85893202649E+02 0.  0.
         23    2    1    2    0    0  0.15975076411E+02  0.22528202614E+02  0.24527387888E+03  0.26358546145E+03  0.92494847678E+02 0.  0.
        -11    1    3    3    0    0  0.15916794803E+02 -0.12857740167E+02  0.11146460122E+02  0.23300416568E+02  0.00000000000E+00 0.  1.
         11    1    3    3    0    0 -0.54930718980E+02  0.31840035184E+01  0.21491333052E+03  0.22184512932E+03  0.00000000000E+00 0. -1.
        -13    1    4    4    0    0 -0.89550762129E+01 -0.24382832340E+02  0.21881795365E+02  0.33963640431E+02  0.00000000000E+00 0.  1.
         13    1    4    4    0    0  0.24930152624E+02  0.46911034955E+02  0.22339208352E+03  0.22962182102E+03  0.00000000000E+00 0. -1.
          1    1    1    2  501    0  0.23038847766E+02 -0.12854465966E+02 -0.78359513353E+02  0.82681552565E+02  0.00000000000E+00 0. -1.
<scales pt_clust_5="13000.00000" pt_clust_6="13000.00000" pt_clust_7="13000.00000" pt_clust_8="13000.00000" pt_clust_9="13000.00000"></scales>
<clustering>
<clus scale="   85.893">  5  6 -1 -1</clus>
<clus scale="   92.495">  7  8 -1 -1</clus>
<clus scale="   26.382">  7  9 -1 -1</clus>
<clus scale="   94.833">  1  5  2 -1</clus>
<clus scale="  303.382">  2  5  1 -1</clus>
</clustering>
</event>
<event>
 9    1  0.3312826E-006  0.1536373E+03  0.7546771E-02  0.1209273E+00
         21   -1    0    0  501  502  0.00000000000E+00  0.00000000000E+00  0.23502124514E+03  0.23502124514E+03  0.00000000000E+00 0.  1.
         -1   -1    0    0    0  501 -0.00000000000E+00 -0.00000000000E+00 -0.97038079608E+02  0.97038079608E+02  0.00000000000E+00 0.  1.
         23    2    1    2    0    0  0.29200430370E+02  0.65695686325E+02 -0.13527655929E+02  0.11628176159E+03  0.90387290417E+02 0.  0.
         23    2    1    2    0    0 -0.11980606450E+02 -0.45721990850E+02  0.53598897676E+02  0.11437630248E+03  0.89303199040E+02 0.  0.
        -11    1    4    4    0    0  0.37820694647E+02 -0.95149982893E+01  0.26203607854E+02  0.46984776264E+02  0.00000000000E+00 0.  1.
         11    1    4    4    0    0 -0.49801301097E+02 -0.36206992561E+02  0.27395289822E+02  0.67391526216E+02  0.00000000000E+00 0. -1.
        -13    1    3    3    0    0  0.56722505685E+02  0.16502294874E+02 -0.52286080119E+01  0.59305199848E+02  0.00000000000E+00 0. -1.
         13    1    3    3    0    0 -0.27522075314E+02  0.49193391451E+02 -0.82990479171E+01  0.56976561746E+02  0.00000000000E+00 0.  1.
         -1    1    1    2    0  502 -0.17219823921E+02 -0.19973695475E+02  0.97911923786E+02  0.10140126067E+03  0.00000000000E+00 0.  1.
<scales pt_clust_5="13000.00000" pt_clust_6="13000.00000" pt_clust_7="13000.00000" pt_clust_8="13000.00000" pt_clust_9="13000.00000"></scales>
<clustering>
<clus scale="   89.303">  5  6 -1 -1</clus>
<clus scale="   26.372">  5  9 -1 -1</clus>
<clus scale="   90.387">  7  8 -1 -1</clus>
<clus scale="  115.492">  2  7  1 -1</clus>
<clus scale="  153.637">  1  5  2 -1</clus>
</clustering>
</event>
<event>
 9    1  0.3312826E-006  0.4798150E+03  0.7546771E-02  0.1075096E+00
          1   -1    0    0  502    0 -0.00000000000E+00  0.00000000000E+00  0.17219976925E+03  0.17219976925E+03  0.00000000000E+00 0. -1.
         21   -1    0    0  501  502  0.00000000000E+00 -0.00000000000E+00 -0.59181540543E+03  0.59181540543E+03  0.00000000000E+00 0. -1.
         23    2    1    2    0    0  0.43092400189E+01  0.58702351244E+01  0.35494111126E+02  0.10269280573E+03  0.96088247011E+02 0.  0.
         23    2    1    2    0    0 -0.29399416243E+02  0.13938144858E+03  0.13794996631E+02  0.16979492571E+03  0.91370131792E+02 0.  0.
        -11    1    4    4    0    0  0.29460639913E+02  0.18600576573E+02  0.14923285858E+01  0.34873167300E+02  0.00000000000E+00 0.  1.
         11    1    4    4    0    0 -0.58860056156E+02  0.12078087200E+03  0.12302668045E+02  0.13492175841E+03  0.00000000000E+00 0. -1.
        -11    1    3    3    0    0  0.13173776888E+02  0.49675825048E+02  0.22860607634E+02  0.56248052171E+02  0.00000000000E+00 0. -1.
         11    1    3    3    0    0 -0.88645368689E+01 -0.43805589924E+02  0.12633503492E+02  0.46444753557E+02  0.00000000000E+00 0.  1.
          1    1    1    2  501    0  0.25090176224E+02 -0.14525168370E+03 -0.46890474394E+03  0.49152744323E+03  0.00000000000E+00 0. -1.
<scales pt_clust_5="13000.00000" pt_clust_6="13000.00000" pt_clust_7="13000.00000" pt_clust_8="13000.00000" pt_clust_9="13000.00000"></scales>
<clustering>
<clus scale="   91.370">  5  6 -1 -1</clus>
<clus scale="   96.088">  7  8 -1 -1</clus>
<clus scale="   96.364">  1  7  2 -1</clus>
<clus scale="  146.850">  5  9 -1 -1</clus>
<clus scale="  479.815">  2  5  1 -1</clus>
</clustering>
</event>
<event>
 9    1  0.3312826E-006  0.1702657E+03  0.7546771E-02  0.1205811E+00
          4   -1    0    0  502    0 -0.00000000000E+00  0.00000000000E+00  0.11244251244E+03  0.11244251244E+03  0.00000000000E+00 0. -1.
         21   -1    0    0  501  502  0.00000000000E+00 -0.00000000000E+00 -0.18457574238E+03  0.18457574238E+03  0.00000000000E+00 0.  1.
         23    2    1    2    0    0  0.29896562263E+01  0.63744250116E+01  0.32703872376E+02  0.97065154659E+02  0.91118217948E+02 0.  0.
         23    2    1    2    0    0 -0.37145759240E+02  0.38388696936E+02 -0.35511241471E+02  0.11064211851E+03  0.90150599756E+02 0.  0.
        -13    1    3    3    0    0 -0.43788733894E+02 -0.12038540144E+01  0.18888889612E+02  0.47704220267E+02  0.00000000000E+00 0.  1.
         13    1    3    3    0    0  0.46778390120E+02  0.75782790260E+01  0.13814982764E+02  0.49360934392E+02  0.00000000000E+00 0. -1.
        -13    1    4    4    0    0  0.77615250927E+01  0.50994627323E+02 -0.37789833301E+02  0.63943449926E+02  0.00000000000E+00 0.  1.
         13    1    4    4    0    0 -0.44907284333E+02 -0.12605930387E+02  0.22785918299E+01  0.46698668587E+02  0.00000000000E+00 0. -1.
          4    1    1    2  501    0  0.34156103014E+02 -0.44763121947E+02 -0.69325860845E+02  0.89310981640E+02  0.00000000000E+00 0. -1.
<scales pt_clust_5="13000.00000" pt_clust_6="13000.00000" pt_clust_7="13000.00000" pt_clust_8="13000.00000" pt_clust_9="13000.00000"></scales>
<clustering>
<clus scale="   90.151">  7  8 -1 -1</clus>
<clus scale="   56.306">  7  9 -1 -1</clus>
<clus scale="   91.118">  5  6 -1 -1</clus>
<clus scale="   91.390">  1  5  2 -1</clus>
<clus scale="  170.266">  2  5  1 -1</clus>
</clustering>
</event>
<event>
 9    1  0.3312826E-006  0.2747233E+03  0.7546771E-02  0.1103515E+00
         -1   -1    0    0    0  501 -0.00000000000E+00  0.00000000000E+00  0.28994239229E+02  0.28994239229E+02  0.00000000000E+00 0.  1.
         21   -1    0    0  501  502  0.00000000000E+00 -0.00000000000E+00 -0.23725453205E+04  0.23725453205E+04  0.00000000000E+00 0.  1.
         23    2    1    2    0    0 -0.21522197106E+03 -0.64239826478E+02 -0.89239169114E+03  0.92460474115E+03  0.89909647930E+02 0.  0.
         23    2    1    2    0    0  0.78109838373E+02 -0.69596872525E+01 -0.56831597584E+03  0.58067503379E+03  0.89726597925E+02 0.  0.
        -13    1    3    3    0    0 -0.20499396178E+03 -0.82517448680E+02 -0.81296977105E+03  0.84246750819E+03  0.00000000000E+00 0.  1.
         13    1    3    3    0    0 -0.10228009284E+02  0.18277622203E+02 -0.79421920092E+02  0.82137232961E+02  0.00000000000E+00 0. -1.
        -13    1    4    4    0    0  0.72438966294E+02 -0.39353571508E+02 -0.46500503232E+03  0.47225606138E+03  0.00000000000E+00 0.  1.
         13    1    4    4    0    0  0.56708720783E+01  0.32393884255E+02 -0.10331094351E+03  0.10841897240E+03  0.00000000000E+00 0. -1.
         -1    1    1    2    0  502  0.13711213269E+03  0.71199513730E+02 -0.88284341426E+03  0.89625978477E+03  0.00000000000E+00 0.  1.
<scales pt_clust_5="13000.00000" pt_clust_6="13000.00000" pt_clust_7="13000.00000" pt_clust_8="13000.00000" pt_clust_9="13000.00000"></scales>
<clustering>
<clus scale="   89.727">  7  8 -1 -1</clus>
<clus scale="   89.910">  5  6 -1 -1</clus>
<clus scale="  154.496">  7  9 -1 -1</clus>
<clus scale="  241.932">  1  5  2 -1</clus>
<clus scale="  274.723">  2  5  1 -1</clus>
</clustering>
</event>
<event>
 9    1  0.3312826E-006  0.1860077E+03  0.7546771E-02  0.1184165E+00
          1   -1    0    0  502    0 -0.00000000000E+00  0.00000000000E+00  0.55189587285E+03  0.55189587285E+03  0.00000000000E+00 0. -1.
         21   -1    0    0  501  502  0.00000000000E+00 -0.00000000000E+00 -0.67626314445E+02  0.67626314445E+02  0.00000000000E+00 0. -1.
         23    2    1    2    0    0  0.71543905089E+02  0.29813596540E+01  0.39956761359E+03  0.41513708200E+03  0.86931583249E+02 0.  0.
         23    2    1    2    0    0 -0.64754284664E+02 -0.45577387606E+02  0.15336583645E+02  0.12270234166E+03  0.92467498121E+02 0.  0.
        -13    1    3    3    0    0  0.66359504744E+02  0.27207925724E+02  0.36842907130E+03  0.37534495557E+03  0.00000000000E+00 0.  1.
         13    1    3    3    0    0  0.51844003456E+01 -0.24226566070E+02  0.31138542289E+02  0.39792126437E+02  0.00000000000E+00 0. -1.
        -13    1    4    4    0    0 -0.22639885684E+02 -0.67248605629E+02 -0.50526978682E+01  0.71136974482E+02  0.00000000000E+00 0. -1.
         13    1    4    4    0    0 -0.42114398980E+02  0.21671218023E+02  0.20389281513E+02  0.51565367182E+02  0.00000000000E+00 0.  1.
          1    1    1    2  501    0 -0.67896204253E+01  0.42596027952E+02  0.69365361170E+02  0.81682763623E+02  0.00000000000E+00 0. -1.
<scales pt_clust_5="13000.00000" pt_clust_6="13000.00000" pt_clust_7="13000.00000" pt_clust_8="13000.00000" pt_clust_9="13000.00000"></scales>
<clustering>
<clus scale="   86.932">  5  6 -1 -1</clus>
<clus scale="   92.467">  7  8 -1 -1</clus>
<clus scale="   43.134">  7  9 -1 -1</clus>
<clus scale="  112.626">  1  5  2 -1</clus>
<clus scale="  186.008">  2  5  1 -1</clus>
</clustering>
</event>
<event>
 9    1  0.3312826E-006  0.4831686E+03  0.7546771E-02  0.1070320E+00
          1   -1    0    0  502    0 -0.00000000000E+00  0.00000000000E+00  0.10216107697E+03  0.10216107697E+03  0.00000000000E+00 0. -1.
         21   -1    0    0  501  502  0.00000000000E+00 -0.00000000000E+00 -0.88120099073E+03  0.88120099073E+03  0.00000000000E+00 0.  1.
         23    2    1    2    0    0 -0.57336080535E+02  0.88844005803E+01 -0.81920173071E+02  0.13517112577E+03  0.90520493715E+02 0.  0.
         23    2    1    2    0    0 -0.12647222472E+02 -0.23168095717E+03 -0.36689666968E+03  0.44373668623E+03  0.91940536938E+02 0.  0.
        -11    1    3    3    0    0  0.16104741435E+02  0.27375781918E+02 -0.25526048960E+02  0.40747703099E+02  0.00000000000E+00 0. -1.
         11    1    3    3    0    0 -0.73440821970E+02 -0.18491381338E+02 -0.56394124112E+02  0.94423422675E+02  0.00000000000E+00 0.  1.
        -11    1    4    4    0    0  0.20401206046E+02 -0.19030080584E+03 -0.24547886010E+03  0.31127235128E+03  0.00000000000E+00 0.  1.
         11    1    4    4    0    0 -0.33048428518E+02 -0.41380151322E+02 -0.12141780958E+03  0.13246433495E+03  0.00000000000E+00 0. -1.
          1    1    1    2  501    0  0.69983303007E+02  0.22279655659E+03 -0.33022307101E+03  0.40445425570E+03  0.00000000000E+00 0. -1.
<scales pt_clust_5="13000.00000" pt_clust_6="13000.00000" pt_clust_7="13000.00000" pt_clust_8="13000.00000" pt_clust_9="13000.00000"></scales>
<clustering>
<clus scale="   90.520">  5  6 -1 -1</clus>
<clus scale="   91.941">  7  8 -1 -1</clus>
<clus scale="  107.519">  1  5  2 -1</clus>
<clus scale="  230.978">  7  9 -1 -1</clus>
<clus scale="  483.169">  2  5  1 -1</clus>
</clustering>
</event>
<event>
 9    1  0.3312826E-006  0.1559934E+03  0.7546771E-02  0.1217018E+00
          2   -1    0    0  502    0 -0.00000000000E+00  0.00000000000E+00  0.24919169786E+03  0.24919169786E+03  0.00000000000E+00 0. -1.
         21   -1    0    0  501  502  0.00000000000E+00 -0.00000000000E+00 -0.21107738324E+03  0.21107738324E+03  0.00000000000E+00 0. -1.
         23    2    1    2    0    0  0.89219623757E+01  0.49298314084E+01  0.20893252052E+03  0.22894076818E+03  0.93043928078E+02 0.  0.
         23    2    1    2    0    0 -0.90650162873E+01  0.42911763229E+02 -0.67910077687E+02  0.11784297689E+03  0.85741440424E+02 0.  0.
        -11    1    3    3    0    0  0.24497214050E+02 -0.35700369416E+02  0.61437667794E+02  0.75161272585E+02  0.00000000000E+00 0.  1.
         11    1    3    3    0    0 -0.15575251674E+02  0.40630200824E+02  0.14749485273E+03  0.15377949559E+03  0.00000000000E+00 0. -1.
        -13    1    4    4    0    0 -0.67454765393E+01  0.20452264376E+02 -0.86160037869E+02  0.88810746520E+02  0.00000000000E+00 0.  1.
         13    1    4    4    0    0 -0.23195397480E+01  0.22459498853E+02  0.18249960181E+02  0.29032230365E+02  0.00000000000E+00 0. -1.
          2    1    1    2  501    0  0.14305391165E+00 -0.47841594637E+02 -0.10290812822E+03  0.11348533604E+03  0.00000000000E+00 0. -1.
<scales pt_clust_5="13000.00000" pt_clust_6="13000.00000" pt_clust_7="13000.00000" pt_clust_8="13000.00000" pt_clust_9="13000.00000"></scales>
<clustering>
<clus scale="   85.741">  7  8 -1 -1</clus>
<clus scale="   47.842">  7  9 -1 -1</clus>
<clus scale="   93.044">  5  6 -1 -1</clus>
<clus scale="   93.601">  1  5  2 -1</clus>
<clus scale="  155.993">  2  5  1 -1</clus>
</clustering>
</event>
<event>
 9    1  0.3312826E-006  0.1712136E+03  0.7546771E-02  0.1196719E+00
         21   -1    0    0  501  502  0.00000000000E+00  0.00000000000E+00  0.51343510465E+02  0.51343510465E+02  0.00000000000E+00 0. -1.
         -3   -1    0    0    0  501 -0.00000000000E+00 -0.00000000000E+00 -0.42026299929E+03  0.42026299929E+03  0.00000000000E+00 0.  1.
         23    2    1    2    0    0 -0.58133790286E+02  0.10351881767E+02 -0.21553126005E+03  0.24173252838E+03  0.92163941917E+02 0.  0.
         23    2    1    2    0    0 -0.98213078645E+00 -0.39280341449E+02 -0.12295785886E+03  0.15736497975E+03  0.90006621919E+02 0.  0.
        -13    1    4    4    0    0 -0.42019011722E+02 -0.32945216755E+02 -0.48608816994E+02  0.72206659961E+02  0.00000000000E+00 0.  1.
         13    1    4    4    0    0  0.41036880936E+02 -0.63351246935E+01 -0.74349041869E+02  0.85158319785E+02  0.00000000000E+00 0. -1.
        -13    1    3    3    0    0  0.64127218848E+01  0.29568599778E+02 -0.23731415514E+02  0.38452635503E+02  0.00000000000E+00 0. -1.
         13    1    3    3    0    0 -0.64546512171E+02 -0.19216718011E+02 -0.19179984454E+03  0.20327989288E+03  0.00000000000E+00 0.  1.
         -3    1    1    2    0  502  0.59115921073E+02  0.28928459682E+02 -0.30430369909E+02  0.72509001624E+02  0.00000000000E+00 0.  1.
<scales pt_clust_5="13000.00000" pt_clust_6="13000.00000" pt_clust_7="13000.00000" pt_clust_8="13000.00000" pt_clust_9="13000.00000"></scales>
<clustering>
<clus scale="   90.007">  5  6 -1 -1</clus>
<clus scale="   65.815">  5  9 -1 -1</clus>
<clus scale="   92.164">  7  8 -1 -1</clus>
<clus scale="  109.457">  2  7  1 -1</clus>
<clus scale="  171.214">  1  5  2 -1</clus>
</clustering>
</event>
<event>
 9    1  0.3312826E-006  0.1414502E+03  0.7546771E-02  0.1225589E+00
          1   -1    0    0  502    0 -0.00000000000E+00  0.00000000000E+00  0.48245730210E+02  0.48245730210E+02  0.00000000000E+00 0. -1.
         21   -1    0    0  501  502  0.00000000000E+00 -0.00000000000E+00 -0.46418146381E+03  0.46418146381E+03  0.00000000000E+00 0.  1.
         23    2    1    2    0    0  0.50496685357E+02  0.23947759172E+01 -0.42657430319E+02  0.11324697512E+03  0.91921547145E+02 0.  0.
         23    2    1    2    0    0 -0.89599499387E+01  0.33451841955E+02 -0.23831399931E+03  0.25348998673E+03  0.79147360491E+02 0.  0.
        -11    1    3    3    0    0  0.43561513559E+02 -0.31714746371E+02  0.51296259018E+01  0.54127106544E+02  0.00000000000E+00 0. -1.
         11    1    3    3    0    0  0.69351717980E+01  0.34109522289E+02 -0.47787056220E+02  0.59119868579E+02  0.00000000000E+00 0.  1.
        -13    1    4    4    0    0 -0.42945319278E+02  0.14757603649E+02 -0.15636057311E+03  0.16282111698E+03  0.00000000000E+00 0. -1.
         13    1    4    4    0    0  0.33985369339E+02  0.18694238306E+02 -0.81953426205E+02  0.90668869750E+02  0.00000000000E+00 0.  1.
          1    1    1    2  501    0 -0.41536735418E+02 -0.35846617872E+02 -0.13496430397E+03  0.14569023217E+03  0.00000000000E+00 0. -1.
<scales pt_clust_5="13000.00000" pt_clust_6="13000.00000" pt_clust_7="13000.00000" pt_clust_8="13000.00000" pt_clust_9="13000.00000"></scales>
<clustering>
<clus scale="   79.147">  7  8 -1 -1</clus>
<clus scale="   54.866">  7  9 -1 -1</clus>
<clus scale="   91.922">  5  6 -1 -1</clus>
<clus scale="  104.906">  1  5  2 -1</clus>
<clus scale="  141.450">  2  5  1 -1</clus>
</clustering>
</event>
<event>
 9    1  0.3312826E-006  0.1629755E+03  0.7546771E-02  0.1209494E+00
         21   -1    0    0  501  502  0.00000000000E+00  0.00000000000E+00  0.36062902285E+02  0.36062902285E+02  0.00000000000E+00 0.  1.
          1   -1    0    0  502    0 -0.00000000000E+00 -0.00000000000E+00 -0.47528131716E+03  0.47528131716E+03  0.00000000000E+00 0. -1.
         23    2    1    2    0    0  0.81818869020E+01 -0.27194894004E+02 -0.19875738046E+03  0.22085754732E+03  0.92016598436E+02 0.  0.
         23    2    1    2    0    0 -0.23965487261E+01 -0.36065996741E+02 -0.15460379978E+03  0.18368369851E+03  0.92362690638E+02 0.  0.
        -11    1    3    3    0    0 -0.24380597047E+02 -0.19168941370E+01 -0.80513076718E+01  0.25747068779E+02  0.00000000000E+00 0.  1.
         11    1    3    3    0    0  0.32562483949E+02 -0.25277999867E+02 -0.19070607279E+03  0.19511047854E+03  0.00000000000E+00 0. -1.
        -11    1    4    4    0    0 -0.40699171482E+02 -0.44136899997E+02 -0.92962345739E+02  0.11066384335E+03  0.00000000000E+00 0.  1.
         11    1    4    4    0    0  0.38302622756E+02  0.80709032554E+01 -0.61641454046E+02  0.73019855151E+02  0.00000000000E+00 0. -1.
          1    1    1    2  501    0 -0.57853381759E+01  0.63260890745E+02 -0.85857234630E+02  0.10680297362E+03  0.00000000000E+00 0. -1.
<scales pt_clust_5="13000.00000" pt_clust_6="13000.00000" pt_clust_7="13000.00000" pt_clust_8="13000.00000" pt_clust_9="13000.00000"></scales>
<clustering>
<clus scale="   92.017">  5  6 -1 -1</clus>
<clus scale="   92.363">  7  8 -1 -1</clus>
<clus scale="   63.525">  7  9 -1 -1</clus>
<clus scale="   96.299">  2  5  1 -1</clus>
<clus scale="  162.975">  1  5  2 -1</clus>
</clustering>
</event>
<event>
 9    1  0.3312826E-006  0.3411230E+03  0.7546771E-02  0.1091488E+00
         21   -1    0    0  501  502  0.00000000000E+00  0.00000000000E+00  0.81710832173E+02  0.81710832173E+02  0.00000000000E+00 0.  1.
          2   -1    0    0  502    0 -0.00000000000E+00 -0.00000000000E+00 -0.81059318234E+03  0.81059318234E+03  0.00000000000E+00 0. -1.
         23    2    1    2    0    0  0.84239003920E+01  0.14669182117E+03 -0.22361551891E+03  0.28266518383E+03  0.91138649085E+02 0.  0.
         23    2    1    2    0    0 -0.11809850714E+03 -0.11554232765E+03 -0.44071264759E+03  0.47861954607E+03  0.86900778306E+02 0.  0.
        -11    1    4    4    0    0 -0.92905206217E+02 -0.12427111229E+03 -0.40742686559E+03  0.43597171639E+03  0.00000000000E+00 0. -1.
         11    1    4    4    0    0 -0.25193300924E+02  0.87287846456E+01 -0.33285782002E+02  0.42647829679E+02  0.00000000000E+00 0.  1.
        -13    1    3    3    0    0 -0.12154852690E+02  0.91115544537E+02 -0.62932286590E+02  0.11140132672E+03  0.00000000000E+00 0.  1.
         13    1    3    3    0    0  0.20578753082E+02  0.55576276629E+02 -0.16068323232E+03  0.17126385710E+03  0.00000000000E+00 0. -1.
          2    1    1    2  501    0  0.10967460675E+03 -0.31149493519E+02 -0.64554183676E+02  0.13101928462E+03  0.00000000000E+00 0. -1.
<scales pt_clust_5="13000.00000" pt_clust_6="13000.00000" pt_clust_7="13000.00000" pt_clust_8="13000.00000" pt_clust_9="13000.00000"></scales>
<clustering>
<clus scale="   86.901">  5  6 -1 -1</clus>
<clus scale="   91.139">  7  8 -1 -1</clus>
<clus scale="  114.012">  5  9 -1 -1</clus>
<clus scale="  172.904">  2  7  1 -1</clus>
<clus scale="  341.123">  1  5  2 -1</clus>
</clustering>
</event>
<event>
 9    1  0.3312826E-006  0.3004198E+03  0.7546771E-02  0.1117978E+00
         21   -1    0    0  501  502  0.00000000000E+00  0.00000000000E+00  0.19124372742E+03  0.19124372742E+03  0.00000000000E+00 0. -1.
          1   -1    0    0  502    0 -0.00000000000E+00 -0.00000000000E+00 -0.44789950861E+03  0.44789950861E+03  0.00000000000E+00 0. -1.
         23    2    1    2    0    0  0.76059481580E+02 -0.47458848943E+02 -0.30873695194E+03  0.33424238122E+03  0.91444391977E+02 0.  0.
         23    2    1    2    0    0 -0.41838476196E+01  0.19177151415E+02 -0.98938399676E+02  0.13527517332E+03  0.90140434151E+02 0.  0.
        -11    1    3    3    0    0  0.56511490127E+02 -0.19640431748E+02 -0.28858049076E+03  0.29471680427E+03  0.00000000000E+00 0. -1.
         11    1    3    3    0    0  0.19547991453E+02 -0.27818417195E+02 -0.20156461187E+02  0.39525576942E+02  0.00000000000E+00 0.  1.
        -13    1    4    4    0    0 -0.28813331732E+02 -0.27262938174E+02 -0.43898934675E+02  0.59165803882E+02  0.00000000000E+00 0.  1.
         13    1    4    4    0    0  0.24629484112E+02  0.46440089589E+02 -0.55039465001E+02  0.76109369438E+02  0.00000000000E+00 0. -1.
          1    1    1    2  501    0 -0.71875633960E+02  0.28281697527E+02  0.15101957043E+03  0.16962568150E+03  0.00000000000E+00 0. -1.
<scales pt_clust_5="13000.00000" pt_clust_6="13000.00000" pt_clust_7="13000.00000" pt_clust_8="13000.00000" pt_clust_9="13000.00000"></scales>
<clustering>
<clus scale="   90.140">  7  8 -1 -1</clus>
<clus scale="   77.240">  7  9 -1 -1</clus>
<clus scale="   91.444">  5  6 -1 -1</clus>
<clus scale="  128.060">  2  5  1 -1</clus>
<clus scale="  300.420">  1  5  2 -1</clus>
</clustering>
</event>
<event>
 9    1  0.3312826E-006  0.7897727E+03  0.7546771E-02  0.9831183E-01
         21   -1    0    0  501  502  0.00000000000E+00  0.00000000000E+00  0.85067588113E+03  0.85067588113E+03  0.00000000000E+00 0.  1.
         -1   -1    0    0    0  501 -0.00000000000E+00 -0.00000000000E+00 -0.46242461664E+03  0.46242461664E+03  0.00000000000E+00 0.  1.
         23    2    1    2    0    0 -0.22902169359E+03  0.22716634317E+03 -0.14029095766E+03  0.36278588358E+03  0.88749991081E+02 0.  0.
         23    2    1    2    0    0  0.38589320065E+03  0.56381248693E+02  0.47386635749E+03  0.62168510127E+03  0.99250354508E+02 0.  0.
        -11    1    4    4    0    0  0.81667770114E+02  0.49542253538E+02  0.84648705892E+02  0.12763018048E+03  0.00000000000E+00 0. -1.
         11    1    4    4    0    0  0.30422543054E+03  0.68389951553E+01  0.38921765160E+03  0.49405492079E+03  0.00000000000E+00 0.  1.
        -13    1    3    3    0    0 -0.32471973135E+02  0.35429546051E+02  0.10973849316E+02  0.49296116900E+02  0.00000000000E+00 0.  1.
         13    1    3    3    0    0 -0.19654972046E+03  0.19173679712E+03 -0.15126480698E+03  0.31348976668E+03  0.00000000000E+00 0. -1.
         -1    1    1    2    0  502 -0.15687150706E+03 -0.28354759187E+03  0.54675864670E+02  0.32862951291E+03  0.00000000000E+00 0.  1.
<scales pt_clust_5="13000.00000" pt_clust_6="13000.00000" pt_clust_7="13000.00000" pt_clust_8="13000.00000" pt_clust_9="13000.00000"></scales>
<clustering>
<clus scale="   88.750">  7  8 -1 -1</clus>
<clus scale="   99.250">  5  6 -1 -1</clus>
<clus scale="  324.049">  5  9 -1 -1</clus>
<clus scale="  334.562">  2  7  1 -1</clus>
<clus scale="  789.773">  1  5  2 -1</clus>
</clustering>
</event>
<event>
 9    1  0.3312826E-006  0.1704372E+03  0.7546771E-02  0.1202924E+00
         21   -1    0    0  501  502  0.00000000000E+00  0.00000000000E+00  0.12150460535E+03  0.12150460535E+03  0.00000000000E+00 0.  1.
         -1   -1    0    0    0  501 -0.00000000000E+00 -0.00000000000E+00 -0.26690442142E+03  0.26690442142E+03  0.00000000000E+00 0.  1.
         23    2    1    2    0    0  0.19486046418E+01 -0.17999262316E+02 -0.18905369449E+03  0.21247015302E+03  0.95260149173E+02 0.  0.
         23    2    1    2    0    0 -0.34924811270E+02  0.27530831080E+02 -0.25610791351E+02  0.98635086743E+02  0.84233476723E+02 0.  0.
        -11    1    3    3    0    0 -0.38463982460E+02  0.18342691035E+02 -0.83691714406E+02  0.93916107891E+02  0.00000000000E+00 0.  1.
         11    1    3    3    0    0  0.40412587102E+02 -0.36341953351E+02 -0.10536198008E+03  0.11855404513E+03  0.00000000000E+00 0. -1.
        -13    1    4    4    0    0 -0.62301154479E+02  0.10979641725E+02 -0.17093087938E+02  0.65529840814E+02  0.00000000000E+00 0.  1.
         13    1    4    4    0    0  0.27376343209E+02  0.16551189355E+02 -0.85177034131E+01  0.33105245929E+02  0.00000000000E+00 0. -1.
         -1    1    1    2    0  502  0.32976206629E+02 -0.95315687648E+01  0.69264669768E+02  0.77303787002E+02  0.00000000000E+00 0.  1.
<scales pt_clust_5="13000.00000" pt_clust_6="13000.00000" pt_clust_7="13000.00000" pt_clust_8="13000.00000" pt_clust_9="13000.00000"></scales>
<clustering>
<clus scale="   84.233">  7  8 -1 -1</clus>
<clus scale="   34.326">  7  9 -1 -1</clus>
<clus scale="   95.260">  5  6 -1 -1</clus>
<clus scale="   96.965">  2  5  1 -1</clus>
<clus scale="  170.437">  1  5  2 -1</clus>
</clustering>
</event>
<event>
 9    1  0.3312826E-006  0.1898528E+03  0.7546771E-02  0.1176021E+00
          1   -1    0    0  502    0 -0.00000000000E+00  0.00000000000E+00  0.79112138076E+03  0.79112138076E+03  0.00000000000E+00 0. -1.
         21   -1    0    0  501  502  0.00000000000E+00 -0.00000000000E+00 -0.41976367553E+02  0.41976367553E+02  0.00000000000E+00 0. -1.
         23    2    1    2    0    0  0.60983398537E+02  0.65302846102E+02  0.52094534683E+03  0.53624901754E+03  0.90529099351E+02 0.  0.
         23    2    1    2    0    0 -0.55852162977E+02  0.13854190669E+02  0.10639289450E+03  0.15149036078E+03  0.91205694462E+02 0.  0.
        -11    1    3    3    0    0  0.82750364231E+02  0.34957688655E+02  0.36355460676E+03  0.37448847095E+03  0.00000000000E+00 0. -1.
         11    1    3    3    0    0 -0.21766965694E+02  0.30345157447E+02  0.15739074007E+03  0.16176054660E+03  0.00000000000E+00 0.  1.
        -13    1    4    4    0    0 -0.36252407616E+02 -0.20353634936E+02  0.10398917467E+03  0.11199221384E+03  0.00000000000E+00 0.  1.
         13    1    4    4    0    0 -0.19599755361E+02  0.34207825605E+02  0.24037198308E+01  0.39498146942E+02  0.00000000000E+00 0. -1.
          1    1    1    2  501    0 -0.51312355608E+01 -0.79157036771E+02  0.12180677189E+03  0.14535836999E+03  0.00000000000E+00 0. -1.
<scales pt_clust_5="13000.00000" pt_clust_6="13000.00000" pt_clust_7="13000.00000" pt_clust_8="13000.00000" pt_clust_9="13000.00000"></scales>
<clustering>
<clus scale="   90.529">  5  6 -1 -1</clus>
<clus scale="   91.206">  7  8 -1 -1</clus>
<clus scale="   79.323">  7  9 -1 -1</clus>
<clus scale="  127.197">  1  5  2 -1</clus>
<clus scale="  189.853">  2  5  1 -1</clus>
</clustering>
</event>
<event>
 9    1  0.3312826E-006  0.1626042E+03  0.7546771E-02  0.1204349E+00
         21   -1    0    0  501  502  0.00000000000E+00  0.00000000000E+00  0.23333671174E+03  0.23333671174E+03  0.00000000000E+00 0. -1.
         -2   -1    0    0    0  501 -0.00000000000E+00 -0.00000000000E+00 -0.88967070283E+02  0.88967070283E+02  0.00000000000E+00 0. -1.
         23    2    1    2    0    0  0.42265251168E+01 -0.57772422013E+02  0.54223256151E+01  0.10841951576E+03  0.91487012858E+02 0.  0.
         23    2    1    2    0    0  0.49246767907E+02  0.24512230863E+02  0.69450174782E+02  0.12010001387E+03  0.81083863643E+02 0.  0.
        -11    1    4    4    0    0  0.26401283088E+02 -0.26812119750E+02  0.45459888753E+02  0.59012871474E+02  0.00000000000E+00 0.  1.
         11    1    4    4    0    0  0.22845484819E+02  0.51324350613E+02  0.23990286029E+02  0.61087142397E+02  0.00000000000E+00 0. -1.
        -13    1    3    3    0    0  0.34438716259E+02 -0.30935273694E+02 -0.29597917745E+02  0.54945910411E+02  0.00000000000E+00 0. -1.
         13    1    3    3    0    0 -0.30212191142E+02 -0.26837148318E+02  0.35020243360E+02  0.53473605344E+02  0.00000000000E+00 0.  1.
         -2    1    1    2    0  502 -0.53473293024E+02  0.33260191150E+02  0.69497141058E+02  0.93784252395E+02  0.00000000000E+00 0. -1.
<scales pt_clust_5="13000.00000" pt_clust_6="13000.00000" pt_clust_7="13000.00000" pt_clust_8="13000.00000" pt_clust_9="13000.00000"></scales>
<clustering>
<clus scale="   81.084">  5  6 -1 -1</clus>
<clus scale="   62.973">  5  9 -1 -1</clus>
<clus scale="   91.487">  7  8 -1 -1</clus>
<clus scale="  108.284">  2  7  1 -1</clus>
<clus scale="  162.604">  1  5  2 -1</clus>
</clustering>
</event>
<event>
 9    1  0.3312826E-006  0.4772263E+03  0.7546771E-02  0.1066302E+00
          2   -1    0    0  502    0 -0.00000000000E+00  0.00000000000E+00  0.50351116914E+03  0.50351116914E+03  0.00000000000E+00 0. -1.
         21   -1    0    0  501  502  0.00000000000E+00 -0.00000000000E+00 -0.18921705705E+03  0.18921705705E+03  0.00000000000E+00 0. -1.
         23    2    1    2    0    0 -0.58348458802E+02  0.63487311593E+02  0.13286540596E+03  0.18217816634E+03  0.90002704470E+02 0.  0.
         23    2    1    2    0    0  0.15963872613E+03 -0.16235966874E+03  0.25237726425E+03  0.35221762742E+03  0.92291866626E+02 0.  0.
        -11    1    3    3    0    0  0.10095263012E+02  0.54273706017E+02  0.66100077298E+02  0.86120669522E+02  0.00000000000E+00 0. -1.
         11    1    3    3    0    0 -0.68443721814E+02  0.92136055762E+01  0.66765328663E+02  0.96057496818E+02  0.00000000000E+00 0.  1.
        -11    1    4    4    0    0  0.37224058036E+02  0.49582098709E+01  0.28904451594E+02  0.47388623780E+02  0.00000000000E+00 0.  1.
         11    1    4    4    0    0  0.12241466809E+03 -0.16731787861E+03  0.22347281265E+03  0.30482900364E+03  0.00000000000E+00 0. -1.
          2    1    1    2  501    0 -0.10129026733E+03  0.98872357145E+02 -0.70948558120E+02  0.15833243244E+03  0.00000000000E+00 0. -1.
<scales pt_clust_5="13000.00000" pt_clust_6="13000.00000" pt_clust_7="13000.00000" pt_clust_8="13000.00000" pt_clust_9="13000.00000"></scales>
<clustering>
<clus scale="   90.003">  5  6 -1 -1</clus>
<clus scale="   92.292">  7  8 -1 -1</clus>
<clus scale="  124.642">  1  5  2 -1</clus>
<clus scale="  152.421">  7  9 -1 -1</clus>
<clus scale="  477.226">  2  5  1 -1</clus>
</clustering>
</event>
<event>
 9    1  0.3312826E-006  0.3176707E+03  0.7546771E-02  0.1124699E+00
          1   -1    0    0  502    0 -0.00000000000E+00  0.00000000000E+00  0.70632804313E+03  0.70632804313E+03  0.00000000000E+00 0. -1.
         21   -1    0    0  501  502  0.00000000000E+00 -0.00000000000E+00 -0.59287658646E+02  0.59287658646E+02  0.00000000000E+00 0. -1.
         23    2    1    2    0    0 -0.65442317779E+01 -0.72498126480E+01  0.14197743453E+03  0.16895562067E+03  0.91066036966E+02 0.  0.
         23    2    1    2    0    0 -0.84660963905E+02  0.47921018402E+02  0.47613718972E+03  0.49269261359E+03  0.81089365733E+02 0.  0.
        -13    1    3    3    0    0  0.27760501699E+02 -0.36809607297E+02  0.77211329085E+02  0.89928760600E+02  0.00000000000E+00 0.  1.
         13    1    3    3    0    0 -0.34304733477E+02  0.29559794649E+02  0.64766105445E+02  0.79026860074E+02  0.00000000000E+00 0. -1.
        -13    1    4    4    0    0 -0.28249360379E+02  0.53805499623E+02  0.15320634063E+03  0.16481881252E+03  0.00000000000E+00 0.  1.
         13    1    4    4    0    0 -0.56411603526E+02 -0.58844812216E+01  0.32293084909E+03  0.32787380107E+03  0.00000000000E+00 0. -1.
          1    1    1    2  501    0  0.91205195683E+02 -0.40671205754E+02  0.28925760237E+02  0.10396746752E+03  0.00000000000E+00 0. -1.
<scales pt_clust_5="13000.00000" pt_clust_6="13000.00000" pt_clust_7="13000.00000" pt_clust_8="13000.00000" pt_clust_9="13000.00000"></scales>
<clustering>
<clus scale="   81.089">  7  8 -1 -1</clus>
<clus scale="   91.066">  5  6 -1 -1</clus>
<clus scale="   91.588">  1  5  2 -1</clus>
<clus scale="   99.504">  7  9 -1 -1</clus>
<clus scale="  317.671">  2  5  1 -1</clus>
</clustering>
</event>
<event>
 9    1  0.3312826E-006  0.7354695E+03  0.7546771E-02  0.1029416E+00
         21   -1    0    0  501  502  0.00000000000E+00  0.00000000000E+00  0.17315742523E+03  0.17315742523E+03  0.00000000000E+00 0. -1.
          1   -1    0    0  502    0 -0.00000000000E+00 -0.00000000000E+00 -0.10062334118E+04  0.10062334118E+04  0.00000000000E+00 0. -1.
         23    2    1    2    0    0  0.17525881571E+01 -0.11704099678E+01 -0.12067644985E+03  0.15546284472E+03  0.97986984419E+02 0.  0.
         23    2    1    2    0    0 -0.72890636769E+02  0.14961802465E+03 -0.81027217579E+03  0.83241723605E+03  0.93160387449E+02 0.  0.
        -11    1    4    4    0    0 -0.94903802732E+02  0.10980121491E+03 -0.60512224981E+03  0.62228287441E+03  0.00000000000E+00 0. -1.
         11    1    4    4    0    0  0.22013165963E+02  0.39816809733E+02 -0.20514992598E+03  0.21013436165E+03  0.00000000000E+00 0.  1.
        -11    1    3    3    0    0  0.36685903516E+02  0.30283774179E+02 -0.81061088562E+02  0.93988630026E+02  0.00000000000E+00 0. -1.
         11    1    3    3    0    0 -0.34933315358E+02 -0.31454184147E+02 -0.39615361283E+02  0.61474214691E+02  0.00000000000E+00 0.  1.
          1    1    1    2  501    0  0.71138048612E+02 -0.14844761468E+03  0.97872639109E+02  0.19151075623E+03  0.00000000000E+00 0. -1.
<scales pt_clust_5="13000.00000" pt_clust_6="13000.00000" pt_clust_7="13000.00000" pt_clust_8="13000.00000" pt_clust_9="13000.00000"></scales>
<clustering>
<clus scale="   93.160">  5  6 -1 -1</clus>
<clus scale="   97.987">  7  8 -1 -1</clus>
<clus scale="   98.010">  2  7  1 -1</clus>
<clus scale="  164.710">  5  9 -1 -1</clus>
<clus scale="  735.470">  1  5  2 -1</clus>
</clustering>
</event>
<event>
 9    1  0.3312826E-006  0.1266371E+03  0.7546771E-02  0.1246723E+00
          1   -1    0    0  502    0 -0.00000000000E+00  0.00000000000E+00  0.40330952354E+03  0.40330952354E+03  0.00000000000E+00 0. -1.
         21   -1    0    0  501  502  0.00000000000E+00 -0.00000000000E+00 -0.30425672550E+02  0.30425672550E+02  0.00000000000E+00 0.  1.
         23    2    1    2    0    0  0.38912904119E+01  0.25123076712E+02  0.16036528329E+03  0.18634662714E+03  0.91442496891E+02 0.  0.
         23    2    1    2    0    0  0.73798575393E+01  0.16890011418E+01  0.11544507733E+03  0.14605156274E+03  0.89141337642E+02 0.  0.
        -11    1    3    3    0    0 -0.28020630010E+02  0.23867083462E+02  0.19006567158E+02  0.41425149056E+02  0.00000000000E+00 0.  1.
         11    1    3    3    0    0  0.31911920422E+02  0.12559932494E+01  0.14135871613E+03  0.14492147808E+03  0.00000000000E+00 0. -1.
        -11    1    4    4    0    0 -0.35362049086E+02  0.99127242713E+01  0.21605748592E+02  0.42609212505E+02  0.00000000000E+00 0. -1.
         11    1    4    4    0    0  0.42741906625E+02 -0.82237231294E+01  0.93839328736E+02  0.10344235023E+03  0.00000000000E+00 0.  1.
          1    1    1    2  501    0 -0.11271147951E+02 -0.26812077854E+02  0.97073490372E+02  0.10133700621E+03  0.00000000000E+00 0. -1.
<scales pt_clust_5="13000.00000" pt_clust_6="13000.00000" pt_clust_7="13000.00000" pt_clust_8="13000.00000" pt_clust_9="13000.00000"></scales>
<clustering>
<clus scale="   89.141">  7  8 -1 -1</clus>
<clus scale="   29.085">  7  9 -1 -1</clus>
<clus scale="   91.442">  5  6 -1 -1</clus>
<clus scale="   94.911">  1  5  2 -1</clus>
<clus scale="  126.637">  2  5  1 -1</clus>
</clustering>
</event>
<event>
 9    1  0.3312826E-006  0.3844911E+03  0.7546771E-02  0.1064420E+00
         21   -1    0    0  501  502  0.00000000000E+00  0.00000000000E+00  0.69914436757E+03  0.69914436757E+03  0.00000000000E+00 0.  1.
         -1   -1    0    0    0  501 -0.00000000000E+00 -0.00000000000E+00 -0.14444974209E+03  0.14444974209E+03  0.00000000000E+00 0.  1.
         23    2    1    2    0    0 -0.20482941683E+03 -0.11391507691E+03  0.22091428252E+03  0.33443525758E+03  0.90067122437E+02 0.  0.
         23    2    1    2    0    0 -0.74337004648E+01 -0.35240429726E+02  0.14098089672E+02  0.97455391820E+02  0.89451939457E+02 0.  0.
        -13    1    3    3    0    0 -0.14366648312E+03 -0.10752508478E+03  0.20178034907E+03  0.27003150094E+03  0.00000000000E+00 0.  1.
         13    1    3    3    0    0 -0.61162933709E+02 -0.63899921230E+01  0.19133933445E+02  0.64403756632E+02  0.00000000000E+00 0. -1.
        -13    1    4    4    0    0 -0.37377242829E+02 -0.43397529833E+02  0.27639335714E+02  0.63595100093E+02  0.00000000000E+00 0.  1.
         13    1    4    4    0    0  0.29943542364E+02  0.81571001073E+01 -0.13541246043E+02  0.33860291727E+02  0.00000000000E+00 0. -1.
         -1    1    1    2    0  502  0.21226311729E+03  0.14915550663E+03  0.31968225329E+03  0.41170346026E+03  0.00000000000E+00 0.  1.
<scales pt_clust_5="13000.00000" pt_clust_6="13000.00000" pt_clust_7="13000.00000" pt_clust_8="13000.00000" pt_clust_9="13000.00000"></scales>
<clustering>
<clus scale="   89.452">  7  8 -1 -1</clus>
<clus scale="   90.067">  5  6 -1 -1</clus>
<clus scale="  251.085">  2  5  1 -1</clus>
<clus scale="  137.733">  7  9 -1 -1</clus>
<clus scale="  384.491">  1  5  2 -1</clus>
</clustering>
</event>
<event>
 9    1  0.3312826E-006  0.1900163E+03  0.7546771E-02  0.1180607E+00
         -1   -1    0    0    0  501 -0.00000000000E+00  0.00000000000E+00  0.11500131122E+03  0.11500131122E+03  0.00000000000E+00 0.  1.
         21   -1    0    0  501  502  0.00000000000E+00 -0.00000000000E+00 -0.28474227843E+03  0.28474227843E+03  0.00000000000E+00 0.  1.
         23    2    1    2    0    0 -0.22525960298E+01 -0.65042866615E+02  0.35750927517E+02  0.11986306068E+03  0.94092379134E+02 0.  0.
         23    2    1    2    0    0 -0.52295087003E+02  0.31366964192E+02 -0.15025533745E+03  0.19526023950E+03  0.10877146745E+03 0.  0.
        -11    1    4    4    0    0 -0.64027269382E+02 -0.22684343799E+02 -0.97471231160E+02  0.11880535166E+03  0.00000000000E+00 0.  1.
         11    1    4    4    0    0  0.11732182379E+02  0.54051307991E+02 -0.52784106288E+02  0.76454887846E+02  0.00000000000E+00 0. -1.
        -13    1    3    3    0    0 -0.41226612749E+02 -0.59185315457E+01  0.27590681564E+01  0.41740568653E+02  0.00000000000E+00 0. -1.
         13    1    3    3    0    0  0.38974016719E+02 -0.59124335070E+02  0.32991859361E+02  0.78122492028E+02  0.00000000000E+00 0.  1.
         -1    1    1    2    0  502  0.54547683033E+02  0.33675902423E+02 -0.55236557283E+02  0.84620289462E+02  0.00000000000E+00 0.  1.
<scales pt_clust_5="13000.00000" pt_clust_6="13000.00000" pt_clust_7="13000.00000" pt_clust_8="13000.00000" pt_clust_9="13000.00000"></scales>
<clustering>
<clus scale="   94.092">  7  8 -1 -1</clus>
<clus scale="  108.771">  5  6 -1 -1</clus>
<clus scale="   64.106">  5  9 -1 -1</clus>
<clus scale="  114.407">  1  7  2 -1</clus>
<clus scale="  190.016">  2  5  1 -1</clus>
</clustering>
</event>
<event>
 9    1  0.3312826E-006  0.2294151E+03  0.7546771E-02  0.1151877E+00
         -3   -1    0    0    0  501 -0.00000000000E+00  0.00000000000E+00  0.14302032846E+03  0.14302032846E+03  0.00000000000E+00 0.  1.
         21   -1    0    0  501  502  0.00000000000E+00 -0.00000000000E+00 -0.33494686388E+03  0.33494686388E+03  0.00000000000E+00 0.  1.
         23    2    1    2    0    0 -0.29884687342E+02  0.64220496892E+02  0.58020990232E+02  0.13869586498E+03  0.10417648917E+03 0.  0.
         23    2    1    2    0    0 -0.97320435845E+01 -0.10663223215E+03 -0.87159685294E+02  0.16644736599E+03  0.92966495569E+02 0.  0.
        -11    1    3    3    0    0  0.26932073959E+02 -0.11820454507E+02  0.23652619118E+02  0.37742630322E+02  0.00000000000E+00 0. -1.
         11    1    3    3    0    0 -0.56816761301E+02  0.76040951398E+02  0.34368371114E+02  0.10095323466E+03  0.00000000000E+00 0.  1.
        -13    1    4    4    0    0 -0.40730529304E+02 -0.32113859529E+02 -0.63816385201E+01  0.52258982973E+02  0.00000000000E+00 0.  1.
         13    1    4    4    0    0  0.30998485719E+02 -0.74518372619E+02 -0.80778046774E+02  0.11418838301E+03  0.00000000000E+00 0. -1.
         -3    1    1    2    0  502  0.39616730926E+02  0.42411735255E+02 -0.16278784036E+03  0.17282396138E+03  0.00000000000E+00 0.  1.
<scales pt_clust_5="13000.00000" pt_clust_6="13000.00000" pt_clust_7="13000.00000" pt_clust_8="13000.00000" pt_clust_9="13000.00000"></scales>
<clustering>
<clus scale="   92.966">  7  8 -1 -1</clus>
<clus scale="   58.037">  7  9 -1 -1</clus>
<clus scale="  104.176">  5  6 -1 -1</clus>
<clus scale="  125.977">  1  5  2 -1</clus>
<clus scale="  229.415">  2  5  1 -1</clus>
</clustering>
</event>
<event>
 9    1  0.3312826E-006  0.3794500E+03  0.7546771E-02  0.1078965E+00
         21   -1    0    0  501  502  0.00000000000E+00  0.00000000000E+00  0.22259175780E+03  0.22259175780E+03  0.00000000000E+00 0.  1.
          1   -1    0    0  502    0 -0.00000000000E+00 -0.00000000000E+00 -0.38674217930E+03  0.38674217930E+03  0.00000000000E+00 0. -1.
         23    2    1    2    0    0  0.15311332466E+03  0.44770500176E+02 -0.14800993259E+03  0.22954080201E+03  0.73033908338E+02 0.  0.
         23    2    1    2    0    0  0.15241355006E+02 -0.11882628834E+03  0.81746445510E+02  0.17144388538E+03  0.91425044587E+02 0.  0.
        -11    1    4    4    0    0  0.82614241819E+01 -0.92166590034E+02  0.81939579769E+01  0.92898182950E+02  0.00000000000E+00 0. -1.
         11    1    4    4    0    0  0.69799308239E+01 -0.26659698308E+02  0.73552487533E+02  0.78545702432E+02  0.00000000000E+00 0.  1.
        -11    1    3    3    0    0  0.10080042485E+03  0.33032693468E+01 -0.54469678617E+02  0.11462365867E+03  0.00000000000E+00 0.  1.
         11    1    3    3    0    0  0.52312899802E+02  0.41467230830E+02 -0.93540253972E+02  0.11491714333E+03  0.00000000000E+00 0. -1.
          1    1    1    2  501    0 -0.16835467966E+03  0.74055788165E+02 -0.97886934429E+02  0.20834924971E+03  0.00000000000E+00 0. -1.
<scales pt_clust_5="13000.00000" pt_clust_6="13000.00000" pt_clust_7="13000.00000" pt_clust_8="13000.00000" pt_clust_9="13000.00000"></scales>
<clustering>
<clus scale="   73.034">  7  8 -1 -1</clus>
<clus scale="   91.425">  5  6 -1 -1</clus>
<clus scale="  175.448">  2  7  1 -1</clus>
<clus scale="  119.604">  5  9 -1 -1</clus>
<clus scale="  379.450">  1  5  2 -1</clus>
</clustering>
</event>
<event>
 9    1  0.3312826E-006  0.3010455E+03  0.7546771E-02  0.1112617E+00
         21   -1    0    0  501  502  0.00000000000E+00  0.00000000000E+00  0.76928889178E+02  0.76928889178E+02  0.00000000000E+00 0. -1.
          2   -1    0    0  502    0 -0.00000000000E+00 -0.00000000000E+00 -0.70715940735E+03  0.70715940735E+03  0.00000000000E+00 0. -1.
         23    2    1    2    0    0  0.14268568047E+02  0.11203306737E+03 -0.32101848592E+03  0.35253244598E+03  0.92039431493E+02 0.  0.
         23    2    1    2    0    0  0.11255318126E+03 -0.58161814769E+02 -0.12031953771E+03  0.19774771885E+03  0.92608605689E+02 0.  0.
        -11    1    4    4    0    0  0.14878135520E+02 -0.49781365843E+02 -0.15480695449E+02  0.54214345272E+02  0.00000000000E+00 0. -1.
         11    1    4    4    0    0  0.97675045738E+02 -0.83804489256E+01 -0.10483884226E+03  0.14353337358E+03  0.00000000000E+00 0.  1.
        -13    1    3    3    0    0  0.38887444350E+02  0.49809269442E+02 -0.77553489605E+02  0.10003869452E+03  0.00000000000E+00 0.  1.
         13    1    3    3    0    0 -0.24618876303E+02  0.62223797924E+02 -0.24346499632E+03  0.25249375147E+03  0.00000000000E+00 0. -1.
          2    1    1    2  501    0 -0.12682174931E+03 -0.53871252597E+02 -0.18889249454E+03  0.23380813169E+03  0.00000000000E+00 0. -1.
<scales pt_clust_5="13000.00000" pt_clust_6="13000.00000" pt_clust_7="13000.00000" pt_clust_8="13000.00000" pt_clust_9="13000.00000"></scales>
<clustering>
<clus scale="   92.039">  7  8 -1 -1</clus>
<clus scale="   92.609">  5  6 -1 -1</clus>
<clus scale="  137.789">  5  9 -1 -1</clus>
<clus scale="  145.692">  2  7  1 -1</clus>
<clus scale="  301.045">  1  5  2 -1</clus>
</clustering>
</event>
<event>
 9    1  0.3312826E-006  0.2977347E+03  0.7546771E-02  0.1128014E+00
         21   -1    0    0  501  502  0.00000000000E+00  0.00000000000E+00  0.12138672907E+03  0.12138672907E+03  0.00000000000E+00 0. -1.
          1   -1    0    0  502    0 -0.00000000000E+00 -0.00000000000E+00 -0.51382005162E+03  0.51382005162E+03  0.00000000000E+00 0. -1.
         23    2    1    2    0    0 -0.16747184285E+02  0.45987529160E+02 -0.30965845528E+03  0.32617987276E+03  0.90053481023E+02 0.  0.
         23    2    1    2    0    0 -0.34865937918E+02  0.73140425427E+02 -0.12259894059E+03  0.17322800969E+03  0.91718524023E+02 0.  0.
        -13    1    4    4    0    0  0.30731907724E+02  0.29695101764E+02 -0.33046998405E+02  0.54021785649E+02  0.00000000000E+00 0.  1.
         13    1    4    4    0    0 -0.65597845642E+02  0.43445323663E+02 -0.89551942186E+02  0.11920622404E+03  0.00000000000E+00 0. -1.
        -13    1    3    3    0    0 -0.20082543588E+02 -0.21904502911E+02 -0.53973856370E+02  0.61614064760E+02  0.00000000000E+00 0.  1.
         13    1    3    3    0    0  0.33353593033E+01  0.67892032072E+02 -0.25568459891E+03  0.26456580800E+03  0.00000000000E+00 0. -1.
          1    1    1    2  501    0  0.51613122202E+02 -0.11912795459E+03  0.39824073318E+02  0.13579889824E+03  0.00000000000E+00 0. -1.
<scales pt_clust_5="13000.00000" pt_clust_6="13000.00000" pt_clust_7="13000.00000" pt_clust_8="13000.00000" pt_clust_9="13000.00000"></scales>
<clustering>
<clus scale="   90.053">  7  8 -1 -1</clus>
<clus scale="   91.719">  5  6 -1 -1</clus>
<clus scale="  102.494">  2  7  1 -1</clus>
<clus scale="  117.863">  5  9 -1 -1</clus>
<clus scale="  297.735">  1  5  2 -1</clus>
</clustering>
</event>
<event>
 9    1  0.3312826E-006  0.4961513E+03  0.7546771E-02  0.1045665E+00
          1   -1    0    0  502    0 -0.00000000000E+00  0.00000000000E+00  0.24312523283E+03  0.24312523283E+03  0.00000000000E+00 0. -1.
         21   -1    0    0  501  502  0.00000000000E+00 -0.00000000000E+00 -0.53976143600E+03  0.53976143600E+03  0.00000000000E+00 0. -1.
         23    2    1    2    0    0 -0.66634823734E+02  0.15340213549E+03  0.11479653169E+02  0.19884773649E+03  0.10694028689E+03 0.  0.
         23    2    1    2    0    0  0.75324971509E+02 -0.60136699879E+02  0.96998702985E+02  0.16823637544E+03  0.98002324636E+02 0.  0.
        -11    1    4    4    0    0  0.67043512137E+02  0.71689491142E+01  0.33310782501E+02  0.75205282939E+02  0.00000000000E+00 0. -1.
         11    1    4    4    0    0  0.82814593719E+01 -0.67305648993E+02  0.63687920485E+02  0.93031092498E+02  0.00000000000E+00 0.  1.
        -13    1    3    3    0    0 -0.77092621316E+02  0.46327740534E+02  0.15112036377E+02  0.91202551761E+02  0.00000000000E+00 0.  1.
         13    1    3    3    0    0  0.10457797581E+02  0.10707439496E+03 -0.36323832079E+01  0.10764518472E+03  0.00000000000E+00 0. -1.
          1    1    1    2  501    0 -0.86901477746E+01 -0.93265435616E+02 -0.40511455933E+03  0.41580255691E+03  0.00000000000E+00 0. -1.
<scales pt_clust_5="13000.00000" pt_clust_6="13000.00000" pt_clust_7="13000.00000" pt_clust_8="13000.00000" pt_clust_9="13000.00000"></scales>
<clustering>
<clus scale="   98.002">  5  6 -1 -1</clus>
<clus scale="   93.669">  5  9 -1 -1</clus>
<clus scale="  106.940">  7  8 -1 -1</clus>
<clus scale="  198.516">  1  7  2 -1</clus>
<clus scale="  496.151">  2  5  1 -1</clus>
</clustering>
</event>
<event>
 9    1  0.3312826E-006  0.2077680E+03  0.7546771E-02  0.1155182E+00
         -2   -1    0    0    0  501 -0.00000000000E+00  0.00000000000E+00  0.90384309290E+02  0.90384309290E+02  0.00000000000E+00 0.  1.
         21   -1    0    0  501  502  0.00000000000E+00 -0.00000000000E+00 -0.45829234570E+03  0.45829234570E+03  0.00000000000E+00 0.  1.
         23    2    1    2    0    0  0.97293855262E+01  0.12847906546E+03 -0.42423623201E+02  0.16253204572E+03  0.89528603669E+02 0.  0.
         23    2    1    2    0    0  0.14818908876E+02 -0.17221268308E+02 -0.12270391125E+03  0.15354871903E+03  0.89469475997E+02 0.  0.
        -11    1    4    4    0    0  0.44041734302E+02 -0.36558458465E+02 -0.74213691989E+02  0.93722288300E+02  0.00000000000E+00 0.  1.
         11    1    4    4    0    0 -0.29222825426E+02  0.19337190157E+02 -0.48490219265E+02  0.59826430726E+02  0.00000000000E+00 0. -1.
        -13    1    3    3    0    0  0.30412522743E+02  0.56009802739E+02  0.17675607044E+02  0.66139599537E+02  0.00000000000E+00 0. -1.
         13    1    3    3    0    0 -0.20683137217E+02  0.72469262724E+02 -0.60099230245E+02  0.96392446182E+02  0.00000000000E+00 0.  1.
         -2    1    1    2    0  502 -0.24548294402E+02 -0.11125779716E+03 -0.20278050196E+03  0.23259589025E+03  0.00000000000E+00 0.  1.
<scales pt_clust_5="13000.00000" pt_clust_6="13000.00000" pt_clust_7="13000.00000" pt_clust_8="13000.00000" pt_clust_9="13000.00000"></scales>
<clustering>
<clus scale="   89.469">  5  6 -1 -1</clus>
<clus scale="   89.529">  7  8 -1 -1</clus>
<clus scale="  113.934">  5  9 -1 -1</clus>
<clus scale="  156.898">  1  7  2 -1</clus>
<clus scale="  207.768">  2  5  1 -1</clus>
</clustering>
</event>
<event>
 9    1  0.3312826E-006  0.2693769E+03  0.7546771E-02  0.1140513E+00
         21   -1    0    0  501  502  0.00000000000E+00  0.00000000000E+00  0.16381523126E+03  0.16381523126E+03  0.00000000000E+00 0. -1.
          2   -1    0    0  502    0 -0.00000000000E+00 -0.00000000000E+00 -0.39872279855E+03  0.39872279855E+03  0.00000000000E+00 0. -1.
         23    2    1    2    0    0  0.67133704523E+01 -0.44300103796E+02 -0.27209924305E+03  0.29060584309E+03  0.91685273790E+02 0.  0.
         23    2    1    2    0    0 -0.49629444661E+02  0.41841584495E+02 -0.84192169954E+02  0.14316156996E+03  0.95880726219E+02 0.  0.
        -11    1    3    3    0    0 -0.37786784560E+02  0.65648326437E+00 -0.82793184574E+02  0.91010897532E+02  0.00000000000E+00 0.  1.
         11    1    3    3    0    0  0.44500155012E+02 -0.44956587060E+02 -0.18930605847E+03  0.19959494555E+03  0.00000000000E+00 0. -1.
        -13    1    4    4    0    0 -0.40700117440E+02  0.63084721478E+02 -0.24172132738E+02  0.78869979363E+02  0.00000000000E+00 0.  1.
         13    1    4    4    0    0 -0.89293272204E+01 -0.21243136983E+02 -0.60020037216E+02  0.64291590592E+02  0.00000000000E+00 0. -1.
          2    1    1    2  501    0  0.42916074209E+02  0.24585193013E+01  0.12138384571E+03  0.12877061677E+03  0.00000000000E+00 0. -1.
<scales pt_clust_5="13000.00000" pt_clust_6="13000.00000" pt_clust_7="13000.00000" pt_clust_8="13000.00000" pt_clust_9="13000.00000"></scales>
<clustering>
<clus scale="   91.685">  5  6 -1 -1</clus>
<clus scale="   95.881">  7  8 -1 -1</clus>
<clus scale="   42.986">  7  9 -1 -1</clus>
<clus scale="  102.048">  2  5  1 -1</clus>
<clus scale="  269.377">  1  5  2 -1</clus>
</clustering>
</event>
<event>
 9    1  0.3312826E-006  0.3949913E+03  0.7546771E-02  0.1057955E+00
          1   -1    0    0  502    0 -0.00000000000E+00  0.00000000000E+00  0.83840808447E+03  0.83840808447E+03  0.00000000000E+00 0. -1.
         21   -1    0    0  501  502  0.00000000000E+00 -0.00000000000E+00 -0.47339627986E+03  0.47339627986E+03  0.00000000000E+00 0. -1.
         23    2    1    2    0    0 -0.21273938152E+03  0.15301585765E+03  0.72569619096E+03  0.77691059963E+03  0.91012203039E+02 0.  0.
         23    2    1    2    0    0  0.41244089982E+02  0.55798963212E+02 -0.49551288536E+02  0.12280388496E+03  0.88379096572E+02 0.  0.
        -11    1    4    4    0    0  0.19150069197E+02 -0.23330315942E+02 -0.12194225269E+02  0.32553462521E+02  0.00000000000E+00 0.  1.
         11    1    4    4    0    0  0.22094020785E+02  0.79129279154E+02 -0.37357063267E+02  0.90250422435E+02  0.00000000000E+00 0. -1.
        -13    1    3    3    0    0 -0.20497892547E+03  0.11429843072E+03  0.65718708100E+03  0.69783619180E+03  0.00000000000E+00 0. -1.
         13    1    3    3    0    0 -0.77604560541E+01  0.38717426936E+02  0.68509109965E+02  0.79074407838E+02  0.00000000000E+00 0.  1.
          1    1    1    2  501    0  0.17149529154E+03 -0.20881482086E+03 -0.31113309782E+03  0.41208987975E+03  0.00000000000E+00 0. -1.
<scales pt_clust_5="13000.00000" pt_clust_6="13000.00000" pt_clust_7="13000.00000" pt_clust_8="13000.00000" pt_clust_9="13000.00000"></scales>
<clustering>
<clus scale="   88.379">  5  6 -1 -1</clus>
<clus scale="   91.012">  7  8 -1 -1</clus>
<clus scale="  270.212">  5  9 -1 -1</clus>
<clus scale="  277.408">  1  7  2 -1</clus>
<clus scale="  394.991">  2  5  1 -1</clus>
</clustering>
</event>
<event>
 9    1  0.3312826E-006  0.4435765E+03  0.7546771E-02  0.1040761E+00
          4   -1    0    0  502    0 -0.00000000000E+00  0.00000000000E+00  0.75845960654E+03  0.75845960654E+03  0.00000000000E+00 0. -1.
         21   -1    0    0  501  502  0.00000000000E+00 -0.00000000000E+00 -0.20173405254E+03  0.20173405254E+03  0.00000000000E+00 0.  1.
         23    2    1    2    0    0  0.29948197167E+03  0.70320337722E+02  0.13262552355E+03  0.34649916605E+03  0.88531018996E+02 0.  0.
         23    2    1    2    0    0  0.30564691272E+01 -0.38498815403E+01  0.44935255027E+01  0.92141572708E+02  0.91900566148E+02 0.  0.
        -11    1    3    3    0    0  0.25818712621E+03  0.78689758008E+02  0.85154871408E+02  0.28302653989E+03  0.00000000000E+00 0.  1.
         11    1    3    3    0    0  0.41294845459E+02 -0.83694202857E+01  0.47470652139E+02  0.63472626163E+02  0.00000000000E+00 0. -1.
        -13    1    4    4    0    0 -0.68214025324E+01 -0.32254866290E+02  0.35843157675E+02  0.48699485460E+02  0.00000000000E+00 0. -1.
         13    1    4    4    0    0  0.98778716596E+01  0.28404984750E+02 -0.31349632172E+02  0.43442087249E+02  0.00000000000E+00 0.  1.
          4    1    1    2  501    0 -0.30253844080E+03 -0.66470456182E+02  0.41960650495E+03  0.52155292033E+03  0.00000000000E+00 0. -1.
<scales pt_clust_5="13000.00000" pt_clust_6="13000.00000" pt_clust_7="13000.00000" pt_clust_8="13000.00000" pt_clust_9="13000.00000"></scales>
<clustering>
<clus scale="   88.531">  5  6 -1 -1</clus>
<clus scale="   91.901">  7  8 -1 -1</clus>
<clus scale="  309.755">  7  9 -1 -1</clus>
<clus scale="  320.113">  1  5  2 -1</clus>
<clus scale="  443.576">  2  5  1 -1</clus>
</clustering>
</event>
<event>
 9    1  0.3312826E-006  0.2066120E+03  0.7546771E-02  0.1161962E+00
          3   -1    0    0  502    0 -0.00000000000E+00  0.00000000000E+00  0.23140324492E+03  0.23140324492E+03  0.00000000000E+00 0. -1.
         21   -1    0    0  501  502  0.00000000000E+00 -0.00000000000E+00 -0.14979860303E+03  0.14979860303E+03  0.00000000000E+00 0. -1.
         23    2    1    2    0    0  0.97002512953E+02  0.26367001911E+02 -0.39374653299E+02  0.14177647612E+03  0.91899399079E+02 0.  0.
         23    2    1    2    0    0  0.23843048124E+01  0.72317891748E+01  0.19733641497E+02  0.93626535416E+02  0.91205963858E+02 0.  0.
        -13    1    4    4    0    0  0.23110648853E+02  0.27688717128E+02 -0.22364505004E+02  0.42437462585E+02  0.00000000000E+00 0. -1.
         13    1    4    4    0    0 -0.20726344040E+02 -0.20456927953E+02  0.42098146501E+02  0.51189072832E+02  0.00000000000E+00 0.  1.
        -13    1    3    3    0    0  0.59980394259E+02  0.46736962605E+01  0.24390205172E+02  0.64918204231E+02  0.00000000000E+00 0.  1.
         13    1    3    3    0    0  0.37022118694E+02  0.21693305651E+02 -0.63764858472E+02  0.76858271894E+02  0.00000000000E+00 0. -1.
          3    1    1    2  501    0 -0.99386817765E+02 -0.33598791086E+02  0.10124565369E+03  0.14579883641E+03  0.00000000000E+00 0. -1.
<scales pt_clust_5="13000.00000" pt_clust_6="13000.00000" pt_clust_7="13000.00000" pt_clust_8="13000.00000" pt_clust_9="13000.00000"></scales>
<clustering>
<clus scale="   91.206">  5  6 -1 -1</clus>
<clus scale="   91.899">  7  8 -1 -1</clus>
<clus scale="  104.912">  5  9 -1 -1</clus>
<clus scale="  136.199">  1  7  2 -1</clus>
<clus scale="  206.612">  2  5  1 -1</clus>
</clustering>
</event>
<event>
 9    1  0.3312826E-006  0.2845083E+03  0.7546771E-02  0.1104661E+00
         21   -1    0    0  501  502  0.00000000000E+00  0.00000000000E+00  0.17250345327E+03  0.17250345327E+03  0.00000000000E+00 0. -1.
          3   -1    0    0  502    0 -0.00000000000E+00 -0.00000000000E+00 -0.58390701887E+03  0.58390701887E+03  0.00000000000E+00 0. -1.
         23    2    1    2    0    0  0.18997034702E+03 -0.91246084991E+01 -0.42165396879E+03  0.47171762427E+03  0.92484898385E+02 0.  0.
         23    2    1    2    0    0 -0.10360783433E+03  0.81448849787E+02 -0.34942778998E+02  0.16331862000E+03  0.89908149625E+02 0.  0.
        -11    1    4    4    0    0 -0.80522932340E+02  0.69405540016E+01 -0.25487567235E+02  0.84745088389E+02  0.00000000000E+00 0.  1.
         11    1    4    4    0    0 -0.23084901992E+02  0.74508295786E+02 -0.94552117629E+01  0.78573531614E+02  0.00000000000E+00 0. -1.
        -13    1    3    3    0    0  0.10888952102E+03 -0.50331451854E+02 -0.22246913114E+03  0.25275026636E+03  0.00000000000E+00 0.  1.
         13    1    3    3    0    0  0.81080825994E+02  0.41206843355E+02 -0.19918483764E+03  0.21896735791E+03  0.00000000000E+00 0. -1.
          3    1    1    2  501    0 -0.86362512684E+02 -0.72324241288E+02  0.45193182177E+02  0.12137422787E+03  0.00000000000E+00 0. -1.
<scales pt_clust_5="13000.00000" pt_clust_6="13000.00000" pt_clust_7="13000.00000" pt_clust_8="13000.00000" pt_clust_9="13000.00000"></scales>
<clustering>
<clus scale="   89.908">  5  6 -1 -1</clus>
<clus scale="   92.485">  7  8 -1 -1</clus>
<clus scale="  112.647">  5  9 -1 -1</clus>
<clus scale="  211.484">  2  7  1 -1</clus>
<clus scale="  284.508">  1  5  2 -1</clus>
</clustering>
</event>
<event>
 9    1  0.3609041E-006  0.3589640E+03  0.7546771E-02  0.1084254E+00
          1   -1    0    0  502    0 -0.00000000000E+00  0.00000000000E+00  0.16772145012E+03  0.16772145012E+03  0.00000000000E+00 0. -1.
         21   -1    0    0  501  502  0.00000000000E+00 -0.00000000000E+00 -0.67825658908E+03  0.67825658908E+03  0.00000000000E+00 0.  1.
         23    2    1    2    0    0 -0.12633840257E+03  0.90255588602E+02 -0.44651080799E+03  0.48134905813E+03  0.90650708090E+02 0.  0.
         23    2    1    2    0    0  0.61463309663E+01 -0.11136318405E+02  0.10622997815E+03  0.14171078359E+03  0.92926546019E+02 0.  0.
        -11    1    4    4    0    0  0.34999789531E+01 -0.51517484173E+02  0.46034808624E+02  0.69177341906E+02  0.00000000000E+00 0. -1.
         11    1    4    4    0    0  0.26463520131E+01  0.40381165768E+02  0.60195169530E+02  0.72533441684E+02  0.00000000000E+00 0.  1.
        -13    1    3    3    0    0 -0.42856316083E+02  0.86004220175E+02 -0.24719528663E+03  0.26521481755E+03  0.00000000000E+00 0.  1.
         13    1    3    3    0    0 -0.83482086490E+02  0.42513684267E+01 -0.19931552135E+03  0.21613424058E+03  0.00000000000E+00 0. -1.
          1    1    1    2  501    0  0.12019207161E+03 -0.79119270197E+02 -0.17025430912E+03  0.22291819748E+03  0.00000000000E+00 0. -1.
<scales pt_clust_5="13000.00000" pt_clust_6="13000.00000" pt_clust_7="13000.00000" pt_clust_8="13000.00000" pt_clust_9="13000.00000"></scales>
<clustering>
<clus scale="   90.651">  7  8 -1 -1</clus>
<clus scale="   92.927">  5  6 -1 -1</clus>
<clus scale="  143.896">  5  9 -1 -1</clus>
<clus scale="  179.792">  1  7  2 -1</clus>
<clus scale="  358.964">  2  5  1 -1</clus>
</clustering>
</event>
<event>
 9    1  0.3312826E-006  0.1770160E+03  0.7546771E-02  0.1195286E+00
         21   -1    0    0  501  502  0.00000000000E+00  0.00000000000E+00  0.61387160887E+02  0.61387160887E+02  0.00000000000E+00 0. -1.
          1   -1    0    0  502    0 -0.00000000000E+00 -0.00000000000E+00 -0.34870828723E+03  0.34870828723E+03  0.00000000000E+00 0. -1.
         23    2    1    2    0    0  0.13523648086E+02 -0.48365240900E+02 -0.16792494754E+03  0.19657704005E+03  0.89003702632E+02 0.  0.
         23    2    1    2    0    0  0.34915979502E+02  0.25721841255E+02 -0.12168045723E+03  0.15999888830E+03  0.94407477688E+02 0.  0.
        -13    1    4    4    0    0  0.29996425094E+01 -0.25604775886E+02 -0.86069693072E+02  0.89847618048E+02  0.00000000000E+00 0.  1.
         13    1    4    4    0    0  0.31916336992E+02  0.51326617140E+02 -0.35610764158E+02  0.70151270252E+02  0.00000000000E+00 0. -1.
        -13    1    3    3    0    0 -0.21639035191E+02 -0.87273616565E+01 -0.32138529849E+01  0.23552994215E+02  0.00000000000E+00 0.  1.
         13    1    3    3    0    0  0.35162683277E+02 -0.39637879244E+02 -0.16471109455E+03  0.17302404583E+03  0.00000000000E+00 0. -1.
          1    1    1    2  501    0 -0.48439627588E+02  0.22643399645E+02  0.22842784289E+01  0.53519519769E+02  0.00000000000E+00 0. -1.
<scales pt_clust_5="13000.00000" pt_clust_6="13000.00000" pt_clust_7="13000.00000" pt_clust_8="13000.00000" pt_clust_9="13000.00000"></scales>
<clustering>
<clus scale="   89.004">  7  8 -1 -1</clus>
<clus scale="   94.407">  5  6 -1 -1</clus>
<clus scale="   53.471">  5  9 -1 -1</clus>
<clus scale="  102.195">  2  7  1 -1</clus>
<clus scale="  177.016">  1  5  2 -1</clus>
</clustering>
</event>
<event>
 9    1  0.3312826E-006  0.2562099E+03  0.7546771E-02  0.1125347E+00
          1   -1    0    0  502    0 -0.00000000000E+00  0.00000000000E+00  0.79603452800E+03  0.79603452800E+03  0.00000000000E+00 0. -1.
         21   -1    0    0  501  502  0.00000000000E+00 -0.00000000000E+00 -0.15899214558E+03  0.15899214558E+03  0.00000000000E+00 0. -1.
         23    2    1    2    0    0  0.14071369630E+03  0.38154834225E+02  0.67455270350E+03  0.69608551362E+03  0.90871099768E+02 0.  0.
         23    2    1    2    0    0 -0.35455736476E+02 -0.21098081309E+02  0.57750653446E+02  0.11595576142E+03  0.91697122904E+02 0.  0.
        -11    1    3    3    0    0  0.51161660466E+01 -0.21021162478E+02  0.54745003039E+02  0.58864928308E+02  0.00000000000E+00 0.  1.
         11    1    3    3    0    0  0.13559753025E+03  0.59175996702E+02  0.61980770046E+03  0.63722058531E+03  0.00000000000E+00 0. -1.
        -13    1    4    4    0    0 -0.83058821142E+01 -0.55800698717E+02  0.34640084756E+02  0.66201519067E+02  0.00000000000E+00 0. -1.
         13    1    4    4    0    0 -0.27149854362E+02  0.34702617408E+02  0.23110568690E+02  0.49754242352E+02  0.00000000000E+00 0.  1.
          1    1    1    2  501    0 -0.10525795982E+03 -0.17056752916E+02 -0.95260974526E+02  0.14298539853E+03  0.00000000000E+00 0. -1.
<scales pt_clust_5="13000.00000" pt_clust_6="13000.00000" pt_clust_7="13000.00000" pt_clust_8="13000.00000" pt_clust_9="13000.00000"></scales>
<clustering>
<clus scale="   90.871">  5  6 -1 -1</clus>
<clus scale="   91.697">  7  8 -1 -1</clus>
<clus scale="  106.631">  7  9 -1 -1</clus>
<clus scale="  171.795">  1  5  2 -1</clus>
<clus scale="  256.210">  2  5  1 -1</clus>
</clustering>
</event>
<event>
 9    1  0.3312826E-006  0.2262572E+03  0.7546771E-02  0.1152431E+00
          3   -1    0    0  502    0 -0.00000000000E+00  0.00000000000E+00  0.36103611755E+02  0.36103611755E+02  0.00000000000E+00 0. -1.
         21   -1    0    0  501  502  0.00000000000E+00 -0.00000000000E+00 -0.89007033651E+03  0.89007033651E+03  0.00000000000E+00 0. -1.
         23    2    1    2    0    0  0.60849666163E+02  0.71898596748E+02 -0.25863811555E+03  0.28929995865E+03  0.89043254491E+02 0.  0.
         23    2    1    2    0    0  0.86890824291E+01  0.12080678161E+01 -0.12130612456E+03  0.15223233034E+03  0.91556250274E+02 0.  0.
        -11    1    3    3    0    0 -0.33342508394E+01  0.31591109250E+02 -0.16879536928E+03  0.17175852847E+03  0.00000000000E+00 0.  1.
         11    1    3    3    0    0  0.64183917003E+02  0.40307487498E+02 -0.89842746277E+02  0.11754143018E+03  0.00000000000E+00 0. -1.
        -13    1    4    4    0    0  0.49951111432E+02 -0.92768735185E+00 -0.75631108047E+02  0.90642366703E+02  0.00000000000E+00 0.  1.
         13    1    4    4    0    0 -0.41262029003E+02  0.21357551680E+01 -0.45675016517E+02  0.61589963642E+02  0.00000000000E+00 0. -1.
          3    1    1    2  501    0 -0.69538748592E+02 -0.73106664564E+02 -0.47402248464E+03  0.48464165928E+03  0.00000000000E+00 0. -1.
<scales pt_clust_5="13000.00000" pt_clust_6="13000.00000" pt_clust_7="13000.00000" pt_clust_8="13000.00000" pt_clust_9="13000.00000"></scales>
<clustering>
<clus scale="   89.043">  5  6 -1 -1</clus>
<clus scale="   91.556">  7  8 -1 -1</clus>
<clus scale="  100.897">  7  9 -1 -1</clus>
<clus scale="  129.618">  1  5  2 -1</clus>
<clus scale="  226.257">  2  5  1 -1</clus>
</clustering>
</event>
<event>
 9    1  0.3312826E-006  0.1707130E+03  0.7546771E-02  0.1204591E+00
          1   -1    0    0  502    0 -0.00000000000E+00  0.00000000000E+00  0.64849590572E+02  0.64849590572E+02  0.00000000000E+00 0. -1.
         21   -1    0    0  501  502  0.00000000000E+00 -0.00000000000E+00 -0.33682813516E+03  0.33682813516E+03  0.00000000000E+00 0.  1.
         23    2    1    2    0    0  0.77038385615E+01  0.18224255904E+02 -0.16692169067E+02  0.94571807656E+02  0.90960022336E+02 0.  0.
         23    2    1    2    0    0  0.40919304747E+02  0.15338225789E+02 -0.10632822437E+03  0.14685866838E+03  0.91389969405E+02 0.  0.
        -11    1    3    3    0    0 -0.31250147299E+02  0.30437737503E+02 -0.28459155142E+02  0.52085996984E+02  0.00000000000E+00 0.  1.
         11    1    3    3    0    0  0.38953985860E+02 -0.12213481599E+02  0.11766986075E+02  0.42485810672E+02  0.00000000000E+00 0. -1.
        -13    1    4    4    0    0  0.32721921326E+02 -0.30391171536E+02 -0.20231653435E+02  0.49027209214E+02  0.00000000000E+00 0. -1.
         13    1    4    4    0    0  0.81973834204E+01  0.45729397325E+02 -0.86096570936E+02  0.97831459161E+02  0.00000000000E+00 0.  1.
          1    1    1    2  501    0 -0.48623143308E+02 -0.33562481693E+02 -0.14895815115E+03  0.16024724970E+03  0.00000000000E+00 0. -1.
<scales pt_clust_5="13000.00000" pt_clust_6="13000.00000" pt_clust_7="13000.00000" pt_clust_8="13000.00000" pt_clust_9="13000.00000"></scales>
<clustering>
<clus scale="   90.960">  5  6 -1 -1</clus>
<clus scale="   91.390">  7  8 -1 -1</clus>
<clus scale="   59.082">  7  9 -1 -1</clus>
<clus scale="   93.087">  1  5  2 -1</clus>
<clus scale="  170.713">  2  5  1 -1</clus>
</clustering>
</event>
<event>
 9    1  0.3312826E-006  0.2610182E+03  0.7546771E-02  0.1116054E+00
          2   -1    0    0  502    0 -0.00000000000E+00  0.00000000000E+00  0.21374179956E+03  0.21374179956E+03  0.00000000000E+00 0. -1.
         21   -1    0    0  501  502  0.00000000000E+00 -0.00000000000E+00 -0.26350540386E+03  0.26350540386E+03  0.00000000000E+00 0.  1.
         23    2    1    2    0    0 -0.12996728309E+03  0.12902364497E+03  0.23166924320E+02  0.20623180322E+03  0.91957896026E+02 0.  0.
         23    2    1    2    0    0  0.24098886794E+02 -0.84528634512E+01 -0.53533628703E+02  0.10939340164E+03  0.91917678790E+02 0.  0.
        -11    1    3    3    0    0 -0.14092856301E+03  0.97087703989E+02  0.20604372450E+02  0.17237001567E+03  0.00000000000E+00 0.  1.
         11    1    3    3    0    0  0.10961279921E+02  0.31935940984E+02  0.25625518697E+01  0.33861787550E+02  0.00000000000E+00 0. -1.
        -11    1    4    4    0    0 -0.11863030324E+02 -0.17263487591E+02  0.18792470310E+02  0.28141009801E+02  0.00000000000E+00 0. -1.
         11    1    4    4    0    0  0.35961917118E+02  0.88106241395E+01 -0.72326099013E+02  0.81252391836E+02  0.00000000000E+00 0.  1.
          2    1    1    2  501    0  0.10586839630E+03 -0.12057078152E+03 -0.19396899918E+02  0.16162199856E+03  0.00000000000E+00 0. -1.
<scales pt_clust_5="13000.00000" pt_clust_6="13000.00000" pt_clust_7="13000.00000" pt_clust_8="13000.00000" pt_clust_9="13000.00000"></scales>
<clustering>
<clus scale="   91.918">  7  8 -1 -1</clus>
<clus scale="   91.958">  5  6 -1 -1</clus>
<clus scale="  160.454">  7  9 -1 -1</clus>
<clus scale="  204.926">  1  5  2 -1</clus>
<clus scale="  261.018">  2  5  1 -1</clus>
</clustering>
</event>
<event>
 9    1  0.3312826E-006  0.3539308E+03  0.7546771E-02  0.1073960E+00
         21   -1    0    0  501  502  0.00000000000E+00  0.00000000000E+00  0.12174269073E+03  0.12174269073E+03  0.00000000000E+00 0.  1.
         -1   -1    0    0    0  501 -0.00000000000E+00 -0.00000000000E+00 -0.11328867668E+04  0.11328867668E+04  0.00000000000E+00 0.  1.
         23    2    1    2    0    0 -0.21759284920E+03 -0.21807392586E+00 -0.81114002156E+03  0.84809701834E+03  0.11821050023E+03 0.  0.
         23    2    1    2    0    0  0.61231487167E+02 -0.10407439694E+03 -0.28904458939E+02  0.15236543381E+03  0.88311848319E+02 0.  0.
        -13    1    3    3    0    0  0.54220182214E+01  0.19843688801E+02 -0.38322893249E+02  0.43494992974E+02  0.00000000000E+00 0. -1.
         13    1    3    3    0    0 -0.22301486742E+03 -0.20061762727E+02 -0.77281712832E+03  0.80460202537E+03  0.00000000000E+00 0.  1.
        -13    1    4    4    0    0  0.39507105218E+02 -0.11286736724E+03 -0.40451838857E+02  0.12623868352E+03  0.00000000000E+00 0.  1.
         13    1    4    4    0    0  0.21724381948E+02  0.87929702965E+01  0.11547379918E+02  0.26126750288E+02  0.00000000000E+00 0. -1.
         -1    1    1    2    0  502  0.15636136203E+03  0.10429247087E+03 -0.17109959553E+03  0.25416700534E+03  0.00000000000E+00 0.  1.
<scales pt_clust_5="13000.00000" pt_clust_6="13000.00000" pt_clust_7="13000.00000" pt_clust_8="13000.00000" pt_clust_9="13000.00000"></scales>
<clustering>
<clus scale="   88.312">  7  8 -1 -1</clus>
<clus scale="  118.211">  5  6 -1 -1</clus>
<clus scale="  187.952">  7  9 -1 -1</clus>
<clus scale="  247.630">  2  5  1 -1</clus>
<clus scale="  353.931">  1  5  2 -1</clus>
</clustering>
</event>
<event>
 9    1  0.3312826E-006  0.3201075E+03  0.7546771E-02  0.1109125E+00
         -1   -1    0    0    0  501 -0.00000000000E+00  0.00000000000E+00  0.79113826457E+03  0.79113826457E+03  0.00000000000E+00 0.  1.
         21   -1    0    0  501  502  0.00000000000E+00 -0.00000000000E+00 -0.74602812703E+02  0.74602812703E+02  0.00000000000E+00 0. -1.
         23    2    1    2    0    0  0.88561615585E+02 -0.32430394573E+02  0.84023836778E+02  0.15684068217E+03  0.92973674708E+02 0.  0.
         23    2    1    2    0    0 -0.25977855259E+02  0.12621106953E+03  0.54220098826E+03  0.56444434169E+03  0.89506536928E+02 0.  0.
        -11    1    4    4    0    0  0.33586894417E+02  0.46179608819E+02  0.19239251187E+03  0.20068760393E+03  0.00000000000E+00 0.  1.
         11    1    4    4    0    0 -0.59564749675E+02  0.80031460709E+02  0.34980847640E+03  0.36375673776E+03  0.00000000000E+00 0. -1.
        -11    1    3    3    0    0  0.59382201251E+02  0.54119606184E+01  0.90746937514E+02  0.10858426134E+03  0.00000000000E+00 0.  1.
         11    1    3    3    0    0  0.29179414334E+02 -0.37842355192E+02 -0.67231007359E+01  0.48256420825E+02  0.00000000000E+00 0. -1.
         -1    1    1    2    0  502 -0.62583760326E+02 -0.93780674955E+02  0.90310626823E+02  0.14445605342E+03  0.00000000000E+00 0.  1.
<scales pt_clust_5="13000.00000" pt_clust_6="13000.00000" pt_clust_7="13000.00000" pt_clust_8="13000.00000" pt_clust_9="13000.00000"></scales>
<clustering>
<clus scale="   89.507">  5  6 -1 -1</clus>
<clus scale="   92.974">  7  8 -1 -1</clus>
<clus scale="  112.746">  5  9 -1 -1</clus>
<clus scale="  132.435">  1  7  2 -1</clus>
<clus scale="  320.108">  2  5  1 -1</clus>
</clustering>
</event>
<event>
 9    1  0.3312826E-006  0.7173943E+03  0.7546771E-02  0.1031685E+00
         21   -1    0    0  501  502  0.00000000000E+00  0.00000000000E+00  0.18484511540E+03  0.18484511540E+03  0.00000000000E+00 0. -1.
          1   -1    0    0  502    0 -0.00000000000E+00 -0.00000000000E+00 -0.10604244935E+04  0.10604244935E+04  0.00000000000E+00 0. -1.
         23    2    1    2    0    0 -0.28758662944E+02 -0.22156046596E+02 -0.32866965412E+03  0.34318045628E+03  0.91821200924E+02 0.  0.
         23    2    1    2    0    0  0.29948047394E+03 -0.17034445054E+03 -0.40910729679E+03  0.54245565960E+03  0.90463120873E+02 0.  0.
        -11    1    4    4    0    0  0.43945770149E+02 -0.15952284955E+02 -0.11150081857E+03  0.12090549471E+03  0.00000000000E+00 0.  1.
         11    1    4    4    0    0  0.25553470379E+03 -0.15439216559E+03 -0.29760647822E+03  0.42155016489E+03  0.00000000000E+00 0. -1.
        -13    1    3    3    0    0  0.25836484491E+02 -0.33424887431E+02 -0.12119207021E+03  0.12834432170E+03  0.00000000000E+00 0.  1.
         13    1    3    3    0    0 -0.54595147435E+02  0.11268840835E+02 -0.20747758391E+03  0.21483613458E+03  0.00000000000E+00 0. -1.
          1    1    1    2  501    0 -0.27072181100E+03  0.19250049714E+03 -0.13780242715E+03  0.35963349299E+03  0.00000000000E+00 0. -1.
<scales pt_clust_5="13000.00000" pt_clust_6="13000.00000" pt_clust_7="13000.00000" pt_clust_8="13000.00000" pt_clust_9="13000.00000"></scales>
<clustering>
<clus scale="   90.463">  5  6 -1 -1</clus>
<clus scale="   91.821">  7  8 -1 -1</clus>
<clus scale="   98.737">  2  7  1 -1</clus>
<clus scale="  336.035">  5  9 -1 -1</clus>
<clus scale="  717.394">  1  5  2 -1</clus>
</clustering>
</event>
<event>
 9    1  0.3312826E-006  0.2088221E+03  0.7546771E-02  0.1165587E+00
          1   -1    0    0  502    0 -0.00000000000E+00  0.00000000000E+00  0.48393139548E+03  0.48393139548E+03  0.00000000000E+00 0. -1.
         21   -1    0    0  501  502  0.00000000000E+00 -0.00000000000E+00 -0.10178470014E+03  0.10178470014E+03  0.00000000000E+00 0. -1.
         23    2    1    2    0    0  0.40689411730E+01  0.78564046921E+02  0.35497688774E+03  0.37513383482E+03  0.92346832343E+02 0.  0.
         23    2    1    2    0    0  0.53159126497E+02 -0.61580697836E+02  0.66871654387E+02  0.13889040273E+03  0.90557444394E+02 0.  0.
        -13    1    3    3    0    0  0.47217562812E+02  0.49459789256E+02  0.22363801692E+03  0.23385835799E+03  0.00000000000E+00 0. -1.
         13    1    3    3    0    0 -0.43148621639E+02  0.29104257665E+02  0.13133887082E+03  0.14127547683E+03  0.00000000000E+00 0.  1.
        -13    1    4    4    0    0  0.94475961743E+01 -0.20981259408E+02  0.75211659303E+02  0.78652806784E+02  0.00000000000E+00 0. -1.
         13    1    4    4    0    0  0.43711530323E+02 -0.40599438427E+02 -0.83400049167E+01  0.60237595949E+02  0.00000000000E+00 0.  1.
          1    1    1    2  501    0 -0.57228067670E+02 -0.16983349085E+02 -0.39701846792E+02  0.71691858074E+02  0.00000000000E+00 0. -1.
<scales pt_clust_5="13000.00000" pt_clust_6="13000.00000" pt_clust_7="13000.00000" pt_clust_8="13000.00000" pt_clust_9="13000.00000"></scales>
<clustering>
<clus scale="   90.557">  7  8 -1 -1</clus>
<clus scale="   59.695">  7  9 -1 -1</clus>
<clus scale="   92.347">  5  6 -1 -1</clus>
<clus scale="  121.313">  1  5  2 -1</clus>
<clus scale="  208.822">  2  5  1 -1</clus>
</clustering>
</event>
<event>
 9    1  0.3312826E-006  0.1879239E+03  0.7546771E-02  0.1188400E+00
         21   -1    0    0  501  502  0.00000000000E+00  0.00000000000E+00  0.86876363627E+02  0.86876363627E+02  0.00000000000E+00 0. -1.
          2   -1    0    0  502    0 -0.00000000000E+00 -0.00000000000E+00 -0.52300357548E+03  0.52300357548E+03  0.00000000000E+00 0. -1.
         23    2    1    2    0    0  0.44212374563E+01  0.38395988050E+02 -0.40791393530E+03  0.41985003693E+03  0.91577702823E+02 0.  0.
         23    2    1    2    0    0  0.32214963229E+02 -0.41818603570E+02 -0.77815407600E+02  0.12826990784E+03  0.87242948918E+02 0.  0.
        -13    1    3    3    0    0 -0.40258608454E+02  0.27266011044E+02 -0.27296843383E+03  0.27726513805E+03  0.00000000000E+00 0. -1.
         13    1    3    3    0    0  0.44679845910E+02  0.11129977006E+02 -0.13494550148E+03  0.14258489887E+03  0.00000000000E+00 0.  1.
        -13    1    4    4    0    0  0.10932439312E+02 -0.66270147719E+02 -0.38883610635E+02  0.77609186853E+02  0.00000000000E+00 0.  1.
         13    1    4    4    0    0  0.21282523917E+02  0.24451544149E+02 -0.38931796965E+02  0.50660720983E+02  0.00000000000E+00 0. -1.
          2    1    1    2  501    0 -0.36636200686E+02  0.34226155204E+01  0.49602131045E+02  0.61759994348E+02  0.00000000000E+00 0. -1.
<scales pt_clust_5="13000.00000" pt_clust_6="13000.00000" pt_clust_7="13000.00000" pt_clust_8="13000.00000" pt_clust_9="13000.00000"></scales>
<clustering>
<clus scale="   87.243">  7  8 -1 -1</clus>
<clus scale="   36.796">  7  9 -1 -1</clus>
<clus scale="   91.578">  5  6 -1 -1</clus>
<clus scale="   99.400">  2  5  1 -1</clus>
<clus scale="  187.924">  1  5  2 -1</clus>
</clustering>
</event>
<event>
 9    1  0.3312826E-006  0.2243142E+03  0.7546771E-02  0.1166868E+00
         21   -1    0    0  501  502  0.00000000000E+00  0.00000000000E+00  0.60678094556E+03  0.60678094556E+03  0.00000000000E+00 0. -1.
          3   -1    0    0  502    0 -0.00000000000E+00 -0.00000000000E+00 -0.60727019962E+02  0.60727019962E+02  0.00000000000E+00 0. -1.
         23    2    1    2    0    0 -0.28700793848E+02 -0.72880676114E+01  0.22111507463E+02  0.97567169142E+02  0.90297188412E+02 0.  0.
         23    2    1    2    0    0 -0.32301552856E+01 -0.41928874297E+02  0.96993354231E+02  0.13897978184E+03  0.90217540382E+02 0.  0.
        -11    1    3    3    0    0  0.11512116428E+02  0.34897478447E+02  0.86226106501E+01  0.37745360524E+02  0.00000000000E+00 0.  1.
         11    1    3    3    0    0 -0.40212910276E+02 -0.42185546059E+02  0.13488896813E+02  0.59821808618E+02  0.00000000000E+00 0. -1.
        -13    1    4    4    0    0  0.40063677128E+00  0.28754205513E+02  0.28590108042E+02  0.40550698174E+02  0.00000000000E+00 0.  1.
         13    1    4    4    0    0 -0.36307920569E+01 -0.70683079810E+02  0.68403246188E+02  0.98429083667E+02  0.00000000000E+00 0. -1.
          3    1    1    2  501    0  0.31930949134E+02  0.49216941909E+02  0.42694906390E+03  0.43096101453E+03  0.00000000000E+00 0. -1.
<scales pt_clust_5="13000.00000" pt_clust_6="13000.00000" pt_clust_7="13000.00000" pt_clust_8="13000.00000" pt_clust_9="13000.00000"></scales>
<clustering>
<clus scale="   90.218">  7  8 -1 -1</clus>
<clus scale="   58.668">  7  9 -1 -1</clus>
<clus scale="   90.297">  5  6 -1 -1</clus>
<clus scale="   95.029">  2  5  1 -1</clus>
<clus scale="  224.314">  1  5  2 -1</clus>
</clustering>
</event>
<event>
 9    1  0.3312826E-006  0.4079780E+03  0.7546771E-02  0.1089293E+00
         21   -1    0    0  501  502  0.00000000000E+00  0.00000000000E+00  0.82409176856E+02  0.82409176856E+02  0.00000000000E+00 0. -1.
          1   -1    0    0  502    0 -0.00000000000E+00 -0.00000000000E+00 -0.81950519532E+03  0.81950519532E+03  0.00000000000E+00 0. -1.
         23    2    1    2    0    0 -0.40776964938E+02  0.21131453749E+02 -0.20627324338E+03  0.23242288863E+03  0.96759748968E+02 0.  0.
         23    2    1    2    0    0  0.15698723262E+03  0.57447759929E+02 -0.48218145947E+03  0.52101422359E+03  0.10493629019E+03 0.  0.
        -13    1    3    3    0    0 -0.74654600337E+01 -0.37309626423E+02 -0.95818533361E+02  0.10309671504E+03  0.00000000000E+00 0.  1.
         13    1    3    3    0    0 -0.33311504904E+02  0.58441080172E+02 -0.11045471002E+03  0.12932617359E+03  0.00000000000E+00 0. -1.
        -13    1    4    4    0    0  0.10891486906E+03 -0.91285716714E+01 -0.33621688122E+03  0.35353581253E+03  0.00000000000E+00 0. -1.
         13    1    4    4    0    0  0.48072363561E+02  0.66576331601E+02 -0.14596457825E+03  0.16747841106E+03  0.00000000000E+00 0.  1.
          1    1    1    2  501    0 -0.11621026769E+03 -0.78579213678E+02 -0.48641315618E+02  0.14847725995E+03  0.00000000000E+00 0. -1.
<scales pt_clust_5="13000.00000" pt_clust_6="13000.00000" pt_clust_7="13000.00000" pt_clust_8="13000.00000" pt_clust_9="13000.00000"></scales>
<clustering>
<clus scale="   96.760">  5  6 -1 -1</clus>
<clus scale="  104.936">  7  8 -1 -1</clus>
<clus scale="  107.106">  2  5  1 -1</clus>
<clus scale="  144.040">  7  9 -1 -1</clus>
<clus scale="  407.978">  1  5  2 -1</clus>
</clustering>
</event>
<event>
 9    1  0.3312826E-006  0.7636894E+03  0.7546771E-02  0.9855244E-01
         21   -1    0    0  501  502  0.00000000000E+00  0.00000000000E+00  0.31157804403E+03  0.31157804403E+03  0.00000000000E+00 0. -1.
          2   -1    0    0  502    0 -0.00000000000E+00 -0.00000000000E+00 -0.10399418638E+04  0.10399418638E+04  0.00000000000E+00 0. -1.
         23    2    1    2    0    0 -0.32714168052E+03  0.39656126194E+02 -0.38238417393E+03  0.51311467223E+03  0.92058258245E+02 0.  0.
         23    2    1    2    0    0  0.22232668298E+03  0.68187834217E+02 -0.53875245150E+03  0.59391012710E+03  0.91631328571E+02 0.  0.
        -13    1    4    4    0    0 -0.11321814537E+00  0.21479008478E+02 -0.32263440376E+02  0.38759388649E+02  0.00000000000E+00 0. -1.
         13    1    4    4    0    0  0.22243990113E+03  0.46708825739E+02 -0.50648901112E+03  0.55515073845E+03  0.00000000000E+00 0.  1.
        -13    1    3    3    0    0 -0.19411745303E+03 -0.14244879785E+02 -0.25802053407E+03  0.32320132761E+03  0.00000000000E+00 0. -1.
         13    1    3    3    0    0 -0.13302422749E+03  0.53901005979E+02 -0.12436363987E+03  0.18991334462E+03  0.00000000000E+00 0.  1.
          2    1    1    2  501    0  0.10481499754E+03 -0.10784396041E+03  0.19277280562E+03  0.24449510853E+03  0.00000000000E+00 0. -1.
<scales pt_clust_5="13000.00000" pt_clust_6="13000.00000" pt_clust_7="13000.00000" pt_clust_8="13000.00000" pt_clust_9="13000.00000"></scales>
<clustering>
<clus scale="   91.631">  5  6 -1 -1</clus>
<clus scale="   92.058">  7  8 -1 -1</clus>
<clus scale="  150.388">  5  9 -1 -1</clus>
<clus scale="  342.153">  2  7  1 -1</clus>
<clus scale="  763.689">  1  5  2 -1</clus>
</clustering>
</event>
<event>
 9    1  0.3312826E-006  0.2241882E+03  0.7546771E-02  0.1166639E+00
         21   -1    0    0  501  502  0.00000000000E+00  0.00000000000E+00  0.48083637945E+03  0.48083637945E+03  0.00000000000E+00 0. -1.
         -2   -1    0    0    0  501 -0.00000000000E+00 -0.00000000000E+00 -0.56259407266E+02  0.56259407266E+02  0.00000000000E+00 0.  1.
         23    2    1    2    0    0  0.15308516917E+02 -0.26178514276E+02  0.74000561330E+02  0.12096577394E+03  0.90757754979E+02 0.  0.
         23    2    1    2    0    0 -0.10156577763E+03  0.16151034096E+02  0.22124988175E+03  0.26035383837E+03  0.90863347334E+02 0.  0.
        -11    1    4    4    0    0 -0.10793673165E+03  0.36884065064E+02  0.19837622676E+03  0.22883159668E+03  0.00000000000E+00 0. -1.
         11    1    4    4    0    0  0.63709540205E+01 -0.20733030969E+02  0.22873654990E+02  0.31522241686E+02  0.00000000000E+00 0.  1.
        -13    1    3    3    0    0  0.52586444317E+02 -0.11436793967E+02  0.30693675921E+02  0.61953499689E+02  0.00000000000E+00 0.  1.
         13    1    3    3    0    0 -0.37277927400E+02 -0.14741720309E+02  0.43306885409E+02  0.59012274255E+02  0.00000000000E+00 0. -1.
         -2    1    1    2    0  502  0.86257260708E+02  0.10027480180E+02  0.12932652910E+03  0.15577617440E+03  0.00000000000E+00 0.  1.
<scales pt_clust_5="13000.00000" pt_clust_6="13000.00000" pt_clust_7="13000.00000" pt_clust_8="13000.00000" pt_clust_9="13000.00000"></scales>
<clustering>
<clus scale="   90.758">  7  8 -1 -1</clus>
<clus scale="   90.863">  5  6 -1 -1</clus>
<clus scale="   86.838">  5  9 -1 -1</clus>
<clus scale="   95.690">  2  7  1 -1</clus>
<clus scale="  224.188">  1  5  2 -1</clus>
</clustering>
</event>
<event>
 9    1  0.3312826E-006  0.2381888E+03  0.7546771E-02  0.1152204E+00
          1   -1    0    0  502    0 -0.00000000000E+00  0.00000000000E+00  0.23396851264E+03  0.23396851264E+03  0.00000000000E+00 0. -1.
         21   -1    0    0  501  502  0.00000000000E+00 -0.00000000000E+00 -0.19962306751E+03  0.19962306751E+03  0.00000000000E+00 0.  1.
         23    2    1    2    0    0 -0.32168231498E+02 -0.47074112182E+02  0.13482048744E+03  0.17507822008E+03  0.96047135077E+02 0.  0.
         23    2    1    2    0    0  0.38211503346E+02 -0.49716395709E+02 -0.11522843225E+03  0.16041857904E+03  0.92329247325E+02 0.  0.
        -11    1    4    4    0    0  0.17147366619E+02  0.19019058385E+02 -0.12202478143E+01  0.25636804959E+02  0.00000000000E+00 0. -1.
         11    1    4    4    0    0  0.21064136728E+02 -0.68735454094E+02 -0.11400818443E+03  0.13478177408E+03  0.00000000000E+00 0.  1.
        -13    1    3    3    0    0 -0.23858942838E+02  0.16140263532E+01  0.12162536268E+03  0.12395395549E+03  0.00000000000E+00 0.  1.
         13    1    3    3    0    0 -0.83092886603E+01 -0.48688138535E+02  0.13195124757E+02  0.51124264585E+02  0.00000000000E+00 0. -1.
          1    1    1    2  501    0 -0.60432718480E+01  0.96790507891E+02  0.14753389937E+02  0.98094781039E+02  0.00000000000E+00 0. -1.
<scales pt_clust_5="13000.00000" pt_clust_6="13000.00000" pt_clust_7="13000.00000" pt_clust_8="13000.00000" pt_clust_9="13000.00000"></scales>
<clustering>
<clus scale="   92.329">  5  6 -1 -1</clus>
<clus scale="   96.047">  7  8 -1 -1</clus>
<clus scale="   96.979">  5  9 -1 -1</clus>
<clus scale="  111.695">  1  7  2 -1</clus>
<clus scale="  238.189">  2  5  1 -1</clus>
</clustering>
</event>
<event>
 9    1  0.3312826E-006  0.1636525E+03  0.7546771E-02  0.1211078E+00
          1   -1    0    0  502    0 -0.00000000000E+00  0.00000000000E+00  0.85741815779E+02  0.85741815779E+02  0.00000000000E+00 0. -1.
         21   -1    0    0  501  502  0.00000000000E+00 -0.00000000000E+00 -0.36768204468E+03  0.36768204468E+03  0.00000000000E+00 0. -1.
         23    2    1    2    0    0  0.80272745817E+01  0.14829256077E+02  0.33660473076E+02  0.97915862562E+02  0.90388852856E+02 0.  0.
         23    2    1    2    0    0  0.33143599418E+02  0.95764376121E+01 -0.12577401299E+03  0.15974065996E+03  0.92237572397E+02 0.  0.
        -11    1    4    4    0    0  0.38030157506E+02 -0.33512182872E+02 -0.43747451677E+02  0.66956693534E+02  0.00000000000E+00 0. -1.
         11    1    4    4    0    0 -0.48865580882E+01  0.43088620484E+02 -0.82026561315E+02  0.92783966429E+02  0.00000000000E+00 0.  1.
        -13    1    3    3    0    0 -0.40345787211E+02 -0.24840302180E+01  0.12070578568E+02  0.42185919674E+02  0.00000000000E+00 0.  1.
         13    1    3    3    0    0  0.48373061792E+02  0.17313286295E+02  0.21589894507E+02  0.55729942888E+02  0.00000000000E+00 0. -1.
          1    1    1    2  501    0 -0.41170873999E+02 -0.24405693689E+02 -0.18982668898E+03  0.19576733793E+03  0.00000000000E+00 0. -1.
<scales pt_clust_5="13000.00000" pt_clust_6="13000.00000" pt_clust_7="13000.00000" pt_clust_8="13000.00000" pt_clust_9="13000.00000"></scales>
<clustering>
<clus scale="   90.389">  7  8 -1 -1</clus>
<clus scale="   91.948">  1  7  2 -1</clus>
<clus scale="   92.238">  5  6 -1 -1</clus>
<clus scale="   45.726">  5  9 -1 -1</clus>
<clus scale="  163.652">  2  5  1 -1</clus>
</clustering>
</event>
<event>
 9    1  0.3312826E-006  0.2462969E+03  0.7546771E-02  0.1129218E+00
         21   -1    0    0  501  502  0.00000000000E+00  0.00000000000E+00  0.10275219460E+03  0.10275219460E+03  0.00000000000E+00 0.  1.
          3   -1    0    0  502    0 -0.00000000000E+00 -0.00000000000E+00 -0.46714080280E+03  0.46714080280E+03  0.00000000000E+00 0. -1.
         23    2    1    2    0    0  0.10052148999E+03 -0.11170803689E+03 -0.22951072573E+03  0.28908306026E+03  0.91162421241E+02 0.  0.
         23    2    1    2    0    0 -0.54679985660E+02  0.33195456690E+02 -0.15209923746E+03  0.18827754369E+03  0.90677539911E+02 0.  0.
        -13    1    4    4    0    0 -0.54364428312E+02  0.57460860722E+02 -0.81290109352E+02  0.11342540923E+03  0.00000000000E+00 0. -1.
         13    1    4    4    0    0 -0.31555734734E+00 -0.24265404032E+02 -0.70809128110E+02  0.74852134459E+02  0.00000000000E+00 0.  1.
        -13    1    3    3    0    0  0.99098662057E+02 -0.58035063069E+02 -0.19151032672E+03  0.22330431838E+03  0.00000000000E+00 0.  1.
         13    1    3    3    0    0  0.14228279352E+01 -0.53672973822E+02 -0.38000399016E+02  0.65778741882E+02  0.00000000000E+00 0. -1.
          3    1    1    2  501    0 -0.45841504332E+02  0.78512580202E+02  0.17221354990E+02  0.92532393447E+02  0.00000000000E+00 0. -1.
<scales pt_clust_5="13000.00000" pt_clust_6="13000.00000" pt_clust_7="13000.00000" pt_clust_8="13000.00000" pt_clust_9="13000.00000"></scales>
<clustering>
<clus scale="   90.678">  5  6 -1 -1</clus>
<clus scale="   90.916">  5  9 -1 -1</clus>
<clus scale="   91.162">  7  8 -1 -1</clus>
<clus scale="  175.766">  2  7  1 -1</clus>
<clus scale="  246.297">  1  5  2 -1</clus>
</clustering>
</event>
<event>
 9    1  0.3312826E-006  0.2066334E+03  0.7546771E-02  0.1157113E+00
         21   -1    0    0  501  502  0.00000000000E+00  0.00000000000E+00  0.88744884411E+02  0.88744884411E+02  0.00000000000E+00 0. -1.
          4   -1    0    0  502    0 -0.00000000000E+00 -0.00000000000E+00 -0.62083442691E+03  0.62083442691E+03  0.00000000000E+00 0. -1.
         23    2    1    2    0    0  0.54007779922E+02  0.11006790923E+03 -0.46957175680E+03  0.49369549627E+03  0.90585999570E+02 0.  0.
         23    2    1    2    0    0 -0.91469347624E+02 -0.80692599500E+02 -0.64548552483E+02  0.16823508064E+03  0.96221564959E+02 0.  0.
        -13    1    4    4    0    0 -0.48036798340E+02  0.95507674559E+01 -0.44337673278E+02  0.66064971244E+02  0.00000000000E+00 0. -1.
         13    1    4    4    0    0 -0.43432549284E+02 -0.90243366956E+02 -0.20210879204E+02  0.10217010940E+03  0.00000000000E+00 0.  1.
        -13    1    3    3    0    0  0.18772862933E+02  0.11045709353E+03 -0.40408665237E+03  0.41933186442E+03  0.00000000000E+00 0. -1.
         13    1    3    3    0    0  0.35234916989E+02 -0.38918430097E+00 -0.65485104426E+02  0.74363631846E+02  0.00000000000E+00 0.  1.
          4    1    1    2  501    0  0.37461567702E+02 -0.29375309731E+02  0.20307667868E+01  0.47648734403E+02  0.00000000000E+00 0. -1.
<scales pt_clust_5="13000.00000" pt_clust_6="13000.00000" pt_clust_7="13000.00000" pt_clust_8="13000.00000" pt_clust_9="13000.00000"></scales>
<clustering>
<clus scale="   90.586">  7  8 -1 -1</clus>
<clus scale="   96.222">  5  6 -1 -1</clus>
<clus scale="   47.605">  5  9 -1 -1</clus>
<clus scale="  152.439">  2  7  1 -1</clus>
<clus scale="  206.633">  1  5  2 -1</clus>
</clustering>
</event>
<event>
 9    1  0.3312826E-006  0.2249419E+03  0.7546771E-02  0.1154800E+00
          2   -1    0    0  502    0 -0.00000000000E+00  0.00000000000E+00  0.46321450283E+03  0.46321450283E+03  0.00000000000E+00 0. -1.
         21   -1    0    0  501  502  0.00000000000E+00 -0.00000000000E+00 -0.69746499224E+02  0.69746499224E+02  0.00000000000E+00 0. -1.
         23    2    1    2    0    0  0.67990898775E+02 -0.53555178209E+02  0.20272731644E+03  0.23803582275E+03  0.89843022272E+02 0.  0.
         23    2    1    2    0    0 -0.11495242466E+03  0.20985910211E+02  0.18609321976E+03  0.23758635229E+03  0.90344451913E+02 0.  0.
        -11    1    4    4    0    0 -0.87450642029E+02  0.55335956911E+02  0.12461799447E+03  0.16198557795E+03  0.00000000000E+00 0.  1.
         11    1    4    4    0    0 -0.27501782628E+02 -0.34350046700E+02  0.61475225290E+02  0.75600774338E+02  0.00000000000E+00 0. -1.
        -11    1    3    3    0    0 -0.20564973591E+02  0.61601831237E+00  0.27147463699E+02  0.34062918293E+02  0.00000000000E+00 0.  1.
         11    1    3    3    0    0  0.88555872366E+02 -0.54171196521E+02  0.17557985274E+03  0.20397290445E+03  0.00000000000E+00 0. -1.
          2    1    1    2  501    0  0.46961525882E+02  0.32569267998E+02  0.46474674125E+01  0.57338827023E+02  0.00000000000E+00 0. -1.
<scales pt_clust_5="13000.00000" pt_clust_6="13000.00000" pt_clust_7="13000.00000" pt_clust_8="13000.00000" pt_clust_9="13000.00000"></scales>
<clustering>
<clus scale="   89.843">  7  8 -1 -1</clus>
<clus scale="   90.344">  5  6 -1 -1</clus>
<clus scale="   57.150">  5  9 -1 -1</clus>
<clus scale="  124.751">  1  7  2 -1</clus>
<clus scale="  224.942">  2  5  1 -1</clus>
</clustering>
</event>
<event>
 9    1  0.3312826E-006  0.1217187E+03  0.7546771E-02  0.1249500E+00
         21   -1    0    0  501  502  0.00000000000E+00  0.00000000000E+00  0.25465084691E+02  0.25465084691E+02  0.00000000000E+00 0.  1.
          1   -1    0    0  502    0 -0.00000000000E+00 -0.00000000000E+00 -0.49016760843E+03  0.49016760843E+03  0.00000000000E+00 0. -1.
         23    2    1    2    0    0  0.29534827064E+02  0.31614440797E+02 -0.23018407200E+03  0.25140863988E+03  0.91377340329E+02 0.  0.
         23    2    1    2    0    0 -0.35121105902E+02 -0.87491323497E+01 -0.17291880525E+03  0.19828055251E+03  0.90023468595E+02 0.  0.
        -11    1    3    3    0    0 -0.29286019431E+02 -0.72636211434E+01 -0.58865577180E+02  0.66148222221E+02  0.00000000000E+00 0.  1.
         11    1    3    3    0    0  0.58820846495E+02  0.38878061940E+02 -0.17131849482E+03  0.18526041766E+03  0.00000000000E+00 0. -1.
        -13    1    4    4    0    0 -0.26461807531E+02 -0.34364282528E+02 -0.16425870891E+03  0.16988835930E+03  0.00000000000E+00 0.  1.
         13    1    4    4    0    0 -0.86592983707E+01  0.25615150178E+02 -0.86600963410E+01  0.28392193215E+02  0.00000000000E+00 0. -1.
          1    1    1    2  501    0  0.55862788382E+01 -0.22865308447E+02 -0.61599646487E+02  0.65943500734E+02  0.00000000000E+00 0. -1.
<scales pt_clust_5="13000.00000" pt_clust_6="13000.00000" pt_clust_7="13000.00000" pt_clust_8="13000.00000" pt_clust_9="13000.00000"></scales>
<clustering>
<clus scale="   90.023">  7  8 -1 -1</clus>
<clus scale="   23.538">  7  9 -1 -1</clus>
<clus scale="   91.377">  5  6 -1 -1</clus>
<clus scale="  101.102">  2  5  1 -1</clus>
<clus scale="  121.719">  1  5  2 -1</clus>
</clustering>
</event>
<event>
 9    1  0.3312826E-006  0.2092058E+03  0.7546771E-02  0.1173309E+00
          1   -1    0    0  502    0 -0.00000000000E+00  0.00000000000E+00  0.36054430180E+02  0.36054430180E+02  0.00000000000E+00 0. -1.
         21   -1    0    0  501  502  0.00000000000E+00 -0.00000000000E+00 -0.68079805039E+03  0.68079805039E+03  0.00000000000E+00 0. -1.
         23    2    1    2    0    0  0.37471250709E+02  0.23635607210E+02 -0.25898798260E+03  0.27801938687E+03  0.90869509641E+02 0.  0.
         23    2    1    2    0    0  0.12960557173E+02 -0.40257610115E+02 -0.80461376386E+02  0.12895530463E+03  0.91470138778E+02 0.  0.
        -11    1    3    3    0    0  0.15067400664E+02 -0.32619447625E+02 -0.13964706665E+03  0.14419555524E+03  0.00000000000E+00 0.  1.
         11    1    3    3    0    0  0.22403850045E+02  0.56255054834E+02 -0.11934091595E+03  0.13382383163E+03  0.00000000000E+00 0. -1.
        -13    1    4    4    0    0  0.48403610001E+02 -0.72687550718E+01 -0.57060069139E+02  0.75177095924E+02  0.00000000000E+00 0. -1.
         13    1    4    4    0    0 -0.35443052828E+02 -0.32988855043E+02 -0.23401307246E+02  0.53778208706E+02  0.00000000000E+00 0.  1.
          1    1    1    2  501    0 -0.50431807882E+02  0.16622002905E+02 -0.30529426122E+03  0.30987778907E+03  0.00000000000E+00 0. -1.
<scales pt_clust_5="13000.00000" pt_clust_6="13000.00000" pt_clust_7="13000.00000" pt_clust_8="13000.00000" pt_clust_9="13000.00000"></scales>
<clustering>
<clus scale="   90.870">  5  6 -1 -1</clus>
<clus scale="   91.470">  7  8 -1 -1</clus>
<clus scale="   53.100">  7  9 -1 -1</clus>
<clus scale="  101.094">  1  5  2 -1</clus>
<clus scale="  209.206">  2  5  1 -1</clus>
</clustering>
</event>
<event>
 9    1  0.3312826E-006  0.3326133E+03  0.7546771E-02  0.1099378E+00
          4   -1    0    0  502    0 -0.00000000000E+00  0.00000000000E+00  0.39638439134E+03  0.39638439134E+03  0.00000000000E+00 0. -1.
         21   -1    0    0  501  502  0.00000000000E+00 -0.00000000000E+00 -0.16166678032E+03  0.16166678032E+03  0.00000000000E+00 0. -1.
         23    2    1    2    0    0  0.11277894192E+03 -0.44091288669E+02  0.15315421630E+03  0.21558332367E+03  0.91415666053E+02 0.  0.
         23    2    1    2    0    0 -0.33980353316E+02  0.76391621456E+02  0.17667539589E+03  0.21480100879E+03  0.89078244389E+02 0.  0.
        -13    1    4    4    0    0 -0.86182377248E+01  0.91530618102E+02  0.12335214734E+03  0.15384368796E+03  0.00000000000E+00 0. -1.
         13    1    4    4    0    0 -0.25362115591E+02 -0.15138996646E+02  0.53323248555E+02  0.60957320833E+02  0.00000000000E+00 0.  1.
        -13    1    3    3    0    0  0.43307257498E+01  0.21355541935E+02  0.87071012938E+01  0.23465463341E+02  0.00000000000E+00 0.  1.
         13    1    3    3    0    0  0.10844821617E+03 -0.65446830603E+02  0.14444711500E+03  0.19211786033E+03  0.00000000000E+00 0. -1.
          4    1    1    2  501    0 -0.78798588600E+02 -0.32300332788E+02 -0.95112001174E+02  0.12766683920E+03  0.00000000000E+00 0. -1.
<scales pt_clust_5="13000.00000" pt_clust_6="13000.00000" pt_clust_7="13000.00000" pt_clust_8="13000.00000" pt_clust_9="13000.00000"></scales>
<clustering>
<clus scale="   89.078">  5  6 -1 -1</clus>
<clus scale="   85.162">  5  9 -1 -1</clus>
<clus scale="   91.416">  7  8 -1 -1</clus>
<clus scale="  151.723">  1  7  2 -1</clus>
<clus scale="  332.613">  2  5  1 -1</clus>
</clustering>
</event>
<event>
 9    1  0.3312826E-006  0.1227822E+03  0.7546771E-02  0.1249861E+00
          3   -1    0    0  502    0 -0.00000000000E+00  0.00000000000E+00  0.92557536362E+02  0.92557536362E+02  0.00000000000E+00 0. -1.
         21   -1    0    0  501  502  0.00000000000E+00 -0.00000000000E+00 -0.13913529007E+03  0.13913529007E+03  0.00000000000E+00 0.  1.
         23    2    1    2    0    0  0.83483533120E+01 -0.21064609364E+01  0.63355719713E+01  0.97994334921E+02  0.97409537642E+02 0.  0.
         23    2    1    2    0    0 -0.31626630915E+02  0.49280735187E+01 -0.35340114329E+02  0.10439563392E+03  0.92870851238E+02 0.  0.
        -11    1    3    3    0    0 -0.21445690616E+02 -0.28002973394E+02 -0.28499479180E+02  0.45346493562E+02  0.00000000000E+00 0.  1.
         11    1    3    3    0    0  0.29794043928E+02  0.25896512457E+02  0.34835051151E+02  0.52647841359E+02  0.00000000000E+00 0. -1.
        -13    1    4    4    0    0  0.33078344942E+02 -0.65712102237E+00 -0.87893821837E+01  0.34232469255E+02  0.00000000000E+00 0.  1.
         13    1    4    4    0    0 -0.64704975857E+02  0.55851945411E+01 -0.26550732146E+02  0.70163164667E+02  0.00000000000E+00 0. -1.
          3    1    1    2  501    0  0.23278277603E+02 -0.28216125823E+01 -0.17573211353E+02  0.29302857590E+02  0.00000000000E+00 0. -1.
<scales pt_clust_5="13000.00000" pt_clust_6="13000.00000" pt_clust_7="13000.00000" pt_clust_8="13000.00000" pt_clust_9="13000.00000"></scales>
<clustering>
<clus scale="   92.871">  7  8 -1 -1</clus>
<clus scale="   23.449">  7  9 -1 -1</clus>
<clus scale="   97.410">  5  6 -1 -1</clus>
<clus scale="   97.789">  1  5  2 -1</clus>
<clus scale="  122.782">  2  5  1 -1</clus>
</clustering>
</event>
<event>
 9    1  0.3312826E-006  0.3767116E+03  0.7546771E-02  0.1090564E+00
          3   -1    0    0  502    0 -0.00000000000E+00  0.00000000000E+00  0.41102852737E+03  0.41102852737E+03  0.00000000000E+00 0. -1.
         21   -1    0    0  501  502  0.00000000000E+00 -0.00000000000E+00 -0.15892705232E+03  0.15892705232E+03  0.00000000000E+00 0. -1.
         23    2    1    2    0    0 -0.88893927465E+02  0.30054104097E+02  0.39325992894E+02  0.13730670639E+03  0.92202051976E+02 0.  0.
         23    2    1    2    0    0 -0.30797437766E+02 -0.40928550874E+02  0.27716854058E+03  0.29630100028E+03  0.91368782587E+02 0.  0.
        -11    1    3    3    0    0 -0.68433269427E+02 -0.18898663563E+02  0.44831590310E+02  0.83965131684E+02  0.00000000000E+00 0.  1.
         11    1    3    3    0    0 -0.20460658038E+02  0.48952767660E+02 -0.55055974159E+01  0.53341574703E+02  0.00000000000E+00 0. -1.
        -11    1    4    4    0    0  0.14037508191E+02 -0.52216469111E+02  0.19107975727E+03  0.19858269039E+03  0.00000000000E+00 0. -1.
         11    1    4    4    0    0 -0.44834945957E+02  0.11287918238E+02  0.86088783310E+02  0.97718309896E+02  0.00000000000E+00 0.  1.
          3    1    1    2  501    0  0.11969136523E+03  0.10874446777E+02 -0.64393058429E+02  0.13634787302E+03  0.00000000000E+00 0. -1.
<scales pt_clust_5="13000.00000" pt_clust_6="13000.00000" pt_clust_7="13000.00000" pt_clust_8="13000.00000" pt_clust_9="13000.00000"></scales>
<clustering>
<clus scale="   91.369">  7  8 -1 -1</clus>
<clus scale="   92.202">  5  6 -1 -1</clus>
<clus scale="  120.184">  7  9 -1 -1</clus>
<clus scale="  131.555">  1  5  2 -1</clus>
<clus scale="  376.712">  2  5  1 -1</clus>
</clustering>
</event>
<event>
 9    1  0.3312826E-006  0.1352199E+03  0.7546771E-02  0.1230932E+00
         21   -1    0    0  501  502  0.00000000000E+00  0.00000000000E+00  0.15574913747E+03  0.15574913747E+03  0.00000000000E+00 0.  1.
         -4   -1    0    0    0  501 -0.00000000000E+00 -0.00000000000E+00 -0.15368882371E+03  0.15368882371E+03  0.00000000000E+00 0.  1.
         23    2    1    2    0    0  0.44095407260E+02  0.24278587523E+02 -0.94616628432E+02  0.14321264011E+03  0.94993153213E+02 0.  0.
         23    2    1    2    0    0 -0.44724309783E+02  0.10746914832E+02  0.68453476065E+02  0.12123926352E+03  0.88866869915E+02 0.  0.
        -11    1    3    3    0    0  0.55690599548E+02  0.50308812790E+02 -0.84397665781E+02  0.11293974284E+03  0.00000000000E+00 0.  1.
         11    1    3    3    0    0 -0.11595192287E+02 -0.26030225267E+02 -0.10218962650E+02  0.30272897273E+02  0.00000000000E+00 0. -1.
        -13    1    4    4    0    0 -0.35683385131E+02 -0.36632461165E+02  0.42325846119E+02  0.66383118600E+02  0.00000000000E+00 0. -1.
         13    1    4    4    0    0 -0.90409246516E+01  0.47379375997E+02  0.26127629946E+02  0.54856144915E+02  0.00000000000E+00 0.  1.
         -4    1    1    2    0  502  0.62890252259E+00 -0.35025502355E+02  0.28223466130E+02  0.44986057551E+02  0.00000000000E+00 0.  1.
<scales pt_clust_5="13000.00000" pt_clust_6="13000.00000" pt_clust_7="13000.00000" pt_clust_8="13000.00000" pt_clust_9="13000.00000"></scales>
<clustering>
<clus scale="   88.867">  7  8 -1 -1</clus>
<clus scale="   35.031">  7  9 -1 -1</clus>
<clus scale="   94.993">  5  6 -1 -1</clus>
<clus scale="  107.506">  2  5  1 -1</clus>
<clus scale="  135.220">  1  5  2 -1</clus>
</clustering>
</event>
<event>
 9    1  0.3312826E-006  0.2727579E+03  0.7546771E-02  0.1139081E+00
         -1   -1    0    0    0  501 -0.00000000000E+00  0.00000000000E+00  0.11591632978E+03  0.11591632978E+03  0.00000000000E+00 0.  1.
         21   -1    0    0  501  502  0.00000000000E+00 -0.00000000000E+00 -0.30251287087E+03  0.30251287087E+03  0.00000000000E+00 0. -1.
         23    2    1    2    0    0 -0.67649612387E+01 -0.40120716827E+02 -0.49689889620E+02  0.11324023734E+03  0.93267516330E+02 0.  0.
         23    2    1    2    0    0 -0.47250886501E+01 -0.31125005934E+02  0.42561953378E+02  0.11175433770E+03  0.98419610150E+02 0.  0.
        -11    1    3    3    0    0 -0.34826193511E+02 -0.56514619757E+02 -0.45482232229E+02  0.80469866715E+02  0.00000000000E+00 0. -1.
         11    1    3    3    0    0  0.28061232272E+02  0.16393902930E+02 -0.42076573916E+01  0.32770370621E+02  0.00000000000E+00 0.  1.
        -11    1    4    4    0    0  0.24212034118E+02 -0.21190816358E+02  0.65859415438E+02  0.73298948804E+02  0.00000000000E+00 0.  1.
         11    1    4    4    0    0 -0.28937122768E+02 -0.99341895766E+01 -0.23297462060E+02  0.38455388895E+02  0.00000000000E+00 0. -1.
         -1    1    1    2    0  502  0.11490049889E+02  0.71245722761E+02 -0.17946860485E+03  0.19343462561E+03  0.00000000000E+00 0.  1.
<scales pt_clust_5="13000.00000" pt_clust_6="13000.00000" pt_clust_7="13000.00000" pt_clust_8="13000.00000" pt_clust_9="13000.00000"></scales>
<clustering>
<clus scale="   93.268">  5  6 -1 -1</clus>
<clus scale="   98.420">  7  8 -1 -1</clus>
<clus scale="   72.166">  7  9 -1 -1</clus>
<clus scale="  101.756">  1  5  2 -1</clus>
<clus scale="  272.758">  2  5  1 -1</clus>
</clustering>
</event>
<event>
 9    1  0.3312826E-006  0.2987840E+03  0.7546771E-02  0.1120751E+00
         -3   -1    0    0    0  501 -0.00000000000E+00  0.00000000000E+00  0.38679721944E+03  0.38679721944E+03  0.00000000000E+00 0.  1.
         21   -1    0    0  501  502  0.00000000000E+00 -0.00000000000E+00 -0.21887083967E+03  0.21887083967E+03  0.00000000000E+00 0. -1.
         23    2    1    2    0    0 -0.11830912679E+02 -0.79140570869E+02  0.26500710384E+03  0.29150801204E+03  0.91350728220E+02 0.  0.
         23    2    1    2    0    0 -0.71200627015E+02  0.14331035714E+03 -0.98297605522E+02  0.20921492401E+03  0.92201287544E+02 0.  0.
        -13    1    4    4    0    0 -0.27335211501E+02  0.96094715312E+02 -0.10720979221E+02  0.10048058267E+03  0.00000000000E+00 0.  1.
         13    1    4    4    0    0 -0.43865415514E+02  0.47215641833E+02 -0.87576626301E+02  0.10873434134E+03  0.00000000000E+00 0. -1.
        -13    1    3    3    0    0 -0.27652480314E+02  0.95025799555E+01  0.91020667587E+02  0.95601886077E+02  0.00000000000E+00 0. -1.
         13    1    3    3    0    0  0.15821567636E+02 -0.88643150825E+02  0.17398643625E+03  0.19590612596E+03  0.00000000000E+00 0.  1.
         -3    1    1    2    0  502  0.83031539694E+02 -0.64169786275E+02  0.12168814549E+01  0.10494512306E+03  0.00000000000E+00 0.  1.
<scales pt_clust_5="13000.00000" pt_clust_6="13000.00000" pt_clust_7="13000.00000" pt_clust_8="13000.00000" pt_clust_9="13000.00000"></scales>
<clustering>
<clus scale="   91.351">  7  8 -1 -1</clus>
<clus scale="   92.201">  5  6 -1 -1</clus>
<clus scale="  104.938">  5  9 -1 -1</clus>
<clus scale="  121.442">  1  7  2 -1</clus>
<clus scale="  298.784">  2  5  1 -1</clus>
</clustering>
</event>
<event>
 9    1  0.3312826E-006  0.3201126E+03  0.7546771E-02  0.1119190E+00
         21   -1    0    0  501  502  0.00000000000E+00  0.00000000000E+00  0.27654281322E+03  0.27654281322E+03  0.00000000000E+00 0.  1.
          1   -1    0    0  502    0 -0.00000000000E+00 -0.00000000000E+00 -0.30743895327E+03  0.30743895327E+03  0.00000000000E+00 0. -1.
         23    2    1    2    0    0 -0.33890626246E+02  0.30463248755E+02 -0.19787904528E+03  0.22293418952E+03  0.92016043289E+02 0.  0.
         23    2    1    2    0    0  0.86779361636E+02 -0.13644698769E+03  0.46431213300E+02  0.19204319336E+03  0.92608274422E+02 0.  0.
        -11    1    4    4    0    0  0.35722315066E+02  0.44434562274E+01  0.35496744206E+01  0.36172203215E+02  0.00000000000E+00 0. -1.
         11    1    4    4    0    0  0.51057046570E+02 -0.14089044392E+03  0.42881538879E+02  0.15587099015E+03  0.00000000000E+00 0.  1.
        -13    1    3    3    0    0  0.17375108022E+02  0.41374014846E+02 -0.56501601713E+02  0.72153547933E+02  0.00000000000E+00 0.  1.
         13    1    3    3    0    0 -0.51265734268E+02 -0.10910766091E+02 -0.14137744357E+03  0.15078064159E+03  0.00000000000E+00 0. -1.
          1    1    1    2  501    0 -0.52888735390E+02  0.10598373894E+03  0.12055169193E+03  0.16900438361E+03  0.00000000000E+00 0. -1.
<scales pt_clust_5="13000.00000" pt_clust_6="13000.00000" pt_clust_7="13000.00000" pt_clust_8="13000.00000" pt_clust_9="13000.00000"></scales>
<clustering>
<clus scale="   92.016">  7  8 -1 -1</clus>
<clus scale="   92.608">  5  6 -1 -1</clus>
<clus scale="  102.682">  2  7  1 -1</clus>
<clus scale="  129.099">  5  9 -1 -1</clus>
<clus scale="  320.113">  1  5  2 -1</clus>
</clustering>
</event>
<event>
 9    1  0.3312826E-006  0.9491330E+03  0.7546771E-02  0.9941105E-01
         21   -1    0    0  501  502  0.00000000000E+00  0.00000000000E+00  0.92425674413E+03  0.92425674413E+03  0.00000000000E+00 0. -1.
          1   -1    0    0  502    0 -0.00000000000E+00 -0.00000000000E+00 -0.34962025067E+03  0.34962025067E+03  0.00000000000E+00 0. -1.
         23    2    1    2    0    0  0.30182971068E+02  0.91896621184E+02 -0.42529130560E+02  0.14173439189E+03  0.94466449980E+02 0.  0.
         23    2    1    2    0    0  0.15352844524E+03 -0.13750986562E+03 -0.19563802051E+03  0.29758869984E+03  0.88345076623E+02 0.  0.
        -13    1    4    4    0    0  0.26186945225E+02 -0.11686599280E+02  0.45468161230E+01  0.29034569737E+02  0.00000000000E+00 0.  1.
         13    1    4    4    0    0  0.12734150002E+03 -0.12582326634E+03 -0.20018483663E+03  0.26855413010E+03  0.00000000000E+00 0. -1.
        -13    1    3    3    0    0  0.56187768010E+02  0.31452773469E+02 -0.40164168804E+02  0.75891387447E+02  0.00000000000E+00 0.  1.
         13    1    3    3    0    0 -0.26004796942E+02  0.60443847715E+02 -0.23649617560E+01  0.65843004448E+02  0.00000000000E+00 0. -1.
          1    1    1    2  501    0 -0.18371141631E+03  0.45613244432E+02  0.81280364453E+03  0.83455390306E+03  0.00000000000E+00 0. -1.
<scales pt_clust_5="13000.00000" pt_clust_6="13000.00000" pt_clust_7="13000.00000" pt_clust_8="13000.00000" pt_clust_9="13000.00000"></scales>
<clustering>
<clus scale="   88.345">  5  6 -1 -1</clus>
<clus scale="   94.466">  7  8 -1 -1</clus>
<clus scale="  135.203">  2  7  1 -1</clus>
<clus scale="  189.031">  5  9 -1 -1</clus>
<clus scale="  949.133">  1  5  2 -1</clus>
</clustering>
</event>
<event>
 9    1  0.3312826E-006  0.2776484E+03  0.7546771E-02  0.1115409E+00
         21   -1    0    0  501  502  0.00000000000E+00  0.00000000000E+00  0.75369557751E+02  0.75369557751E+02  0.00000000000E+00 0. -1.
          2   -1    0    0  502    0 -0.00000000000E+00 -0.00000000000E+00 -0.75417137862E+03  0.75417137862E+03  0.00000000000E+00 0. -1.
         23    2    1    2    0    0  0.10354774705E+03  0.10382920292E+03 -0.40114122915E+03  0.43687818230E+03  0.91900060622E+02 0.  0.
         23    2    1    2    0    0  0.46020370040E+02 -0.96309595823E+01 -0.87968416254E+02  0.13338095346E+03  0.88551717354E+02 0.  0.
        -11    1    4    4    0    0  0.72317593681E+02 -0.10490400113E+02 -0.56547806001E+02  0.92398794439E+02  0.00000000000E+00 0.  1.
         11    1    4    4    0    0 -0.26297223641E+02  0.85944053093E+00 -0.31420610253E+02  0.40982159020E+02  0.00000000000E+00 0. -1.
        -13    1    3    3    0    0  0.52590981957E+01  0.68112359787E+02 -0.16786686549E+03  0.18123530616E+03  0.00000000000E+00 0.  1.
         13    1    3    3    0    0  0.98288648854E+02  0.35716843135E+02 -0.23327436367E+03  0.25564287614E+03  0.00000000000E+00 0. -1.
          2    1    1    2  501    0 -0.14956811709E+03 -0.94198243339E+02 -0.18969217545E+03  0.25928180061E+03  0.00000000000E+00 0. -1.
<scales pt_clust_5="13000.00000" pt_clust_6="13000.00000" pt_clust_7="13000.00000" pt_clust_8="13000.00000" pt_clust_9="13000.00000"></scales>
<clustering>
<clus scale="   88.552">  5  6 -1 -1</clus>
<clus scale="   91.900">  7  8 -1 -1</clus>
<clus scale="  173.056">  2  7  1 -1</clus>
<clus scale="   83.917">  5  9 -1 -1</clus>
<clus scale="  277.648">  1  5  2 -1</clus>
</clustering>
</event>
<event>
 9    1  0.5244729E-006  0.6971313E+03  0.7546771E-02  0.1033361E+00
          4   -1    0    0  502    0 -0.00000000000E+00  0.00000000000E+00  0.81444404874E+03  0.81444404874E+03  0.00000000000E+00 0. -1.
         21   -1    0    0  501  502  0.00000000000E+00 -0.00000000000E+00 -0.23776594639E+03  0.23776594639E+03  0.00000000000E+00 0. -1.
         23    2    1    2    0    0  0.45772549728E+02  0.15072648525E+02 -0.50766985927E+02  0.11429777356E+03  0.90356976143E+02 0.  0.
         23    2    1    2    0    0 -0.27527761647E+03  0.92526443713E+02  0.61172108876E+03  0.68394886895E+03  0.96148094016E+02 0.  0.
        -11    1    3    3    0    0  0.52198365727E+02 -0.20414892957E+02 -0.53499806028E+01  0.56303281712E+02  0.00000000000E+00 0.  1.
         11    1    3    3    0    0 -0.64258159999E+01  0.35487541482E+02 -0.45417005324E+02  0.57994491844E+02  0.00000000000E+00 0. -1.
        -13    1    4    4    0    0 -0.14486225751E+03  0.69217488801E+02  0.43052202669E+03  0.45948378630E+03  0.00000000000E+00 0. -1.
         13    1    4    4    0    0 -0.13041535897E+03  0.23308954912E+02  0.18119906207E+03  0.22446508265E+03  0.00000000000E+00 0.  1.
          4    1    1    2  501    0  0.22950506675E+03 -0.10759909224E+03  0.15723999510E+02  0.25396335262E+03  0.00000000000E+00 0. -1.
<scales pt_clust_5="13000.00000" pt_clust_6="13000.00000" pt_clust_7="13000.00000" pt_clust_8="13000.00000" pt_clust_9="13000.00000"></scales>
<clustering>
<clus scale="   90.357">  5  6 -1 -1</clus>
<clus scale="   96.148">  7  8 -1 -1</clus>
<clus scale="  102.405">  1  5  2 -1</clus>
<clus scale="  259.577">  7  9 -1 -1</clus>
<clus scale="  697.131">  2  5  1 -1</clus>
</clustering>
</event>
<event>
 9    1  0.3312826E-006  0.5369703E+03  0.7546771E-02  0.1055664E+00
          2   -1    0    0  502    0 -0.00000000000E+00  0.00000000000E+00  0.89685497929E+02  0.89685497929E+02  0.00000000000E+00 0. -1.
         21   -1    0    0  501  502  0.00000000000E+00 -0.00000000000E+00 -0.13979557552E+04  0.13979557552E+04  0.00000000000E+00 0. -1.
         23    2    1    2    0    0  0.56174377126E+02  0.49745964727E+02 -0.67699765105E+02  0.13584531283E+03  0.90777029973E+02 0.  0.
         23    2    1    2    0    0 -0.20844337172E+03 -0.18977516497E+03 -0.48618872465E+03  0.56956459677E+03  0.92526220407E+02 0.  0.
        -11    1    3    3    0    0 -0.29531556256E+01  0.57997683774E+02 -0.33584657365E+02  0.67084884002E+02  0.00000000000E+00 0.  1.
         11    1    3    3    0    0  0.59127532752E+02 -0.82517190476E+01 -0.34115107740E+02  0.68760428828E+02  0.00000000000E+00 0. -1.
        -11    1    4    4    0    0 -0.11380385254E+03 -0.94739182720E+02 -0.16615493194E+03  0.22256300457E+03  0.00000000000E+00 0. -1.
         11    1    4    4    0    0 -0.94639519183E+02 -0.95035982248E+02 -0.32003379270E+03  0.34700159219E+03  0.00000000000E+00 0.  1.
          2    1    1    2  501    0  0.15226899460E+03  0.14002920024E+03 -0.75438176753E+03  0.78223134354E+03  0.00000000000E+00 0. -1.
<scales pt_clust_5="13000.00000" pt_clust_6="13000.00000" pt_clust_7="13000.00000" pt_clust_8="13000.00000" pt_clust_9="13000.00000"></scales>
<clustering>
<clus scale="   90.777">  5  6 -1 -1</clus>
<clus scale="   92.526">  7  8 -1 -1</clus>
<clus scale="  117.774">  1  5  2 -1</clus>
<clus scale="  225.652">  7  9 -1 -1</clus>
<clus scale="  536.970">  2  5  1 -1</clus>
</clustering>
</event>
<event>
 9    1  0.3312826E-006  0.2731111E+03  0.7546771E-02  0.1142414E+00
         21   -1    0    0  501  502  0.00000000000E+00  0.00000000000E+00  0.80634191097E+03  0.80634191097E+03  0.00000000000E+00 0.  1.
          1   -1    0    0  502    0 -0.00000000000E+00 -0.00000000000E+00 -0.53020656329E+02  0.53020656329E+02  0.00000000000E+00 0. -1.
         23    2    1    2    0    0  0.29552085101E+01 -0.13264679399E+02  0.52641645490E+02  0.10733759284E+03  0.92550154083E+02 0.  0.
         23    2    1    2    0    0  0.68680260346E+02  0.91820438882E+02  0.26401866591E+03  0.30260821119E+03  0.93369708022E+02 0.  0.
        -11    1    3    3    0    0  0.46545918032E+01  0.38928401120E+02  0.33982185326E+02  0.51883278213E+02  0.00000000000E+00 0.  1.
         11    1    3    3    0    0 -0.16993832931E+01 -0.52193080519E+02  0.18659460164E+02  0.55454314631E+02  0.00000000000E+00 0. -1.
        -13    1    4    4    0    0  0.60547340268E+01  0.26593921023E+02  0.43160623478E+01  0.27613852206E+02  0.00000000000E+00 0. -1.
         13    1    4    4    0    0  0.62625526319E+02  0.65226517860E+02  0.25970260356E+03  0.27499435898E+03  0.00000000000E+00 0.  1.
          1    1    1    2  501    0 -0.71635468856E+02 -0.78555759483E+02  0.43666094325E+03  0.44941676327E+03  0.00000000000E+00 0. -1.
<scales pt_clust_5="13000.00000" pt_clust_6="13000.00000" pt_clust_7="13000.00000" pt_clust_8="13000.00000" pt_clust_9="13000.00000"></scales>
<clustering>
<clus scale="   92.550">  5  6 -1 -1</clus>
<clus scale="   93.370">  7  8 -1 -1</clus>
<clus scale="   93.543">  2  5  1 -1</clus>
<clus scale="  108.289">  7  9 -1 -1</clus>
<clus scale="  273.111">  1  5  2 -1</clus>
</clustering>
</event>
<event>
 9    1  0.3312826E-006  0.2330279E+03  0.7546771E-02  0.1165441E+00
         -1   -1    0    0    0  501 -0.00000000000E+00  0.00000000000E+00  0.31136554587E+03  0.31136554587E+03  0.00000000000E+00 0.  1.
         21   -1    0    0  501  502  0.00000000000E+00 -0.00000000000E+00 -0.10177809532E+03  0.10177809532E+03  0.00000000000E+00 0.  1.
         23    2    1    2    0    0  0.16983053958E+02 -0.81956004672E+01 -0.15734186894E+02  0.88995742277E+02  0.85539964447E+02 0.  0.
         23    2    1    2    0    0 -0.56629151690E+02  0.40850777981E+02  0.24214172786E+03  0.27010079792E+03  0.97191449125E+02 0.  0.
        -11    1    4    4    0    0  0.23794417373E+02 -0.44804354780E+00  0.23237107200E+02  0.33261662499E+02  0.00000000000E+00 0. -1.
         11    1    4    4    0    0 -0.80423569063E+02  0.41298821529E+02  0.21890462066E+03  0.23683913542E+03  0.00000000000E+00 0.  1.
        -13    1    3    3    0    0  0.24051329885E+02 -0.44318512625E+02 -0.50944331034E+01  0.50680866993E+02  0.00000000000E+00 0. -1.
         13    1    3    3    0    0 -0.70682759269E+01  0.36122912158E+02 -0.10639753791E+02  0.38314875285E+02  0.00000000000E+00 0.  1.
         -1    1    1    2    0  502  0.39646097732E+02 -0.32655177514E+02 -0.16820090414E+02  0.54047100990E+02  0.00000000000E+00 0.  1.
<scales pt_clust_5="13000.00000" pt_clust_6="13000.00000" pt_clust_7="13000.00000" pt_clust_8="13000.00000" pt_clust_9="13000.00000"></scales>
<clustering>
<clus scale="   85.540">  7  8 -1 -1</clus>
<clus scale="   87.594">  1  7  2 -1</clus>
<clus scale="   97.191">  5  6 -1 -1</clus>
<clus scale="   52.605">  5  9 -1 -1</clus>
<clus scale="  233.028">  2  5  1 -1</clus>
</clustering>
</event>
<event>
 9    1  0.3312826E-006  0.3315515E+03  0.7546771E-02  0.1074958E+00
          2   -1    0    0  502    0 -0.00000000000E+00  0.00000000000E+00  0.16713543505E+04  0.16713543505E+04  0.00000000000E+00 0. -1.
         21   -1    0    0  501  502  0.00000000000E+00 -0.00000000000E+00 -0.58407255141E+02  0.58407255141E+02  0.00000000000E+00 0. -1.
         23    2    1    2    0    0 -0.27181210683E+03 -0.57630567062E+02  0.73672065965E+03  0.79290559431E+03  0.93481802817E+02 0.  0.
         23    2    1    2    0    0  0.13418067553E+03  0.86064255702E+02  0.39308219185E+03  0.43368680927E+03  0.90327898169E+02 0.  0.
        -13    1    4    4    0    0  0.12597076098E+03  0.54123903434E+02  0.23388157698E+03  0.27110629206E+03  0.00000000000E+00 0. -1.
         13    1    4    4    0    0  0.82099145511E+01  0.31940352267E+02  0.15920061488E+03  0.16258051721E+03  0.00000000000E+00 0.  1.
        -13    1    3    3    0    0 -0.90214051308E+02 -0.44893879290E+02  0.16953137819E+03  0.19721795973E+03  0.00000000000E+00 0.  1.
         13    1    3    3    0    0 -0.18159805552E+03 -0.12736687772E+02  0.56718928146E+03  0.59568763458E+03  0.00000000000E+00 0. -1.
          2    1    1    2  501    0  0.13763143130E+03 -0.28433688640E+02  0.48314424384E+03  0.50316920205E+03  0.00000000000E+00 0. -1.
<scales pt_clust_5="13000.00000" pt_clust_6="13000.00000" pt_clust_7="13000.00000" pt_clust_8="13000.00000" pt_clust_9="13000.00000"></scales>
<clustering>
<clus scale="   90.328">  5  6 -1 -1</clus>
<clus scale="   93.482">  7  8 -1 -1</clus>
<clus scale="  140.538">  5  9 -1 -1</clus>
<clus scale="  293.159">  1  7  2 -1</clus>
<clus scale="  331.552">  2  5  1 -1</clus>
</clustering>
</event>
<event>
 9    1  0.3312826E-006  0.3734633E+03  0.7546771E-02  0.1106066E+00
         -3   -1    0    0    0  501 -0.00000000000E+00  0.00000000000E+00  0.82951138644E+03  0.82951138644E+03  0.00000000000E+00 0.  1.
         21   -1    0    0  501  502  0.00000000000E+00 -0.00000000000E+00 -0.10934869807E+03  0.10934869807E+03  0.00000000000E+00 0.  1.
         23    2    1    2    0    0  0.31318822610E+02 -0.16945042972E+02  0.49419217604E+03  0.50235408224E+03  0.82859603875E+02 0.  0.
         23    2    1    2    0    0  0.12505347448E+03 -0.86595256764E+02  0.64604630595E+02  0.18909574227E+03  0.91903925253E+02 0.  0.
        -13    1    3    3    0    0  0.41955162136E+01  0.33029047272E+02  0.18905821486E+03  0.19196752049E+03  0.00000000000E+00 0.  1.
         13    1    3    3    0    0  0.27123306396E+02 -0.49974090244E+02  0.30513396118E+03  0.31038656175E+03  0.00000000000E+00 0. -1.
        -13    1    4    4    0    0  0.10236887573E+03 -0.92210589255E+02  0.20649811408E+02  0.13931473074E+03  0.00000000000E+00 0.  1.
         13    1    4    4    0    0  0.22684598744E+02  0.56153324907E+01  0.43954819187E+02  0.49781011530E+02  0.00000000000E+00 0. -1.
         -3    1    1    2    0  502 -0.15637229709E+03  0.10354029974E+03  0.16136588173E+03  0.24741026000E+03  0.00000000000E+00 0.  1.
<scales pt_clust_5="13000.00000" pt_clust_6="13000.00000" pt_clust_7="13000.00000" pt_clust_8="13000.00000" pt_clust_9="13000.00000"></scales>
<clustering>
<clus scale="   82.860">  5  6 -1 -1</clus>
<clus scale="   90.187">  1  5  2 -1</clus>
<clus scale="   91.904">  7  8 -1 -1</clus>
<clus scale="  165.670">  7  9 -1 -1</clus>
<clus scale="  373.463">  2  5  1 -1</clus>
</clustering>
</event>
<event>
 9    1  0.3312826E-006  0.4014034E+03  0.7546771E-02  0.1064718E+00
         21   -1    0    0  501  502  0.00000000000E+00  0.00000000000E+00  0.17024989319E+03  0.17024989319E+03  0.00000000000E+00 0. -1.
          1   -1    0    0  502    0 -0.00000000000E+00 -0.00000000000E+00 -0.56874707783E+03  0.56874707783E+03  0.00000000000E+00 0. -1.
         23    2    1    2    0    0 -0.14722232399E+03  0.13466081254E+03 -0.16995467821E+03  0.27709182824E+03  0.89929647595E+02 0.  0.
         23    2    1    2    0    0 -0.95279197330E+02 -0.39634804253E+02 -0.49378655010E+02  0.14577761195E+03  0.90353845644E+02 0.  0.
        -11    1    3    3    0    0 -0.34587297774E+02  0.87701240557E+02 -0.53436831703E+02  0.10836643274E+03  0.00000000000E+00 0.  1.
         11    1    3    3    0    0 -0.11263502622E+03  0.46959571985E+02 -0.11651784651E+03  0.16872539550E+03  0.00000000000E+00 0. -1.
        -11    1    4    4    0    0  0.12262697752E+02 -0.25803998352E+02 -0.13217985954E+02  0.31479123873E+02  0.00000000000E+00 0.  1.
         11    1    4    4    0    0 -0.10754189508E+03 -0.13830805900E+02 -0.36160669056E+02  0.11429848807E+03  0.00000000000E+00 0. -1.
          1    1    1    2  501    0  0.24250152132E+03 -0.95026008289E+02 -0.17916385142E+03  0.31612753083E+03  0.00000000000E+00 0. -1.
<scales pt_clust_5="13000.00000" pt_clust_6="13000.00000" pt_clust_7="13000.00000" pt_clust_8="13000.00000" pt_clust_9="13000.00000"></scales>
<clustering>
<clus scale="   89.930">  5  6 -1 -1</clus>
<clus scale="   90.354">  7  8 -1 -1</clus>
<clus scale="  218.850">  2  5  1 -1</clus>
<clus scale="  136.901">  7  9 -1 -1</clus>
<clus scale="  401.403">  1  5  2 -1</clus>
</clustering>
</event>
<event>
 9    1  0.3312826E-006  0.1824716E+03  0.7546771E-02  0.1178447E+00
         21   -1    0    0  501  502  0.00000000000E+00  0.00000000000E+00  0.46041364943E+03  0.46041364943E+03  0.00000000000E+00 0. -1.
          3   -1    0    0  502    0 -0.00000000000E+00 -0.00000000000E+00 -0.59480038719E+02  0.59480038719E+02  0.00000000000E+00 0. -1.
         23    2    1    2    0    0  0.78334156420E+02 -0.13478909015E+01  0.24426994000E+03  0.27939550563E+03  0.11070676631E+03 0.  0.
         23    2    1    2    0    0 -0.31818079614E+02  0.33395738047E+02  0.37808501714E+02  0.10890273767E+03  0.91118922072E+02 0.  0.
        -11    1    3    3    0    0 -0.16373762978E+01 -0.44643175083E+02  0.78705123944E+02  0.90499671920E+02  0.00000000000E+00 0.  1.
         11    1    3    3    0    0  0.79971532717E+02  0.43295284181E+02  0.16556481605E+03  0.18889583371E+03  0.00000000000E+00 0. -1.
        -13    1    4    4    0    0 -0.22489041542E+02 -0.30114161703E+02  0.96310116005E+01  0.38799176654E+02  0.00000000000E+00 0.  1.
         13    1    4    4    0    0 -0.93290380715E+01  0.63509899751E+02  0.28177490114E+02  0.70103561014E+02  0.00000000000E+00 0. -1.
          3    1    1    2  501    0 -0.46516076806E+02 -0.32047847146E+02  0.11885516900E+03  0.13159544486E+03  0.00000000000E+00 0. -1.
<scales pt_clust_5="13000.00000" pt_clust_6="13000.00000" pt_clust_7="13000.00000" pt_clust_8="13000.00000" pt_clust_9="13000.00000"></scales>
<clustering>
<clus scale="   91.119">  7  8 -1 -1</clus>
<clus scale="   56.487">  7  9 -1 -1</clus>
<clus scale="  110.707">  5  6 -1 -1</clus>
<clus scale="  135.625">  2  5  1 -1</clus>
<clus scale="  182.472">  1  5  2 -1</clus>
</clustering>
</event>
<event>
 9    1  0.3312826E-006  0.5367377E+03  0.7546771E-02  0.1064386E+00
         -1   -1    0    0    0  501 -0.00000000000E+00  0.00000000000E+00  0.40274546697E+03  0.40274546697E+03  0.00000000000E+00 0.  1.
         21   -1    0    0  501  502  0.00000000000E+00 -0.00000000000E+00 -0.24828851635E+03  0.24828851635E+03  0.00000000000E+00 0.  1.
         23    2    1    2    0    0  0.89762667014E+01  0.12809457486E+02  0.46963396736E+02  0.10363814775E+03  0.91053003633E+02 0.  0.
         23    2    1    2    0    0 -0.25800823348E+03 -0.39743023124E+02  0.10597781171E+03  0.29690704359E+03  0.93673579661E+02 0.  0.
        -11    1    4    4    0    0 -0.39736478370E+02  0.19681657435E+02  0.43738282604E+02  0.62284771155E+02  0.00000000000E+00 0. -1.
         11    1    4    4    0    0 -0.21827175511E+03 -0.59424680558E+02  0.62239529106E+02  0.23462227243E+03  0.00000000000E+00 0.  1.
        -11    1    3    3    0    0 -0.41166750432E+02  0.74422667727E+01  0.18636229741E+02  0.45797355107E+02  0.00000000000E+00 0.  1.
         11    1    3    3    0    0  0.50143017133E+02  0.53671907137E+01  0.28327166995E+02  0.57840792641E+02  0.00000000000E+00 0. -1.
         -1    1    1    2    0  502  0.24903196678E+03  0.26933565637E+02  0.15157421694E+01  0.25048879198E+03  0.00000000000E+00 0.  1.
<scales pt_clust_5="13000.00000" pt_clust_6="13000.00000" pt_clust_7="13000.00000" pt_clust_8="13000.00000" pt_clust_9="13000.00000"></scales>
<clustering>
<clus scale="   91.053">  7  8 -1 -1</clus>
<clus scale="   92.387">  1  7  2 -1</clus>
<clus scale="   93.674">  5  6 -1 -1</clus>
<clus scale="  254.489">  5  9 -1 -1</clus>
<clus scale="  536.738">  2  5  1 -1</clus>
</clustering>
</event>
<event>
 9    1  0.3312826E-006  0.2537935E+03  0.7546771E-02  0.1141411E+00
         21   -1    0    0  501  502  0.00000000000E+00  0.00000000000E+00  0.70262342369E+02  0.70262342369E+02  0.00000000000E+00 0. -1.
          1   -1    0    0  502    0 -0.00000000000E+00 -0.00000000000E+00 -0.61371273616E+03  0.61371273616E+03  0.00000000000E+00 0. -1.
         23    2    1    2    0    0 -0.33629774898E+02 -0.70983116719E+02 -0.33468750297E+03  0.35535206687E+03  0.89943327501E+02 0.  0.
         23    2    1    2    0    0  0.85450608167E+01  0.49488997394E+02 -0.25276290494E+03  0.27360264008E+03  0.91908321790E+02 0.  0.
        -11    1    3    3    0    0 -0.37794328157E+02  0.42920014602E+01 -0.17037868777E+03  0.17457299265E+03  0.00000000000E+00 0. -1.
         11    1    3    3    0    0  0.41645532594E+01 -0.75275118180E+02 -0.16430881521E+03  0.18077907422E+03  0.00000000000E+00 0.  1.
        -11    1    4    4    0    0  0.36944276545E+02 -0.10263765876E+02 -0.10168133406E+03  0.10867068674E+03  0.00000000000E+00 0.  1.
         11    1    4    4    0    0 -0.28399215728E+02  0.59752763270E+02 -0.15108157088E+03  0.16493195334E+03  0.00000000000E+00 0. -1.
          1    1    1    2  501    0  0.25084714081E+02  0.21494119325E+02  0.44000014126E+02  0.55020371584E+02  0.00000000000E+00 0. -1.
<scales pt_clust_5="13000.00000" pt_clust_6="13000.00000" pt_clust_7="13000.00000" pt_clust_8="13000.00000" pt_clust_9="13000.00000"></scales>
<clustering>
<clus scale="   89.943">  5  6 -1 -1</clus>
<clus scale="   91.908">  7  8 -1 -1</clus>
<clus scale="   33.034">  7  9 -1 -1</clus>
<clus scale="  119.413">  2  5  1 -1</clus>
<clus scale="  253.793">  1  5  2 -1</clus>
</clustering>
</event>
<event>
 9    1  0.3312826E-006  0.3692079E+03  0.7546771E-02  0.1090969E+00
         21   -1    0    0  501  502  0.00000000000E+00  0.00000000000E+00  0.37033678151E+03  0.37033678151E+03  0.00000000000E+00 0. -1.
          3   -1    0    0  502    0 -0.00000000000E+00 -0.00000000000E+00 -0.18567500255E+03  0.18567500255E+03  0.00000000000E+00 0. -1.
         23    2    1    2    0    0  0.33664667368E+02 -0.96498280983E+02  0.11600431013E+03  0.18047438788E+03  0.93106265369E+02 0.  0.
         23    2    1    2    0    0 -0.23459536351E+02 -0.25289323717E+02 -0.11725780874E+03  0.15304951833E+03  0.92113308541E+02 0.  0.
        -13    1    4    4    0    0 -0.11869172761E+01  0.24372599546E+02 -0.87868907186E+02  0.91194173231E+02  0.00000000000E+00 0.  1.
         13    1    4    4    0    0 -0.22272619075E+02 -0.49661923264E+02 -0.29388901556E+02  0.61855345100E+02  0.00000000000E+00 0. -1.
        -13    1    3    3    0    0 -0.16972451688E+02 -0.84050389057E+02  0.78391093637E+02  0.11617958331E+03  0.00000000000E+00 0. -1.
         13    1    3    3    0    0  0.50637119056E+02 -0.12447891926E+02  0.37613216491E+02  0.64294804568E+02  0.00000000000E+00 0.  1.
          3    1    1    2  501    0 -0.10205131017E+02  0.12178760470E+03  0.18591527758E+03  0.22248787786E+03  0.00000000000E+00 0. -1.
<scales pt_clust_5="13000.00000" pt_clust_6="13000.00000" pt_clust_7="13000.00000" pt_clust_8="13000.00000" pt_clust_9="13000.00000"></scales>
<clustering>
<clus scale="   92.113">  5  6 -1 -1</clus>
<clus scale="   93.106">  7  8 -1 -1</clus>
<clus scale="  122.214">  5  9 -1 -1</clus>
<clus scale="  138.253">  2  7  1 -1</clus>
<clus scale="  369.208">  1  5  2 -1</clus>
</clustering>
</event>
<event>
 9    1  0.3312826E-006  0.1511659E+03  0.7546771E-02  0.1219497E+00
          1   -1    0    0  502    0 -0.00000000000E+00  0.00000000000E+00  0.39800024629E+03  0.39800024629E+03  0.00000000000E+00 0. -1.
         21   -1    0    0  501  502  0.00000000000E+00 -0.00000000000E+00 -0.45765229729E+02  0.45765229729E+02  0.00000000000E+00 0.  1.
         23    2    1    2    0    0 -0.11472273078E+02 -0.32981366405E+02  0.59567192513E+02  0.11436362187E+03  0.91166901908E+02 0.  0.
         23    2    1    2    0    0  0.20217823357E+02 -0.13324297088E+02  0.13286089755E+03  0.16279167175E+03  0.90900016614E+02 0.  0.
        -11    1    4    4    0    0 -0.16708639105E+02  0.11148478965E+02 -0.26157124422E+01  0.20256089345E+02  0.00000000000E+00 0.  1.
         11    1    4    4    0    0  0.36926462462E+02 -0.24472776053E+02  0.13547660999E+03  0.14253558241E+03  0.00000000000E+00 0. -1.
        -13    1    3    3    0    0  0.28762824138E+02  0.16811905272E+02  0.16246197757E+02  0.37065875854E+02  0.00000000000E+00 0. -1.
         13    1    3    3    0    0 -0.40235097216E+02 -0.49793271678E+02  0.43320994756E+02  0.77297746015E+02  0.00000000000E+00 0.  1.
          1    1    1    2  501    0 -0.87455502792E+01  0.46305663493E+02  0.15980692650E+03  0.16661018240E+03  0.00000000000E+00 0. -1.
<scales pt_clust_5="13000.00000" pt_clust_6="13000.00000" pt_clust_7="13000.00000" pt_clust_8="13000.00000" pt_clust_9="13000.00000"></scales>
<clustering>
<clus scale="   90.900">  5  6 -1 -1</clus>
<clus scale="   47.124">  5  9 -1 -1</clus>
<clus scale="   91.167">  7  8 -1 -1</clus>
<clus scale="   97.626">  1  7  2 -1</clus>
<clus scale="  151.166">  2  5  1 -1</clus>
</clustering>
</event>
<event>
 9    1  0.3312826E-006  0.4646176E+03  0.7546771E-02  0.1077183E+00
         -1   -1    0    0    0  501 -0.00000000000E+00  0.00000000000E+00  0.66749439210E+02  0.66749439210E+02  0.00000000000E+00 0.  1.
         21   -1    0    0  501  502  0.00000000000E+00 -0.00000000000E+00 -0.20076222830E+04  0.20076222830E+04  0.00000000000E+00 0.  1.
         23    2    1    2    0    0 -0.13512096522E+02  0.32073541503E+02 -0.25538149997E+02  0.10348956414E+03  0.94056387154E+02 0.  0.
         23    2    1    2    0    0  0.21622674421E+03  0.54762599161E+02 -0.89192666855E+03  0.92398305603E+03  0.91970422319E+02 0.  0.
        -11    1    4    4    0    0  0.17031712597E+02 -0.21288365264E+02 -0.79589065217E+02  0.84129026096E+02  0.00000000000E+00 0. -1.
         11    1    4    4    0    0  0.19919503161E+03  0.76050964425E+02 -0.81233760333E+03  0.83985402993E+03  0.00000000000E+00 0.  1.
        -13    1    3    3    0    0  0.17325023255E+02  0.33776513918E+02  0.24145605889E+02  0.44989105426E+02  0.00000000000E+00 0.  1.
         13    1    3    3    0    0 -0.30837119778E+02 -0.17029724152E+01 -0.49683755886E+02  0.58500458717E+02  0.00000000000E+00 0. -1.
         -1    1    1    2    0  502 -0.20271464769E+03 -0.86836140664E+02 -0.10234080252E+04  0.10468991020E+04  0.00000000000E+00 0.  1.
<scales pt_clust_5="13000.00000" pt_clust_6="13000.00000" pt_clust_7="13000.00000" pt_clust_8="13000.00000" pt_clust_9="13000.00000"></scales>
<clustering>
<clus scale="   91.970">  5  6 -1 -1</clus>
<clus scale="   94.056">  7  8 -1 -1</clus>
<clus scale="  100.289">  1  7  2 -1</clus>
<clus scale="  220.933">  5  9 -1 -1</clus>
<clus scale="  464.618">  2  5  1 -1</clus>
</clustering>
</event>
<event>
 9    1  0.3312826E-006  0.2244892E+03  0.7546771E-02  0.1142580E+00
         21   -1    0    0  501  502  0.00000000000E+00  0.00000000000E+00  0.89340201369E+03  0.89340201369E+03  0.00000000000E+00 0.  1.
         -1   -1    0    0    0  501 -0.00000000000E+00 -0.00000000000E+00 -0.43665611882E+02  0.43665611882E+02  0.00000000000E+00 0.  1.
         23    2    1    2    0    0 -0.12485749969E+03  0.63862688254E+02  0.41906083080E+03  0.45139609587E+03  0.92079407446E+02 0.  0.
         23    2    1    2    0    0  0.58232403925E+02  0.60466749069E+01  0.12326432074E+03  0.16344816116E+03  0.89964623464E+02 0.  0.
        -11    1    3    3    0    0 -0.12322709581E+03  0.34694159417E+02  0.26155346111E+03  0.29120236067E+03  0.00000000000E+00 0.  1.
         11    1    3    3    0    0 -0.16304038790E+01  0.29168528838E+02  0.15750736969E+03  0.16019373520E+03  0.00000000000E+00 0. -1.
        -13    1    4    4    0    0  0.45102117467E+02 -0.36101863115E+02  0.94492091788E+02  0.11075333372E+03  0.00000000000E+00 0. -1.
         13    1    4    4    0    0  0.13130286458E+02  0.42148538022E+02  0.28772228956E+02  0.52694827440E+02  0.00000000000E+00 0.  1.
         -1    1    1    2    0  502  0.66625095766E+02 -0.69909363161E+02  0.30741125026E+03  0.32222336854E+03  0.00000000000E+00 0.  1.
<scales pt_clust_5="13000.00000" pt_clust_6="13000.00000" pt_clust_7="13000.00000" pt_clust_8="13000.00000" pt_clust_9="13000.00000"></scales>
<clustering>
<clus scale="   89.965">  7  8 -1 -1</clus>
<clus scale="   92.079">  5  6 -1 -1</clus>
<clus scale="   96.572">  7  9 -1 -1</clus>
<clus scale="  167.769">  2  5  1 -1</clus>
<clus scale="  224.489">  1  5  2 -1</clus>
</clustering>
</event>
<event>
 9    1  0.3312826E-006  0.1766773E+03  0.7546771E-02  0.1205218E+00
          1   -1    0    0  502    0 -0.00000000000E+00  0.00000000000E+00  0.25740000390E+02  0.25740000390E+02  0.00000000000E+00 0. -1.
         21   -1    0    0  501  502  0.00000000000E+00 -0.00000000000E+00 -0.66137171492E+03  0.66137171492E+03  0.00000000000E+00 0.  1.
         23    2    1    2    0    0  0.67429200962E+01 -0.24748598966E+02 -0.23762157842E+03  0.25164997994E+03  0.78776505081E+02 0.  0.
         23    2    1    2    0    0  0.14844381538E+02 -0.45143112221E+02 -0.23595868254E+03  0.25766540107E+03  0.91960332747E+02 0.  0.
        -11    1    4    4    0    0  0.19587211958E+02  0.92392699732E+01 -0.77237475490E+01  0.22993026293E+02  0.00000000000E+00 0. -1.
         11    1    4    4    0    0 -0.47428304203E+01 -0.54382382194E+02 -0.22823493499E+03  0.23467237478E+03  0.00000000000E+00 0.  1.
        -13    1    3    3    0    0 -0.31715955872E+02 -0.25623067118E+02 -0.15867289211E+03  0.16382774526E+03  0.00000000000E+00 0.  1.
         13    1    3    3    0    0  0.38458875969E+02  0.87446815250E+00 -0.78948686308E+02  0.87822234685E+02  0.00000000000E+00 0. -1.
          1    1    1    2  501    0 -0.21587301634E+02  0.69891711187E+02 -0.16205145358E+03  0.17779633430E+03  0.00000000000E+00 0. -1.
<scales pt_clust_5="13000.00000" pt_clust_6="13000.00000" pt_clust_7="13000.00000" pt_clust_8="13000.00000" pt_clust_9="13000.00000"></scales>
<clustering>
<clus scale="   78.777">  7  8 -1 -1</clus>
<clus scale="   82.847">  1  7  2 -1</clus>
<clus scale="   91.960">  5  6 -1 -1</clus>
<clus scale="   62.373">  5  9 -1 -1</clus>
<clus scale="  176.677">  2  5  1 -1</clus>
</clustering>
</event>
<event>
 9    1  0.3312826E-006  0.4096697E+03  0.7546771E-02  0.1089127E+00
         21   -1    0    0  501  502  0.00000000000E+00  0.00000000000E+00  0.53746143790E+03  0.53746143790E+03  0.00000000000E+00 0. -1.
          3   -1    0    0  502    0 -0.00000000000E+00 -0.00000000000E+00 -0.14250446829E+03  0.14250446829E+03  0.00000000000E+00 0. -1.
         23    2    1    2    0    0 -0.21181765177E+02 -0.46732731936E+02 -0.64150190404E+01  0.10644279525E+03  0.93039243235E+02 0.  0.
         23    2    1    2    0    0  0.18673433805E+03 -0.33122834056E+02  0.13088002390E+03  0.24649028567E+03  0.87527396443E+02 0.  0.
        -11    1    3    3    0    0 -0.56929770393E+02 -0.27898992145E+02 -0.14968761842E+02  0.65141510197E+02  0.00000000000E+00 0.  1.
         11    1    3    3    0    0  0.35748005215E+02 -0.18833739791E+02  0.85537428011E+01  0.41301285056E+02  0.00000000000E+00 0. -1.
        -11    1    4    4    0    0  0.43813425662E+02 -0.39518115268E+02  0.68528866751E+02  0.90429548714E+02  0.00000000000E+00 0.  1.
         11    1    4    4    0    0  0.14292091239E+03  0.63952812117E+01  0.62351157153E+02  0.15606073695E+03  0.00000000000E+00 0. -1.
          3    1    1    2  501    0 -0.16555257288E+03  0.79855565992E+02  0.27049196475E+03  0.32703282526E+03  0.00000000000E+00 0. -1.
<scales pt_clust_5="13000.00000" pt_clust_6="13000.00000" pt_clust_7="13000.00000" pt_clust_8="13000.00000" pt_clust_9="13000.00000"></scales>
<clustering>
<clus scale="   87.527">  7  8 -1 -1</clus>
<clus scale="   93.039">  5  6 -1 -1</clus>
<clus scale="  106.249">  2  5  1 -1</clus>
<clus scale="  184.176">  7  9 -1 -1</clus>
<clus scale="  409.670">  1  5  2 -1</clus>
</clustering>
</event>
<event>
 9    1  0.3312826E-006  0.1670425E+03  0.7546771E-02  0.1189538E+00
         21   -1    0    0  501  502  0.00000000000E+00  0.00000000000E+00  0.97469770859E+02  0.97469770859E+02  0.00000000000E+00 0. -1.
          1   -1    0    0  502    0 -0.00000000000E+00 -0.00000000000E+00 -0.52340901593E+03  0.52340901593E+03  0.00000000000E+00 0. -1.
         23    2    1    2    0    0  0.91276273951E+02  0.46747293243E+02  0.24765294389E+02  0.14021487845E+03  0.92359215680E+02 0.  0.
         23    2    1    2    0    0 -0.35913044315E+02 -0.53480938006E+02 -0.31477529771E+03  0.33373811778E+03  0.90264531968E+02 0.  0.
        -13    1    4    4    0    0  0.22033664340E+02  0.76443600268E+01 -0.39559637548E+02  0.45922581890E+02  0.00000000000E+00 0. -1.
         13    1    4    4    0    0 -0.57946708655E+02 -0.61125298033E+02 -0.27521566016E+03  0.28781553589E+03  0.00000000000E+00 0.  1.
        -13    1    3    3    0    0  0.59503386475E+02  0.70576735402E+02 -0.19776023425E+01  0.92334389547E+02  0.00000000000E+00 0.  1.
         13    1    3    3    0    0  0.31772887475E+02 -0.23829442159E+02  0.26742896731E+02  0.47880488904E+02  0.00000000000E+00 0. -1.
          1    1    1    2  501    0 -0.55363229636E+02  0.67336447626E+01 -0.13592924175E+03  0.14692579055E+03  0.00000000000E+00 0. -1.
<scales pt_clust_5="13000.00000" pt_clust_6="13000.00000" pt_clust_7="13000.00000" pt_clust_8="13000.00000" pt_clust_9="13000.00000"></scales>
<clustering>
<clus scale="   90.265">  5  6 -1 -1</clus>
<clus scale="   55.771">  5  9 -1 -1</clus>
<clus scale="   92.359">  7  8 -1 -1</clus>
<clus scale="  138.011">  2  7  1 -1</clus>
<clus scale="  167.043">  1  5  2 -1</clus>
</clustering>
</event>
<event>
 9    1  0.3312826E-006  0.1928923E+03  0.7546771E-02  0.1164995E+00
          1   -1    0    0  502    0 -0.00000000000E+00  0.00000000000E+00  0.89408340596E+03  0.89408340596E+03  0.00000000000E+00 0. -1.
         21   -1    0    0  501  502  0.00000000000E+00 -0.00000000000E+00 -0.40706389281E+02  0.40706389281E+02  0.00000000000E+00 0.  1.
         23    2    1    2    0    0 -0.20682710885E+02  0.12631370251E+03  0.20076764595E+03  0.25427056928E+03  0.89235356047E+02 0.  0.
         23    2    1    2    0    0 -0.22845588522E+02 -0.53832456644E+02  0.37065219305E+03  0.38615874306E+03  0.91190308291E+02 0.  0.
        -11    1    3    3    0    0  0.30951466746E+02  0.45307778405E+02  0.43658502352E+02  0.70120274567E+02  0.00000000000E+00 0. -1.
         11    1    3    3    0    0 -0.51634177630E+02  0.81005924103E+02  0.15710914360E+03  0.18415029471E+03  0.00000000000E+00 0.  1.
        -13    1    4    4    0    0 -0.10871198855E+01 -0.73416004877E+02  0.20081370921E+03  0.21381589606E+03  0.00000000000E+00 0. -1.
         13    1    4    4    0    0 -0.21758468637E+02  0.19583548233E+02  0.16983848384E+03  0.17234284700E+03  0.00000000000E+00 0.  1.
          1    1    1    2  501    0  0.43528299407E+02 -0.72481245863E+02  0.28195717768E+03  0.29436048291E+03  0.00000000000E+00 0. -1.
<scales pt_clust_5="13000.00000" pt_clust_6="13000.00000" pt_clust_7="13000.00000" pt_clust_8="13000.00000" pt_clust_9="13000.00000"></scales>
<clustering>
<clus scale="   89.235">  5  6 -1 -1</clus>
<clus scale="   91.190">  7  8 -1 -1</clus>
<clus scale="   84.547">  7  9 -1 -1</clus>
<clus scale="  156.032">  1  5  2 -1</clus>
<clus scale="  192.892">  2  5  1 -1</clus>
</clustering>
</event>
<event>
 9    1  0.3312826E-006  0.1554378E+03  0.7546771E-02  0.1210493E+00
         21   -1    0    0  501  502  0.00000000000E+00  0.00000000000E+00  0.74708657948E+02  0.74708657948E+02  0.00000000000E+00 0.  1.
          2   -1    0    0  502    0 -0.00000000000E+00 -0.00000000000E+00 -0.31376487952E+03  0.31376487952E+03  0.00000000000E+00 0. -1.
         23    2    1    2    0    0  0.43850016975E+02  0.48745588211E+02 -0.20093156107E+03  0.22842855718E+03  0.86643852304E+02 0.  0.
         23    2    1    2    0    0 -0.24967419617E+02 -0.30474049254E+02 -0.64738046731E+02  0.12264613076E+03  0.96431421101E+02 0.  0.
        -11    1    4    4    0    0 -0.23938738449E+02 -0.55229271486E+02 -0.74706375139E+02  0.95939450248E+02  0.00000000000E+00 0. -1.
         11    1    4    4    0    0 -0.10286811686E+01  0.24755222232E+02  0.99683284084E+01  0.26706680512E+02  0.00000000000E+00 0.  1.
        -13    1    3    3    0    0  0.54393078294E+02  0.26804196429E+01 -0.66622645242E+02  0.86048640168E+02  0.00000000000E+00 0. -1.
         13    1    3    3    0    0 -0.10543061318E+02  0.46065168568E+02 -0.13430891583E+03  0.14237991701E+03  0.00000000000E+00 0.  1.
          2    1    1    2  501    0 -0.18882597358E+02 -0.18271538956E+02  0.26613386235E+02  0.37398849524E+02  0.00000000000E+00 0. -1.
<scales pt_clust_5="13000.00000" pt_clust_6="13000.00000" pt_clust_7="13000.00000" pt_clust_8="13000.00000" pt_clust_9="13000.00000"></scales>
<clustering>
<clus scale="   86.644">  7  8 -1 -1</clus>
<clus scale="   96.431">  5  6 -1 -1</clus>
<clus scale="   26.276">  5  9 -1 -1</clus>
<clus scale="  108.656">  2  7  1 -1</clus>
<clus scale="  155.438">  1  5  2 -1</clus>
</clustering>
</event>
<event>
 9    1  0.3312826E-006  0.2672519E+03  0.7546771E-02  0.1139512E+00
         21   -1    0    0  501  502  0.00000000000E+00  0.00000000000E+00  0.36964366178E+03  0.36964366178E+03  0.00000000000E+00 0. -1.
          1   -1    0    0  502    0 -0.00000000000E+00 -0.00000000000E+00 -0.10106725413E+03  0.10106725413E+03  0.00000000000E+00 0. -1.
         23    2    1    2    0    0 -0.55386819853E+02 -0.23356627239E+02  0.26883990785E+02  0.11037942670E+03  0.88586889709E+02 0.  0.
         23    2    1    2    0    0  0.48581289952E+02  0.67946863147E+02  0.87961692890E+01  0.12310740420E+03  0.90006346606E+02 0.  0.
        -11    1    3    3    0    0 -0.29441832939E+02 -0.55687872601E+02  0.27943823873E+02  0.68911667911E+02  0.00000000000E+00 0.  1.
         11    1    3    3    0    0 -0.25944986914E+02  0.32331245362E+02 -0.10598330878E+01  0.41467758787E+02  0.00000000000E+00 0. -1.
        -13    1    4    4    0    0  0.59317499320E+02  0.93591080940E+01  0.18328590592E+02  0.62786112023E+02  0.00000000000E+00 0.  1.
         13    1    4    4    0    0 -0.10736209368E+02  0.58587755053E+02 -0.95324213034E+01  0.60321292174E+02  0.00000000000E+00 0. -1.
          1    1    1    2  501    0  0.68055299016E+01 -0.44590235908E+02  0.23289624757E+03  0.23722408501E+03  0.00000000000E+00 0. -1.
<scales pt_clust_5="13000.00000" pt_clust_6="13000.00000" pt_clust_7="13000.00000" pt_clust_8="13000.00000" pt_clust_9="13000.00000"></scales>
<clustering>
<clus scale="   88.587">  5  6 -1 -1</clus>
<clus scale="   90.006">  7  8 -1 -1</clus>
<clus scale="   45.107">  7  9 -1 -1</clus>
<clus scale="  107.055">  2  5  1 -1</clus>
<clus scale="  267.252">  1  5  2 -1</clus>
</clustering>
</event>
<event>
 9    1  0.3312826E-006  0.1887551E+03  0.7546771E-02  0.1180963E+00
          1   -1    0    0  502    0 -0.00000000000E+00  0.00000000000E+00  0.17620430306E+03  0.17620430306E+03  0.00000000000E+00 0. -1.
         21   -1    0    0  501  502  0.00000000000E+00 -0.00000000000E+00 -0.19681481952E+03  0.19681481952E+03  0.00000000000E+00 0. -1.
         23    2    1    2    0    0  0.11482000971E+02  0.70103030327E+02  0.96634963088E+02  0.15081432438E+03  0.91435076098E+02 0.  0.
         23    2    1    2    0    0 -0.26312802914E+02  0.15289606786E+02 -0.22613880080E+02  0.93881009369E+02  0.85884344760E+02 0.  0.
        -11    1    4    4    0    0  0.24146308908E+02  0.48310054840E+01  0.16105603339E+02  0.29424026013E+02  0.00000000000E+00 0. -1.
         11    1    4    4    0    0 -0.50459111822E+02  0.10458601302E+02 -0.38719483419E+02  0.64456983356E+02  0.00000000000E+00 0.  1.
        -11    1    3    3    0    0  0.45892662306E+02  0.65149152421E+02  0.77357812893E+02  0.11106205351E+03  0.00000000000E+00 0. -1.
         11    1    3    3    0    0 -0.34410661335E+02  0.49538779063E+01  0.19277150195E+02  0.39752270872E+02  0.00000000000E+00 0.  1.
          1    1    1    2  501    0  0.14830801944E+02 -0.85392637113E+02 -0.94631599473E+02  0.12832378882E+03  0.00000000000E+00 0. -1.
<scales pt_clust_5="13000.00000" pt_clust_6="13000.00000" pt_clust_7="13000.00000" pt_clust_8="13000.00000" pt_clust_9="13000.00000"></scales>
<clustering>
<clus scale="   85.884">  5  6 -1 -1</clus>
<clus scale="   86.671">  5  9 -1 -1</clus>
<clus scale="   91.435">  7  8 -1 -1</clus>
<clus scale="  115.787">  1  7  2 -1</clus>
<clus scale="  188.755">  2  5  1 -1</clus>
</clustering>
</event>
<event>
 9    1  0.3312826E-006  0.2164379E+03  0.7546771E-02  0.1163966E+00
         21   -1    0    0  501  502  0.00000000000E+00  0.00000000000E+00  0.59118373145E+03  0.59118373145E+03  0.00000000000E+00 0. -1.
          1   -1    0    0  502    0 -0.00000000000E+00 -0.00000000000E+00 -0.48288514735E+02  0.48288514735E+02  0.00000000000E+00 0. -1.
         23    2    1    2    0    0 -0.45757938770E+02  0.51548731621E+02  0.25785932279E+03  0.28157446489E+03  0.89675460621E+02 0.  0.
         23    2    1    2    0    0 -0.98833734783E+01  0.11986959898E+02  0.48046886261E+02  0.10630976592E+03  0.93551562102E+02 0.  0.
        -11    1    3    3    0    0 -0.66688214649E+02  0.33828823838E+02  0.12293515064E+03  0.14389148188E+03  0.00000000000E+00 0. -1.
         11    1    3    3    0    0  0.20930275880E+02  0.17719907783E+02  0.13492417215E+03  0.13768298301E+03  0.00000000000E+00 0.  1.
        -13    1    4    4    0    0 -0.16271540482E+02  0.44057522425E+02  0.55566013104E+02  0.72755825362E+02  0.00000000000E+00 0. -1.
         13    1    4    4    0    0  0.63881670036E+01 -0.32070562527E+02 -0.75191268433E+01  0.33553940558E+02  0.00000000000E+00 0.  1.
          1    1    1    2  501    0  0.55641312248E+02 -0.63535691518E+02  0.23698900767E+03  0.25158801538E+03  0.00000000000E+00 0. -1.
<scales pt_clust_5="13000.00000" pt_clust_6="13000.00000" pt_clust_7="13000.00000" pt_clust_8="13000.00000" pt_clust_9="13000.00000"></scales>
<clustering>
<clus scale="   89.675">  5  6 -1 -1</clus>
<clus scale="   93.552">  7  8 -1 -1</clus>
<clus scale="   84.456">  7  9 -1 -1</clus>
<clus scale="  113.105">  2  5  1 -1</clus>
<clus scale="  216.438">  1  5  2 -1</clus>
</clustering>
</event>
<event>
 9    1  0.3312826E-006  0.2621306E+03  0.7546771E-02  0.1143690E+00
          3   -1    0    0  502    0 -0.00000000000E+00  0.00000000000E+00  0.14182170960E+03  0.14182170960E+03  0.00000000000E+00 0. -1.
         21   -1    0    0  501  502  0.00000000000E+00 -0.00000000000E+00 -0.24315385796E+03  0.24315385796E+03  0.00000000000E+00 0. -1.
         23    2    1    2    0    0  0.37813871646E+02  0.38806271441E+02 -0.62069592868E+02  0.11992088847E+03  0.87135351842E+02 0.  0.
         23    2    1    2    0    0  0.32954434378E+02 -0.18104782750E+02  0.78423963686E+02  0.12617767751E+03  0.91415044261E+02 0.  0.
        -11    1    3    3    0    0  0.31141968488E+02  0.65392118468E+02 -0.31851407389E+02  0.79123090888E+02  0.00000000000E+00 0. -1.
         11    1    3    3    0    0  0.66719031578E+01 -0.26585847027E+02 -0.30218185478E+02  0.40797797581E+02  0.00000000000E+00 0.  1.
        -13    1    4    4    0    0  0.59740933737E+02 -0.10321859572E+02  0.24350763038E+02  0.65333602451E+02  0.00000000000E+00 0. -1.
         13    1    4    4    0    0 -0.26786499358E+02 -0.77829231781E+01  0.54073200648E+02  0.60844075056E+02  0.00000000000E+00 0.  1.
          3    1    1    2  501    0 -0.70768306025E+02 -0.20701488691E+02 -0.11768651918E+03  0.13887700158E+03  0.00000000000E+00 0. -1.
<scales pt_clust_5="13000.00000" pt_clust_6="13000.00000" pt_clust_7="13000.00000" pt_clust_8="13000.00000" pt_clust_9="13000.00000"></scales>
<clustering>
<clus scale="   87.135">  5  6 -1 -1</clus>
<clus scale="   91.415">  7  8 -1 -1</clus>
<clus scale="   73.734">  7  9 -1 -1</clus>
<clus scale="  102.608">  1  5  2 -1</clus>
<clus scale="  262.131">  2  5  1 -1</clus>
</clustering>
</event>
<event>
 9    1  0.3312826E-006  0.2254231E+03  0.7546771E-02  0.1162877E+00
         21   -1    0    0  501  502  0.00000000000E+00  0.00000000000E+00  0.62527821758E+02  0.62527821758E+02  0.00000000000E+00 0. -1.
          1   -1    0    0  502    0 -0.00000000000E+00 -0.00000000000E+00 -0.66008745302E+03  0.66008745302E+03  0.00000000000E+00 0. -1.
         23    2    1    2    0    0 -0.87773937498E+01  0.69564084295E+01 -0.22714487654E+02  0.10515070502E+03  0.10205532106E+03 0.  0.
         23    2    1    2    0    0 -0.80114503173E+02 -0.30901879615E+02 -0.24776957268E+03  0.27767995559E+03  0.91340772988E+02 0.  0.
        -11    1    4    4    0    0 -0.12047021621E+02  0.18267487521E+02 -0.74542073875E+01  0.23117029178E+02  0.00000000000E+00 0.  1.
         11    1    4    4    0    0 -0.68067481552E+02 -0.49169367136E+02 -0.24031536529E+03  0.25456292641E+03  0.00000000000E+00 0. -1.
        -13    1    3    3    0    0 -0.18954565059E+02 -0.39559222375E+02  0.12861304164E+02  0.45712369839E+02  0.00000000000E+00 0.  1.
         13    1    3    3    0    0  0.10177171309E+02  0.46515630805E+02 -0.35575791819E+02  0.59438335176E+02  0.00000000000E+00 0. -1.
          1    1    1    2  501    0  0.88891896923E+02  0.23945471185E+02 -0.32707557093E+03  0.33978461418E+03  0.00000000000E+00 0. -1.
<scales pt_clust_5="13000.00000" pt_clust_6="13000.00000" pt_clust_7="13000.00000" pt_clust_8="13000.00000" pt_clust_9="13000.00000"></scales>
<clustering>
<clus scale="   91.341">  5  6 -1 -1</clus>
<clus scale="   92.061">  5  9 -1 -1</clus>
<clus scale="  102.055">  7  8 -1 -1</clus>
<clus scale="  102.668">  2  7  1 -1</clus>
<clus scale="  225.423">  1  5  2 -1</clus>
</clustering>
</event>
<event>
 9    1  0.3312826E-006  0.9724018E+03  0.7546771E-02  0.9847945E-01
         21   -1    0    0  501  502  0.00000000000E+00  0.00000000000E+00  0.48196298722E+03  0.48196298722E+03  0.00000000000E+00 0.  1.
         -3   -1    0    0    0  501 -0.00000000000E+00 -0.00000000000E+00 -0.80780053855E+03  0.80780053855E+03  0.00000000000E+00 0.  1.
         23    2    1    2    0    0 -0.98596327622E+02 -0.10356635870E+03 -0.26598648837E+03  0.31552153347E+03  0.91421002025E+02 0.  0.
         23    2    1    2    0    0  0.23708110298E+03 -0.20604597988E+02 -0.46408246740E+03  0.52927065859E+03  0.90127102724E+02 0.  0.
        -13    1    3    3    0    0 -0.67118578118E+02 -0.75640305932E+01 -0.88988318407E+02  0.11171857008E+03  0.00000000000E+00 0.  1.
         13    1    3    3    0    0 -0.31477749504E+02 -0.96002328112E+02 -0.17699816996E+03  0.20380296339E+03  0.00000000000E+00 0. -1.
        -13    1    4    4    0    0  0.15999398055E+03  0.18341113474E+02 -0.35742871337E+03  0.39203284990E+03  0.00000000000E+00 0.  1.
         13    1    4    4    0    0  0.77087122430E+02 -0.38945711462E+02 -0.10665375402E+03  0.13723780868E+03  0.00000000000E+00 0. -1.
         -3    1    1    2    0  502 -0.13848477536E+03  0.12417095669E+03  0.40423140444E+03  0.44497133372E+03  0.00000000000E+00 0.  1.
<scales pt_clust_5="13000.00000" pt_clust_6="13000.00000" pt_clust_7="13000.00000" pt_clust_8="13000.00000" pt_clust_9="13000.00000"></scales>
<clustering>
<clus scale="   90.127">  7  8 -1 -1</clus>
<clus scale="   91.421">  5  6 -1 -1</clus>
<clus scale="  169.720">  2  5  1 -1</clus>
<clus scale="  186.255">  7  9 -1 -1</clus>
<clus scale="  972.402">  1  5  2 -1</clus>
</clustering>
</event>
<event>
 9    1  0.3312826E-006  0.6416707E+03  0.7546771E-02  0.1025760E+00
         21   -1    0    0  501  502  0.00000000000E+00  0.00000000000E+00  0.19562595011E+03  0.19562595011E+03  0.00000000000E+00 0.  1.
          1   -1    0    0  502    0 -0.00000000000E+00 -0.00000000000E+00 -0.94551887491E+03  0.94551887491E+03  0.00000000000E+00 0. -1.
         23    2    1    2    0    0  0.79212620348E+02 -0.11110006187E+03 -0.34545144579E+03  0.38265011456E+03  0.92013834843E+02 0.  0.
         23    2    1    2    0    0  0.91824096841E+02 -0.17229937354E+03  0.25309270419E+02  0.21604240358E+03  0.88966409910E+02 0.  0.
        -11    1    4    4    0    0  0.85072941197E+01 -0.54959012035E+02  0.44010636759E+02  0.70921105498E+02  0.00000000000E+00 0.  1.
         11    1    4    4    0    0  0.83316802721E+02 -0.11734036150E+03 -0.18701366341E+02  0.14512129808E+03  0.00000000000E+00 0. -1.
        -13    1    3    3    0    0 -0.16895047875E+02 -0.42894452438E+02 -0.11265532215E+03  0.12172345008E+03  0.00000000000E+00 0. -1.
         13    1    3    3    0    0  0.96107668223E+02 -0.68205609432E+02 -0.23279612365E+03  0.26092666448E+03  0.00000000000E+00 0.  1.
          1    1    1    2  501    0 -0.17103671719E+03  0.28339943541E+03 -0.42975074942E+03  0.54245230688E+03  0.00000000000E+00 0. -1.
<scales pt_clust_5="13000.00000" pt_clust_6="13000.00000" pt_clust_7="13000.00000" pt_clust_8="13000.00000" pt_clust_9="13000.00000"></scales>
<clustering>
<clus scale="   88.966">  5  6 -1 -1</clus>
<clus scale="   92.014">  7  8 -1 -1</clus>
<clus scale="  164.573">  2  7  1 -1</clus>
<clus scale="  217.450">  5  9 -1 -1</clus>
<clus scale="  641.671">  1  5  2 -1</clus>
</clustering>
</event>
<event>
 9    1  0.3312826E-006  0.1701470E+03  0.7546771E-02  0.1198966E+00
         -1   -1    0    0    0  501 -0.00000000000E+00  0.00000000000E+00  0.37488477388E+03  0.37488477388E+03  0.00000000000E+00 0.  1.
         21   -1    0    0  501  502  0.00000000000E+00 -0.00000000000E+00 -0.52365209532E+02  0.52365209532E+02  0.00000000000E+00 0.  1.
         23    2    1    2    0    0  0.10858866214E+02  0.51290623252E+02  0.90490539934E+02  0.13952184273E+03  0.92353471897E+02 0.  0.
         23    2    1    2    0    0  0.42207424611E+02 -0.15682447035E+02  0.17616251946E+03  0.20284563476E+03  0.89920589655E+02 0.  0.
        -11    1    4    4    0    0  0.66521270157E+00 -0.47401662698E+02  0.97312556898E+02  0.10824552584E+03  0.00000000000E+00 0. -1.
         11    1    4    4    0    0  0.41542211910E+02  0.31719215664E+02  0.78849962560E+02  0.94600108924E+02  0.00000000000E+00 0.  1.
        -13    1    3    3    0    0  0.27500198790E+02  0.68852882342E+02  0.88195262326E+02  0.11521885539E+03  0.00000000000E+00 0.  1.
         13    1    3    3    0    0 -0.16641332577E+02 -0.17562259090E+02  0.22952776076E+01  0.24302987338E+02  0.00000000000E+00 0. -1.
         -1    1    1    2    0  502 -0.53066290825E+02 -0.35608176217E+02  0.55866504957E+02  0.84882505921E+02  0.00000000000E+00 0.  1.
<scales pt_clust_5="13000.00000" pt_clust_6="13000.00000" pt_clust_7="13000.00000" pt_clust_8="13000.00000" pt_clust_9="13000.00000"></scales>
<clustering>
<clus scale="   89.921">  5  6 -1 -1</clus>
<clus scale="   63.906">  5  9 -1 -1</clus>
<clus scale="   92.353">  7  8 -1 -1</clus>
<clus scale="  106.197">  1  7  2 -1</clus>
<clus scale="  170.147">  2  5  1 -1</clus>
</clustering>
</event>
<event>
 9    1  0.3312826E-006  0.2903090E+03  0.7546771E-02  0.1134029E+00
         21   -1    0    0  501  502  0.00000000000E+00  0.00000000000E+00  0.75411684758E+02  0.75411684758E+02  0.00000000000E+00 0. -1.
          1   -1    0    0  502    0 -0.00000000000E+00 -0.00000000000E+00 -0.54106779832E+03  0.54106779832E+03  0.00000000000E+00 0. -1.
         23    2    1    2    0    0  0.14266099823E+02  0.19001492042E+02 -0.20588669599E+03  0.22691629016E+03  0.92396389818E+02 0.  0.
         23    2    1    2    0    0  0.35156334904E+02  0.37038309141E+02 -0.29025125811E+03  0.30886511999E+03  0.92434113206E+02 0.  0.
        -11    1    3    3    0    0  0.53054159911E+02  0.41621981103E+01 -0.12864793792E+03  0.13922054341E+03  0.00000000000E+00 0. -1.
         11    1    3    3    0    0 -0.38788060088E+02  0.14839293931E+02 -0.77238758068E+02  0.87695746748E+02  0.00000000000E+00 0.  1.
        -13    1    4    4    0    0 -0.87213170485E+01  0.55230418886E+02 -0.18762621867E+03  0.19578063866E+03  0.00000000000E+00 0. -1.
         13    1    4    4    0    0  0.43877651952E+02 -0.18192109745E+02 -0.10262503944E+03  0.11308448133E+03  0.00000000000E+00 0.  1.
          1    1    1    2  501    0 -0.49422434727E+02 -0.56039801183E+02  0.30481840540E+02  0.80698072924E+02  0.00000000000E+00 0. -1.
<scales pt_clust_5="13000.00000" pt_clust_6="13000.00000" pt_clust_7="13000.00000" pt_clust_8="13000.00000" pt_clust_9="13000.00000"></scales>
<clustering>
<clus scale="   92.396">  5  6 -1 -1</clus>
<clus scale="   92.434">  7  8 -1 -1</clus>
<clus scale="   74.720">  7  9 -1 -1</clus>
<clus scale="   95.403">  2  5  1 -1</clus>
<clus scale="  290.309">  1  5  2 -1</clus>
</clustering>
</event>
<event>
 9    1  0.3312826E-006  0.2683702E+03  0.7546771E-02  0.1138922E+00
          2   -1    0    0  502    0 -0.00000000000E+00  0.00000000000E+00  0.40221622796E+03  0.40221622796E+03  0.00000000000E+00 0. -1.
         21   -1    0    0  501  502  0.00000000000E+00 -0.00000000000E+00 -0.30144529644E+03  0.30144529644E+03  0.00000000000E+00 0. -1.
         23    2    1    2    0    0 -0.14605016246E+02  0.53848740369E+02  0.33232776473E+03  0.34920263286E+03  0.91584617975E+02 0.  0.
         23    2    1    2    0    0  0.11249418561E+03 -0.58334445816E+02 -0.10096926087E+03  0.19119369291E+03  0.10150067587E+03 0.  0.
        -11    1    3    3    0    0  0.32987078802E+02  0.16453459292E+01  0.67976381166E+02  0.75575412189E+02  0.00000000000E+00 0.  1.
         11    1    3    3    0    0 -0.47592095047E+02  0.52203394440E+02  0.26435138357E+03  0.27362722068E+03  0.00000000000E+00 0. -1.
        -13    1    4    4    0    0  0.11906841572E+03 -0.77266979060E+02 -0.92590994072E+02  0.16947143080E+03  0.00000000000E+00 0. -1.
         13    1    4    4    0    0 -0.65742301071E+01  0.18932533244E+02 -0.83782667993E+01  0.21722262108E+02  0.00000000000E+00 0.  1.
          2    1    1    2  501    0 -0.97889169364E+02  0.44857054475E+01 -0.13058757234E+03  0.16326519863E+03  0.00000000000E+00 0. -1.
<scales pt_clust_5="13000.00000" pt_clust_6="13000.00000" pt_clust_7="13000.00000" pt_clust_8="13000.00000" pt_clust_9="13000.00000"></scales>
<clustering>
<clus scale="   91.585">  5  6 -1 -1</clus>
<clus scale="  101.501">  7  8 -1 -1</clus>
<clus scale="   97.992">  7  9 -1 -1</clus>
<clus scale="  107.241">  1  5  2 -1</clus>
<clus scale="  268.370">  2  5  1 -1</clus>
</clustering>
</event>
<event>
 9    1  0.3312826E-006  0.3523015E+03  0.7546771E-02  0.1088238E+00
         21   -1    0    0  501  502  0.00000000000E+00  0.00000000000E+00  0.44409929556E+03  0.44409929556E+03  0.00000000000E+00 0.  1.
         -1   -1    0    0    0  501 -0.00000000000E+00 -0.00000000000E+00 -0.20258052944E+03  0.20258052944E+03  0.00000000000E+00 0.  1.
         23    2    1    2    0    0  0.13188111917E+03  0.59189955741E+02 -0.61725150437E+02  0.18184305965E+03  0.91437539840E+02 0.  0.
         23    2    1    2    0    0  0.26990644098E+02  0.16209967743E+02 -0.18961922707E+02  0.97764581060E+02  0.90593050915E+02 0.  0.
        -11    1    4    4    0    0  0.30794512655E+02 -0.31301257400E+02 -0.23645720050E+02  0.49871743515E+02  0.00000000000E+00 0.  1.
         11    1    4    4    0    0 -0.38038685569E+01  0.47511225143E+02  0.46837973436E+01  0.47892837546E+02  0.00000000000E+00 0. -1.
        -11    1    3    3    0    0  0.60772248664E+02  0.23419187713E+02  0.19631919325E+02  0.68023060922E+02  0.00000000000E+00 0.  1.
         11    1    3    3    0    0  0.71108870501E+02  0.35770768028E+02 -0.81357069762E+02  0.11381999872E+03  0.00000000000E+00 0. -1.
         -1    1    1    2    0  502 -0.15887176326E+03 -0.75399923484E+02  0.32220583927E+03  0.36707218430E+03  0.00000000000E+00 0.  1.
<scales pt_clust_5="13000.00000" pt_clust_6="13000.00000" pt_clust_7="13000.00000" pt_clust_8="13000.00000" pt_clust_9="13000.00000"></scales>
<clustering>
<clus scale="   90.593">  5  6 -1 -1</clus>
<clus scale="   91.438">  7  8 -1 -1</clus>
<clus scale="  171.046">  2  7  1 -1</clus>
<clus scale="  135.732">  5  9 -1 -1</clus>
<clus scale="  352.301">  1  5  2 -1</clus>
</clustering>
</event>
<event>
 9    1  0.3312826E-006  0.1622745E+03  0.7546771E-02  0.1207794E+00
          2   -1    0    0  502    0 -0.00000000000E+00  0.00000000000E+00  0.22036638368E+03  0.22036638368E+03  0.00000000000E+00 0. -1.
         21   -1    0    0  501  502  0.00000000000E+00 -0.00000000000E+00 -0.30854966588E+03  0.30854966588E+03  0.00000000000E+00 0. -1.
         23    2    1    2    0    0  0.26645962763E+02  0.23686320526E+02  0.18518182603E+03  0.21101434125E+03  0.94676789195E+02 0.  0.
         23    2    1    2    0    0 -0.46894912092E+02 -0.26367294058E+02 -0.10857896627E+03  0.15185448566E+03  0.91520631134E+02 0.  0.
        -13    1    4    4    0    0 -0.59810639888E+02 -0.45274270324E+02 -0.10443744038E+03  0.12858557909E+03  0.00000000000E+00 0.  1.
         13    1    4    4    0    0  0.12915727796E+02  0.18906976267E+02 -0.41415258837E+01  0.23268906564E+02  0.00000000000E+00 0. -1.
        -13    1    3    3    0    0  0.42575756481E+02  0.48533017791E+02  0.15882020089E+03  0.17144096671E+03  0.00000000000E+00 0. -1.
         13    1    3    3    0    0 -0.15929793718E+02 -0.24846697265E+02  0.26361625138E+02  0.39573374544E+02  0.00000000000E+00 0.  1.
          2    1    1    2  501    0  0.20248949329E+02  0.26809735314E+01 -0.16478614196E+03  0.16604722265E+03  0.00000000000E+00 0. -1.
<scales pt_clust_5="13000.00000" pt_clust_6="13000.00000" pt_clust_7="13000.00000" pt_clust_8="13000.00000" pt_clust_9="13000.00000"></scales>
<clustering>
<clus scale="   91.521">  5  6 -1 -1</clus>
<clus scale="   20.426">  5  9 -1 -1</clus>
<clus scale="   94.677">  7  8 -1 -1</clus>
<clus scale="  101.167">  1  7  2 -1</clus>
<clus scale="  162.275">  2  5  1 -1</clus>
</clustering>
</event>
<event>
 9    1  0.3312826E-006  0.4760321E+03  0.7546771E-02  0.1039283E+00
         -1   -1    0    0    0  501 -0.00000000000E+00  0.00000000000E+00  0.75633552937E+03  0.75633552937E+03  0.00000000000E+00 0.  1.
         21   -1    0    0  501  502  0.00000000000E+00 -0.00000000000E+00 -0.19641497586E+03  0.19641497586E+03  0.00000000000E+00 0.  1.
         23    2    1    2    0    0 -0.24317342991E+03 -0.67664709327E+02  0.32233520013E+03  0.42072293501E+03  0.96932847330E+02 0.  0.
         23    2    1    2    0    0  0.42651625147E+02  0.12772854204E+03  0.27531994981E+03  0.31932929108E+03  0.89645857662E+02 0.  0.
        -11    1    4    4    0    0  0.52354898512E+02  0.81410181711E+02  0.10610191775E+03  0.14361848779E+03  0.00000000000E+00 0. -1.
         11    1    4    4    0    0 -0.97032733644E+01  0.46318360326E+02  0.16921803206E+03  0.17571080329E+03  0.00000000000E+00 0.  1.
        -11    1    3    3    0    0 -0.17780033569E+03 -0.82685706616E+02  0.27845384180E+03  0.34056780156E+03  0.00000000000E+00 0.  1.
         11    1    3    3    0    0 -0.65373094221E+02  0.15020997289E+02  0.43881358335E+02  0.80155133441E+02  0.00000000000E+00 0. -1.
         -1    1    1    2    0  502  0.20052180476E+03 -0.60063832710E+02 -0.37734596433E+02  0.21269827915E+03  0.00000000000E+00 0.  1.
<scales pt_clust_5="13000.00000" pt_clust_6="13000.00000" pt_clust_7="13000.00000" pt_clust_8="13000.00000" pt_clust_9="13000.00000"></scales>
<clustering>
<clus scale="   89.646">  5  6 -1 -1</clus>
<clus scale="   96.933">  7  8 -1 -1</clus>
<clus scale="  209.324">  5  9 -1 -1</clus>
<clus scale="  270.385">  1  7  2 -1</clus>
<clus scale="  476.032">  2  5  1 -1</clus>
</clustering>
</event>
<event>
 9    1  0.3312826E-006  0.3818550E+03  0.7546771E-02  0.1059250E+00
         21   -1    0    0  501  502  0.00000000000E+00  0.00000000000E+00  0.60765477205E+02  0.60765477205E+02  0.00000000000E+00 0. -1.
          2   -1    0    0  502    0 -0.00000000000E+00 -0.00000000000E+00 -0.24164072104E+04  0.24164072104E+04  0.00000000000E+00 0. -1.
         23    2    1    2    0    0  0.44467609144E+02 -0.27775600481E+03 -0.16352176743E+04  0.16618052515E+04  0.92380111647E+02 0.  0.
         23    2    1    2    0    0  0.20814236728E+02  0.73321312811E+02 -0.47289206956E+03  0.48775890688E+03  0.92046697005E+02 0.  0.
        -11    1    3    3    0    0  0.20414155662E+02 -0.15975257835E+02 -0.69598916502E+02  0.74269480896E+02  0.00000000000E+00 0.  1.
         11    1    3    3    0    0  0.24053453483E+02 -0.26178074697E+03 -0.15656187578E+04  0.15875357706E+04  0.00000000000E+00 0. -1.
        -13    1    4    4    0    0 -0.16748135330E+02  0.79660783091E+02 -0.31907739664E+03  0.32929732074E+03  0.00000000000E+00 0.  1.
         13    1    4    4    0    0  0.37562372058E+02 -0.63394702800E+01 -0.15381467292E+03  0.15846158614E+03  0.00000000000E+00 0. -1.
          2    1    1    2  501    0 -0.65281845873E+02  0.20443469200E+03 -0.24753198937E+03  0.32760852927E+03  0.00000000000E+00 0. -1.
<scales pt_clust_5="13000.00000" pt_clust_6="13000.00000" pt_clust_7="13000.00000" pt_clust_8="13000.00000" pt_clust_9="13000.00000"></scales>
<clustering>
<clus scale="   92.047">  7  8 -1 -1</clus>
<clus scale="   92.380">  5  6 -1 -1</clus>
<clus scale="  214.605">  7  9 -1 -1</clus>
<clus scale="  296.074">  2  5  1 -1</clus>
<clus scale="  381.855">  1  5  2 -1</clus>
</clustering>
</event>
<event>
 9    1  0.3312826E-006  0.1708977E+03  0.7546771E-02  0.1188823E+00
          2   -1    0    0  502    0 -0.00000000000E+00  0.00000000000E+00  0.12632791900E+03  0.12632791900E+03  0.00000000000E+00 0. -1.
         21   -1    0    0  501  502  0.00000000000E+00 -0.00000000000E+00 -0.21766514492E+03  0.21766514492E+03  0.00000000000E+00 0.  1.
         23    2    1    2    0    0 -0.46591652110E+02  0.83079206477E+02  0.30091976677E+02  0.13434791143E+03  0.89838174788E+02 0.  0.
         23    2    1    2    0    0  0.63133460907E+02 -0.33273276261E+02 -0.10353144298E+03  0.15419614960E+03  0.89245437224E+02 0.  0.
        -11    1    4    4    0    0  0.26613262632E+02  0.38221944873E+01  0.10484971191E+02  0.28858439658E+02  0.00000000000E+00 0. -1.
         11    1    4    4    0    0  0.36520198275E+02 -0.37095470748E+02 -0.11401641417E+03  0.12533770994E+03  0.00000000000E+00 0.  1.
        -13    1    3    3    0    0 -0.16145684606E+02 -0.18316929974E+02  0.50279662748E+00  0.24422241083E+02  0.00000000000E+00 0.  1.
         13    1    3    3    0    0 -0.30445967503E+02  0.10139613645E+03  0.29589180050E+02  0.10992567034E+03  0.00000000000E+00 0. -1.
          2    1    1    2  501    0 -0.16541808798E+02 -0.49805930216E+02 -0.17897759612E+02  0.55449002895E+02  0.00000000000E+00 0. -1.
<scales pt_clust_5="13000.00000" pt_clust_6="13000.00000" pt_clust_7="13000.00000" pt_clust_8="13000.00000" pt_clust_9="13000.00000"></scales>
<clustering>
<clus scale="   89.245">  5  6 -1 -1</clus>
<clus scale="   52.481">  5  9 -1 -1</clus>
<clus scale="   89.838">  7  8 -1 -1</clus>
<clus scale="  130.934">  1  7  2 -1</clus>
<clus scale="  170.898">  2  5  1 -1</clus>
</clustering>
</event>
<event>
 9    1  0.3312826E-006  0.2241160E+03  0.7546771E-02  0.1156500E+00
          1   -1    0    0  502    0 -0.00000000000E+00  0.00000000000E+00  0.28284710675E+03  0.28284710675E+03  0.00000000000E+00 0. -1.
         21   -1    0    0  501  502  0.00000000000E+00 -0.00000000000E+00 -0.10710527959E+03  0.10710527959E+03  0.00000000000E+00 0. -1.
         23    2    1    2    0    0  0.76208194067E+02 -0.21238669233E+02  0.85626186003E+02  0.14839742548E+03  0.91821469411E+02 0.  0.
         23    2    1    2    0    0 -0.29189825399E+02 -0.40896103768E+02  0.12225864975E+03  0.15726599356E+03  0.85210786165E+02 0.  0.
        -11    1    3    3    0    0  0.76993060014E+02  0.16779385545E+02  0.75301650362E+02  0.10899457609E+03  0.00000000000E+00 0.  1.
         11    1    3    3    0    0 -0.78486594687E+00 -0.38018054778E+02  0.10324535642E+02  0.39402849388E+02  0.00000000000E+00 0. -1.
        -11    1    4    4    0    0  0.25130602157E+02 -0.36705155131E+01  0.65777102672E+02  0.70509907707E+02  0.00000000000E+00 0. -1.
         11    1    4    4    0    0 -0.54320427556E+02 -0.37225588255E+02  0.56481547083E+02  0.86756085848E+02  0.00000000000E+00 0.  1.
          1    1    1    2  501    0 -0.47018368668E+02  0.62134773001E+02 -0.32143008601E+02  0.84288967309E+02  0.00000000000E+00 0. -1.
<scales pt_clust_5="13000.00000" pt_clust_6="13000.00000" pt_clust_7="13000.00000" pt_clust_8="13000.00000" pt_clust_9="13000.00000"></scales>
<clustering>
<clus scale="   85.211">  7  8 -1 -1</clus>
<clus scale="   77.920">  7  9 -1 -1</clus>
<clus scale="   91.821">  5  6 -1 -1</clus>
<clus scale="  121.202">  1  5  2 -1</clus>
<clus scale="  224.116">  2  5  1 -1</clus>
</clustering>
</event>
<event>
 9    1  0.3312826E-006  0.9079286E+03  0.7546771E-02  0.1003503E+00
          1   -1    0    0  502    0 -0.00000000000E+00  0.00000000000E+00  0.10996830603E+04  0.10996830603E+04  0.00000000000E+00 0. -1.
         21   -1    0    0  501  502  0.00000000000E+00 -0.00000000000E+00 -0.28054490074E+03  0.28054490074E+03  0.00000000000E+00 0. -1.
         23    2    1    2    0    0  0.63682023798E+02 -0.30023050570E+02  0.32898805733E+03  0.34844241952E+03  0.90676315196E+02 0.  0.
         23    2    1    2    0    0 -0.37194331462E+03 -0.21079319814E+03  0.46688205217E+03  0.63991963174E+03  0.93502314258E+02 0.  0.
        -13    1    3    3    0    0  0.82936515490E+02 -0.41110640621E+02  0.26747495479E+03  0.28303957641E+03  0.00000000000E+00 0.  1.
         13    1    3    3    0    0 -0.19254491692E+02  0.11087590051E+02  0.61513102539E+02  0.65402843114E+02  0.00000000000E+00 0. -1.
        -13    1    4    4    0    0 -0.26855392624E+03 -0.13664704940E+03  0.38386657111E+03  0.48800324981E+03  0.00000000000E+00 0.  1.
         13    1    4    4    0    0 -0.10338938838E+03 -0.74146148740E+02  0.83015481060E+02  0.15191638193E+03  0.00000000000E+00 0. -1.
          1    1    1    2  501    0  0.30826129082E+03  0.24081624871E+03  0.23268050015E+02  0.39186590974E+03  0.00000000000E+00 0. -1.
<scales pt_clust_5="13000.00000" pt_clust_6="13000.00000" pt_clust_7="13000.00000" pt_clust_8="13000.00000" pt_clust_9="13000.00000"></scales>
<clustering>
<clus scale="   90.676">  5  6 -1 -1</clus>
<clus scale="   93.502">  7  8 -1 -1</clus>
<clus scale="  114.800">  1  5  2 -1</clus>
<clus scale="  400.189">  7  9 -1 -1</clus>
<clus scale="  907.929">  2  5  1 -1</clus>
</clustering>
</event>
<event>
 9    1  0.3312826E-006  0.2084960E+03  0.7546771E-02  0.1176554E+00
         21   -1    0    0  501  502  0.00000000000E+00  0.00000000000E+00  0.61670318842E+03  0.61670318842E+03  0.00000000000E+00 0. -1.
         -1   -1    0    0    0  501 -0.00000000000E+00 -0.00000000000E+00 -0.37444325404E+02  0.37444325404E+02  0.00000000000E+00 0.  1.
         23    2    1    2    0    0  0.32939875733E+02 -0.33606659228E+01  0.16346614688E+03  0.18900863985E+03  0.88919937437E+02 0.  0.
         23    2    1    2    0    0  0.61765661142E+02  0.13111216518E+02  0.19616873578E+03  0.22576697776E+03  0.92204416666E+02 0.  0.
        -11    1    3    3    0    0  0.60730694923E+02 -0.94590883208E+01  0.80381414662E+02  0.10118726936E+03  0.00000000000E+00 0. -1.
         11    1    3    3    0    0 -0.27790819190E+02  0.60984223980E+01  0.83084732219E+02  0.87821370491E+02  0.00000000000E+00 0.  1.
        -13    1    4    4    0    0 -0.17399043691E+02  0.21746974819E+02  0.26990606200E+02  0.38783378633E+02  0.00000000000E+00 0.  1.
         13    1    4    4    0    0  0.79164704832E+02 -0.86357583015E+01  0.16917812958E+03  0.18698359913E+03  0.00000000000E+00 0. -1.
         -1    1    1    2    0  502 -0.94705536875E+02 -0.97505505951E+01  0.21962398035E+03  0.23937189621E+03  0.00000000000E+00 0.  1.
<scales pt_clust_5="13000.00000" pt_clust_6="13000.00000" pt_clust_7="13000.00000" pt_clust_8="13000.00000" pt_clust_9="13000.00000"></scales>
<clustering>
<clus scale="   88.920">  5  6 -1 -1</clus>
<clus scale="   92.204">  7  8 -1 -1</clus>
<clus scale="   94.885">  2  5  1 -1</clus>
<clus scale="   82.275">  7  9 -1 -1</clus>
<clus scale="  208.496">  1  5  2 -1</clus>
</clustering>
</event>
<event>
 9    1  0.3312826E-006  0.4062894E+03  0.7546771E-02  0.1063888E+00
         21   -1    0    0  501  502  0.00000000000E+00  0.00000000000E+00  0.14271719477E+03  0.14271719477E+03  0.00000000000E+00 0.  1.
         -3   -1    0    0    0  501 -0.00000000000E+00 -0.00000000000E+00 -0.70152598476E+03  0.70152598476E+03  0.00000000000E+00 0.  1.
         23    2    1    2    0    0  0.13491464475E+03  0.14103901205E+03 -0.12349275176E+03  0.24878444527E+03  0.92462296008E+02 0.  0.
         23    2    1    2    0    0  0.31958497717E+02 -0.32068659340E+02 -0.37255337622E+03  0.38650817747E+03  0.92427315365E+02 0.  0.
        -13    1    3    3    0    0  0.42657542915E+02  0.26754034732E+02 -0.81886968580E+02  0.96129703865E+02  0.00000000000E+00 0. -1.
         13    1    3    3    0    0  0.92257101832E+02  0.11428497732E+03 -0.41605783178E+02  0.15265474140E+03  0.00000000000E+00 0.  1.
        -13    1    4    4    0    0 -0.23620122104E+01 -0.58193191623E+02 -0.18019418772E+03  0.18937257441E+03  0.00000000000E+00 0.  1.
         13    1    4    4    0    0  0.34320509927E+02  0.26124532283E+02 -0.19235918850E+03  0.19713560305E+03  0.00000000000E+00 0. -1.
         -3    1    1    2    0  502 -0.16687314246E+03 -0.10897035271E+03 -0.62762662012E+02  0.20895055680E+03  0.00000000000E+00 0.  1.
<scales pt_clust_5="13000.00000" pt_clust_6="13000.00000" pt_clust_7="13000.00000" pt_clust_8="13000.00000" pt_clust_9="13000.00000"></scales>
<clustering>
<clus scale="   92.427">  7  8 -1 -1</clus>
<clus scale="   92.462">  5  6 -1 -1</clus>
<clus scale="  199.302">  7  9 -1 -1</clus>
<clus scale="  215.971">  2  5  1 -1</clus>
<clus scale="  406.289">  1  5  2 -1</clus>
</clustering>
</event>
<event>
 9    1  0.3312826E-006  0.1399546E+03  0.7546771E-02  0.1229471E+00
         21   -1    0    0  501  502  0.00000000000E+00  0.00000000000E+00  0.69455346210E+02  0.69455346210E+02  0.00000000000E+00 0.  1.
          1   -1    0    0  502    0 -0.00000000000E+00 -0.00000000000E+00 -0.21238341276E+03  0.21238341276E+03  0.00000000000E+00 0. -1.
         23    2    1    2    0    0  0.30719993571E+02  0.20108579843E+02 -0.81701660051E+02  0.12907767306E+03  0.92939826984E+02 0.  0.
         23    2    1    2    0    0  0.16556502997E+01  0.11258967949E+02 -0.53425883907E+02  0.10701227692E+03  0.92020632489E+02 0.  0.
        -11    1    3    3    0    0 -0.26761585174E+02  0.10844306647E+01  0.73601013120E+00  0.26793658612E+02  0.00000000000E+00 0. -1.
         11    1    3    3    0    0  0.57481578745E+02  0.19024149178E+02 -0.82437670182E+02  0.10228401445E+03  0.00000000000E+00 0.  1.
        -13    1    4    4    0    0  0.35058444949E+02  0.31330396717E+02 -0.89198390384E+01  0.47856575819E+02  0.00000000000E+00 0.  1.
         13    1    4    4    0    0 -0.33402794649E+02 -0.20071428768E+02 -0.44506044869E+02  0.59155701103E+02  0.00000000000E+00 0. -1.
          1    1    1    2  501    0 -0.32375643871E+02 -0.31367547791E+02 -0.78005225871E+01  0.45748808980E+02  0.00000000000E+00 0. -1.
<scales pt_clust_5="13000.00000" pt_clust_6="13000.00000" pt_clust_7="13000.00000" pt_clust_8="13000.00000" pt_clust_9="13000.00000"></scales>
<clustering>
<clus scale="   92.021">  7  8 -1 -1</clus>
<clus scale="   45.079">  7  9 -1 -1</clus>
<clus scale="   92.940">  5  6 -1 -1</clus>
<clus scale="   99.929">  2  5  1 -1</clus>
<clus scale="  139.955">  1  5  2 -1</clus>
</clustering>
</event>
<event>
 9    1  0.3312826E-006  0.1402597E+03  0.7546771E-02  0.1219806E+00
          1   -1    0    0  502    0 -0.00000000000E+00  0.00000000000E+00  0.11754087352E+03  0.11754087352E+03  0.00000000000E+00 0. -1.
         21   -1    0    0  501  502  0.00000000000E+00 -0.00000000000E+00 -0.15209244274E+03  0.15209244274E+03  0.00000000000E+00 0. -1.
         23    2    1    2    0    0  0.61500638681E+02 -0.30443446659E+02  0.11596165631E+02  0.12197694031E+03  0.10017370367E+03 0.  0.
         23    2    1    2    0    0 -0.32563726886E+02  0.44182967366E+02 -0.33741228606E+02  0.11330465560E+03  0.93203774385E+02 0.  0.
        -13    1    3    3    0    0 -0.21943188750E+02  0.79957314828E+01 -0.13187872599E+02  0.26820798611E+02  0.00000000000E+00 0.  1.
         13    1    3    3    0    0  0.83443827430E+02 -0.38439178141E+02  0.24784038230E+02  0.95156141701E+02  0.00000000000E+00 0. -1.
        -13    1    4    4    0    0 -0.18866842482E+02 -0.23542286734E+02  0.96957420052E+01  0.31689184636E+02  0.00000000000E+00 0.  1.
         13    1    4    4    0    0 -0.13696884404E+02  0.67725254100E+02 -0.43436970611E+02  0.81615470967E+02  0.00000000000E+00 0. -1.
          1    1    1    2  501    0 -0.28936911795E+02 -0.13739520708E+02 -0.12406506248E+02  0.34351720347E+02  0.00000000000E+00 0. -1.
<scales pt_clust_5="13000.00000" pt_clust_6="13000.00000" pt_clust_7="13000.00000" pt_clust_8="13000.00000" pt_clust_9="13000.00000"></scales>
<clustering>
<clus scale="   93.204">  7  8 -1 -1</clus>
<clus scale="   32.033">  7  9 -1 -1</clus>
<clus scale="  100.174">  5  6 -1 -1</clus>
<clus scale="  121.424">  1  5  2 -1</clus>
<clus scale="  140.260">  2  5  1 -1</clus>
</clustering>
</event>
<event>
 9    1  0.3312826E-006  0.1532253E+03  0.7546771E-02  0.1220376E+00
          2   -1    0    0  502    0 -0.00000000000E+00  0.00000000000E+00  0.25693977672E+03  0.25693977672E+03  0.00000000000E+00 0. -1.
         21   -1    0    0  501  502  0.00000000000E+00 -0.00000000000E+00 -0.64474690134E+02  0.64474690134E+02  0.00000000000E+00 0. -1.
         23    2    1    2    0    0 -0.67328984408E+01 -0.11413190605E+02  0.27013712508E+02  0.95910256547E+02  0.91068346895E+02 0.  0.
         23    2    1    2    0    0  0.36360567326E+02  0.25590377503E+02  0.15741091175E+03  0.19168941433E+03  0.99948377442E+02 0.  0.
        -11    1    3    3    0    0 -0.43888514008E+02  0.25026954380E+01  0.34063361336E+02  0.55612747925E+02  0.00000000000E+00 0.  1.
         11    1    3    3    0    0  0.37155615567E+02 -0.13915886043E+02 -0.70496488275E+01  0.40297508622E+02  0.00000000000E+00 0. -1.
        -13    1    4    4    0    0 -0.13386237699E+02 -0.29037239372E+02  0.71845030060E+02  0.78638800693E+02  0.00000000000E+00 0.  1.
         13    1    4    4    0    0  0.49746805025E+02  0.54627616875E+02  0.85565881689E+02  0.11305061364E+03  0.00000000000E+00 0. -1.
          2    1    1    2  501    0 -0.29627668886E+02 -0.14177186898E+02  0.80404623241E+01  0.33814795967E+02  0.00000000000E+00 0. -1.
<scales pt_clust_5="13000.00000" pt_clust_6="13000.00000" pt_clust_7="13000.00000" pt_clust_8="13000.00000" pt_clust_9="13000.00000"></scales>
<clustering>
<clus scale="   91.068">  5  6 -1 -1</clus>
<clus scale="   92.027">  1  5  2 -1</clus>
<clus scale="   99.948">  7  8 -1 -1</clus>
<clus scale="   34.032">  7  9 -1 -1</clus>
<clus scale="  153.225">  2  5  1 -1</clus>
</clustering>
</event>
<event>
 9    1  0.3312826E-006  0.5887103E+03  0.7546771E-02  0.1053854E+00
         -1   -1    0    0    0  501 -0.00000000000E+00  0.00000000000E+00  0.33000445535E+03  0.33000445535E+03  0.00000000000E+00 0.  1.
         21   -1    0    0  501  502  0.00000000000E+00 -0.00000000000E+00 -0.40835400336E+03  0.40835400336E+03  0.00000000000E+00 0. -1.
         23    2    1    2    0    0  0.28511713107E+01 -0.23113218829E+02  0.85669094534E+02  0.12722680808E+03  0.91132413949E+02 0.  0.
         23    2    1    2    0    0 -0.18966408194E+03  0.14790114567E+03 -0.25917659111E+03  0.36715188623E+03  0.98897873160E+02 0.  0.
        -11    1    4    4    0    0 -0.11369138885E+03  0.12213513007E+03 -0.22458766277E+03  0.27978981426E+03  0.00000000000E+00 0. -1.
         11    1    4    4    0    0 -0.75972693094E+02  0.25766015601E+02 -0.34588928342E+02  0.87362071975E+02  0.00000000000E+00 0.  1.
        -13    1    3    3    0    0 -0.42644378948E+02 -0.14268039620E+02  0.26968855300E+02  0.52435094799E+02  0.00000000000E+00 0. -1.
         13    1    3    3    0    0  0.45495550259E+02 -0.88451792094E+01  0.58700239235E+02  0.74791713276E+02  0.00000000000E+00 0.  1.
         -1    1    1    2    0  502  0.18681291063E+03 -0.12478792684E+03  0.95157948559E+02  0.24397976440E+03  0.00000000000E+00 0.  1.
<scales pt_clust_5="13000.00000" pt_clust_6="13000.00000" pt_clust_7="13000.00000" pt_clust_8="13000.00000" pt_clust_9="13000.00000"></scales>
<clustering>
<clus scale="   91.132">  7  8 -1 -1</clus>
<clus scale="   94.061">  1  7  2 -1</clus>
<clus scale="   98.898">  5  6 -1 -1</clus>
<clus scale="  236.573">  5  9 -1 -1</clus>
<clus scale="  588.710">  2  5  1 -1</clus>
</clustering>
</event>
<event>
 9    1  0.3312826E-006  0.3109817E+03  0.7546771E-02  0.1124845E+00
         21   -1    0    0  501  502  0.00000000000E+00  0.00000000000E+00  0.34359984424E+03  0.34359984424E+03  0.00000000000E+00 0. -1.
         -3   -1    0    0    0  501 -0.00000000000E+00 -0.00000000000E+00 -0.13352039365E+03  0.13352039365E+03  0.00000000000E+00 0. -1.
         23    2    1    2    0    0 -0.29526620065E+02 -0.13969278266E+02 -0.75286215007E+01  0.97564073039E+02  0.91624812024E+02 0.  0.
         23    2    1    2    0    0 -0.84842374961E+02 -0.57871458821E+02  0.19155638751E+02  0.13950465616E+03  0.92451480562E+02 0.  0.
        -13    1    4    4    0    0 -0.20564967053E+02  0.10028672122E+02 -0.26870049108E+02  0.35291524103E+02  0.00000000000E+00 0. -1.
         13    1    4    4    0    0 -0.64277407908E+02 -0.67900130942E+02  0.46025687860E+02  0.10421313205E+03  0.00000000000E+00 0.  1.
        -13    1    3    3    0    0  0.30529253150E+02  0.27785046832E+01 -0.16106954381E+02  0.34629313675E+02  0.00000000000E+00 0.  1.
         13    1    3    3    0    0 -0.60055873214E+02 -0.16747782949E+02  0.85783328801E+01  0.62934759364E+02  0.00000000000E+00 0. -1.
         -3    1    1    2    0  502  0.11436899503E+03  0.71840737086E+02  0.19845243334E+03  0.24005150869E+03  0.00000000000E+00 0. -1.
<scales pt_clust_5="13000.00000" pt_clust_6="13000.00000" pt_clust_7="13000.00000" pt_clust_8="13000.00000" pt_clust_9="13000.00000"></scales>
<clustering>
<clus scale="   91.625">  7  8 -1 -1</clus>
<clus scale="   92.451">  5  6 -1 -1</clus>
<clus scale="   97.273">  2  7  1 -1</clus>
<clus scale="  126.733">  5  9 -1 -1</clus>
<clus scale="  310.982">  1  5  2 -1</clus>
</clustering>
</event>
<event>
 9    1  0.3312826E-006  0.4680472E+03  0.7546771E-02  0.1042975E+00
          1   -1    0    0  502    0 -0.00000000000E+00  0.00000000000E+00  0.71373120016E+03  0.71373120016E+03  0.00000000000E+00 0. -1.
         21   -1    0    0  501  502  0.00000000000E+00 -0.00000000000E+00 -0.34474839365E+03  0.34474839365E+03  0.00000000000E+00 0. -1.
         23    2    1    2    0    0 -0.12726203669E+03 -0.20213075995E+03  0.50932912425E+03  0.56984348215E+03  0.90845843297E+02 0.  0.
         23    2    1    2    0    0  0.81375688000E+02  0.75552504083E+02  0.12578244803E+03  0.19038767188E+03  0.89978096778E+02 0.  0.
        -11    1    4    4    0    0  0.50231595718E+02  0.16830264350E+02  0.58906093190E+01  0.53302629247E+02  0.00000000000E+00 0.  1.
         11    1    4    4    0    0  0.31144092282E+02  0.58722239733E+02  0.11989183871E+03  0.13708504263E+03  0.00000000000E+00 0. -1.
        -11    1    3    3    0    0 -0.30129841098E+02 -0.39429328655E+02  0.20838450144E+03  0.21421153032E+03  0.00000000000E+00 0.  1.
         11    1    3    3    0    0 -0.97132195594E+02 -0.16270143129E+03  0.30094462281E+03  0.35563195183E+03  0.00000000000E+00 0. -1.
          1    1    1    2  501    0  0.45886348692E+02  0.12657825586E+03 -0.26612876578E+03  0.29824843977E+03  0.00000000000E+00 0. -1.
<scales pt_clust_5="13000.00000" pt_clust_6="13000.00000" pt_clust_7="13000.00000" pt_clust_8="13000.00000" pt_clust_9="13000.00000"></scales>
<clustering>
<clus scale="   89.978">  5  6 -1 -1</clus>
<clus scale="   90.846">  7  8 -1 -1</clus>
<clus scale="  134.639">  5  9 -1 -1</clus>
<clus scale="  255.549">  1  7  2 -1</clus>
<clus scale="  468.047">  2  5  1 -1</clus>
</clustering>
</event>
<event>
 9    1  0.3312826E-006  0.1896790E+03  0.7546771E-02  0.1178760E+00
         21   -1    0    0  501  502  0.00000000000E+00  0.00000000000E+00  0.86892749054E+02  0.86892749054E+02  0.00000000000E+00 0. -1.
          3   -1    0    0  502    0 -0.00000000000E+00 -0.00000000000E+00 -0.43164522240E+03  0.43164522240E+03  0.00000000000E+00 0. -1.
         23    2    1    2    0    0  0.30265544231E+02  0.73233596155E+02 -0.30082679707E+03  0.32383927774E+03  0.89977514956E+02 0.  0.
         23    2    1    2    0    0  0.41902385186E+02 -0.43154585794E+02 -0.16978670355E+02  0.11199985437E+03  0.92938495645E+02 0.  0.
        -13    1    4    4    0    0  0.10244932382E+02  0.28510851251E+02 -0.14568714496E+02  0.33616584012E+02  0.00000000000E+00 0.  1.
         13    1    4    4    0    0  0.31657452805E+02 -0.71665437045E+02 -0.24099558591E+01  0.78383270359E+02  0.00000000000E+00 0. -1.
        -13    1    3    3    0    0  0.55251883350E+02  0.56747748374E+02 -0.14555853403E+03  0.16571169056E+03  0.00000000000E+00 0. -1.
         13    1    3    3    0    0 -0.24986339119E+02  0.16485847781E+02 -0.15526826304E+03  0.15812758718E+03  0.00000000000E+00 0.  1.
          3    1    1    2  501    0 -0.72167929417E+02 -0.30079010360E+02 -0.26947005919E+02  0.82698839343E+02  0.00000000000E+00 0. -1.
<scales pt_clust_5="13000.00000" pt_clust_6="13000.00000" pt_clust_7="13000.00000" pt_clust_8="13000.00000" pt_clust_9="13000.00000"></scales>
<clustering>
<clus scale="   89.978">  7  8 -1 -1</clus>
<clus scale="   92.938">  5  6 -1 -1</clus>
<clus scale="   78.185">  5  9 -1 -1</clus>
<clus scale="  119.896">  2  7  1 -1</clus>
<clus scale="  189.679">  1  5  2 -1</clus>
</clustering>
</event>
<event>
 9    1  0.3312826E-006  0.3053260E+03  0.7546771E-02  0.1106449E+00
          2   -1    0    0  502    0 -0.00000000000E+00  0.00000000000E+00  0.37506092507E+03  0.37506092507E+03  0.00000000000E+00 0. -1.
         21   -1    0    0  501  502  0.00000000000E+00 -0.00000000000E+00 -0.19654656544E+03  0.19654656544E+03  0.00000000000E+00 0. -1.
         23    2    1    2    0    0  0.21073045787E+02 -0.13194792967E+03  0.20838146439E+03  0.26482417297E+03  0.94099301166E+02 0.  0.
         23    2    1    2    0    0  0.49449603570E+02  0.16712446121E+03 -0.80959188151E+02  0.21286189598E+03  0.91542054738E+02 0.  0.
        -11    1    4    4    0    0  0.14958755567E+01  0.10310780368E+03 -0.60820543880E+01  0.10329786158E+03  0.00000000000E+00 0. -1.
         11    1    4    4    0    0  0.47953728013E+02  0.64016657539E+02 -0.74877133763E+02  0.10956403440E+03  0.00000000000E+00 0.  1.
        -13    1    3    3    0    0  0.45843714772E+02 -0.31826705053E+02  0.10431560627E+03  0.11830609050E+03  0.00000000000E+00 0.  1.
         13    1    3    3    0    0 -0.24770668985E+02 -0.10012122462E+03  0.10406585813E+03  0.14651808247E+03  0.00000000000E+00 0. -1.
          2    1    1    2  501    0 -0.70522649357E+02 -0.35176531540E+02  0.51092083393E+02  0.93921421566E+02  0.00000000000E+00 0. -1.
<scales pt_clust_5="13000.00000" pt_clust_6="13000.00000" pt_clust_7="13000.00000" pt_clust_8="13000.00000" pt_clust_9="13000.00000"></scales>
<clustering>
<clus scale="   91.542">  5  6 -1 -1</clus>
<clus scale="   78.809">  5  9 -1 -1</clus>
<clus scale="   94.099">  7  8 -1 -1</clus>
<clus scale="  163.429">  1  7  2 -1</clus>
<clus scale="  305.326">  2  5  1 -1</clus>
</clustering>
</event>
<event>
 9    1  0.3312826E-006  0.1575284E+03  0.7546771E-02  0.1214762E+00
         21   -1    0    0  501  502  0.00000000000E+00  0.00000000000E+00  0.15309558877E+03  0.15309558877E+03  0.00000000000E+00 0.  1.
          1   -1    0    0  502    0 -0.00000000000E+00 -0.00000000000E+00 -0.12468465788E+03  0.12468465788E+03  0.00000000000E+00 0. -1.
         23    2    1    2    0    0 -0.31884669358E+02  0.71985943145E+01  0.65851552753E+02  0.11586358752E+03  0.89551616478E+02 0.  0.
         23    2    1    2    0    0 -0.46300275683E+01  0.44749216188E+02 -0.36225073291E+02  0.98407796234E+02  0.79673765570E+02 0.  0.
        -11    1    4    4    0    0 -0.41972357354E+02  0.18649186561E+02 -0.18889062917E+02  0.49661530777E+02  0.00000000000E+00 0.  1.
         11    1    4    4    0    0  0.37342329786E+02  0.26100029627E+02 -0.17336010374E+02  0.48746265457E+02  0.00000000000E+00 0. -1.
        -11    1    3    3    0    0  0.25744995871E+02  0.19180020374E+02  0.74754159423E+01  0.32963007106E+02  0.00000000000E+00 0. -1.
         11    1    3    3    0    0 -0.57629665229E+02 -0.11981426059E+02  0.58376136810E+02  0.82900580418E+02  0.00000000000E+00 0.  1.
          1    1    1    2  501    0  0.36514696926E+02 -0.51947810502E+02 -0.12155485740E+01  0.63508862892E+02  0.00000000000E+00 0. -1.
<scales pt_clust_5="13000.00000" pt_clust_6="13000.00000" pt_clust_7="13000.00000" pt_clust_8="13000.00000" pt_clust_9="13000.00000"></scales>
<clustering>
<clus scale="   79.674">  5  6 -1 -1</clus>
<clus scale="   63.497">  5  9 -1 -1</clus>
<clus scale="   89.552">  7  8 -1 -1</clus>
<clus scale="   95.331">  2  7  1 -1</clus>
<clus scale="  157.528">  1  5  2 -1</clus>
</clustering>
</event>
<event>
 9    1  0.3312826E-006  0.2040844E+03  0.7546771E-02  0.1169234E+00
         21   -1    0    0  501  502  0.00000000000E+00  0.00000000000E+00  0.88732534274E+02  0.88732534274E+02  0.00000000000E+00 0.  1.
         -2   -1    0    0    0  501 -0.00000000000E+00 -0.00000000000E+00 -0.31456275975E+03  0.31456275975E+03  0.00000000000E+00 0.  1.
         23    2    1    2    0    0 -0.37986546653E+02  0.47894498291E+02 -0.13385191193E+03  0.17944161141E+03  0.10269419109E+03 0.  0.
         23    2    1    2    0    0  0.75353538673E+02 -0.63979967492E+02 -0.11585709776E+02  0.13375370952E+03  0.89354541615E+02 0.  0.
        -11    1    4    4    0    0  0.86294801126E+02 -0.29345467596E+02 -0.25832571744E+02  0.94737906524E+02  0.00000000000E+00 0.  1.
         11    1    4    4    0    0 -0.10941262452E+02 -0.34634499897E+02  0.14246861968E+02  0.39015802991E+02  0.00000000000E+00 0. -1.
        -11    1    3    3    0    0 -0.19273532242E+02 -0.26206203747E+02 -0.78802066877E+02  0.85252565381E+02  0.00000000000E+00 0.  1.
         11    1    3    3    0    0 -0.18713014412E+02  0.74100702038E+02 -0.55049845052E+02  0.94189046025E+02  0.00000000000E+00 0. -1.
         -2    1    1    2    0  502 -0.37366992020E+02  0.16085469201E+02 -0.80392603771E+02  0.90099973103E+02  0.00000000000E+00 0.  1.
<scales pt_clust_5="13000.00000" pt_clust_6="13000.00000" pt_clust_7="13000.00000" pt_clust_8="13000.00000" pt_clust_9="13000.00000"></scales>
<clustering>
<clus scale="   89.355">  5  6 -1 -1</clus>
<clus scale="   40.682">  5  9 -1 -1</clus>
<clus scale="  102.694">  7  8 -1 -1</clus>
<clus scale="  119.511">  2  7  1 -1</clus>
<clus scale="  204.084">  1  5  2 -1</clus>
</clustering>
</event>
<event>
 9    1  0.3312826E-006  0.1394073E+03  0.7546771E-02  0.1232385E+00
         21   -1    0    0  501  502  0.00000000000E+00  0.00000000000E+00  0.12117611635E+03  0.12117611635E+03  0.00000000000E+00 0.  1.
          1   -1    0    0  502    0 -0.00000000000E+00 -0.00000000000E+00 -0.18404594613E+03  0.18404594613E+03  0.00000000000E+00 0. -1.
         23    2    1    2    0    0  0.29065345067E+02 -0.64924251997E+00  0.65616692431E+02  0.11563516519E+03  0.90668215505E+02 0.  0.
         23    2    1    2    0    0 -0.23997650776E+02  0.38399738114E+02 -0.94600908423E+02  0.13860634938E+03  0.90619871351E+02 0.  0.
        -13    1    4    4    0    0 -0.49204594598E+02  0.51022551708E+02 -0.53682218146E+02  0.88916665803E+02  0.00000000000E+00 0. -1.
         13    1    4    4    0    0  0.25206943822E+02 -0.12622813595E+02 -0.40918690277E+02  0.49689683576E+02  0.00000000000E+00 0.  1.
        -13    1    3    3    0    0  0.30566303094E+02 -0.22515948948E+02 -0.80232552967E+01  0.38802570371E+02  0.00000000000E+00 0. -1.
         13    1    3    3    0    0 -0.15009580274E+01  0.21866706428E+02  0.73639947728E+02  0.76832594817E+02  0.00000000000E+00 0.  1.
          1    1    1    2  501    0 -0.50676942906E+01 -0.37750495594E+02 -0.33885613787E+02  0.50980547905E+02  0.00000000000E+00 0. -1.
<scales pt_clust_5="13000.00000" pt_clust_6="13000.00000" pt_clust_7="13000.00000" pt_clust_8="13000.00000" pt_clust_9="13000.00000"></scales>
<clustering>
<clus scale="   90.620">  5  6 -1 -1</clus>
<clus scale="   38.089">  5  9 -1 -1</clus>
<clus scale="   90.668">  7  8 -1 -1</clus>
<clus scale="   95.215">  2  7  1 -1</clus>
<clus scale="  139.407">  1  5  2 -1</clus>
</clustering>
</event>
<event>
 9    1  0.3312826E-006  0.2359323E+03  0.7546771E-02  0.1138232E+00
         21   -1    0    0  501  502  0.00000000000E+00  0.00000000000E+00  0.78005260190E+03  0.78005260190E+03  0.00000000000E+00 0. -1.
          3   -1    0    0  502    0 -0.00000000000E+00 -0.00000000000E+00 -0.63180651718E+02  0.63180651718E+02  0.00000000000E+00 0. -1.
         23    2    1    2    0    0 -0.21742496535E+02 -0.12982580014E+03  0.11693456888E+03  0.19857139758E+03  0.91811938225E+02 0.  0.
         23    2    1    2    0    0 -0.46651569272E+02  0.25832563762E+02  0.34211622021E+03  0.35836813875E+03  0.92414958087E+02 0.  0.
        -11    1    4    4    0    0 -0.47202144111E+02  0.55452257723E+02  0.28333678378E+03  0.29254525862E+03  0.00000000000E+00 0.  1.
         11    1    4    4    0    0  0.55057483825E+00 -0.29619693960E+02  0.58779436426E+02  0.65822880137E+02  0.00000000000E+00 0. -1.
        -11    1    3    3    0    0  0.35519118013E+02 -0.37793232101E+02  0.42906045997E+02  0.67311699727E+02  0.00000000000E+00 0.  1.
         11    1    3    3    0    0 -0.57261614548E+02 -0.92032568038E+02  0.74028522886E+02  0.13125969786E+03  0.00000000000E+00 0. -1.
          3    1    1    2  501    0  0.68394065808E+02  0.10399323638E+03  0.25782116109E+03  0.28629371728E+03  0.00000000000E+00 0. -1.
<scales pt_clust_5="13000.00000" pt_clust_6="13000.00000" pt_clust_7="13000.00000" pt_clust_8="13000.00000" pt_clust_9="13000.00000"></scales>
<clustering>
<clus scale="   91.812">  7  8 -1 -1</clus>
<clus scale="   92.415">  5  6 -1 -1</clus>
<clus scale="  124.468">  5  9 -1 -1</clus>
<clus scale="  160.490">  2  7  1 -1</clus>
<clus scale="  235.932">  1  5  2 -1</clus>
</clustering>
</event>
<event>
 9    1  0.3312826E-006  0.1472199E+03  0.7546771E-02  0.1226186E+00
         21   -1    0    0  501  502  0.00000000000E+00  0.00000000000E+00  0.14090605214E+03  0.14090605214E+03  0.00000000000E+00 0. -1.
          3   -1    0    0  502    0 -0.00000000000E+00 -0.00000000000E+00 -0.26232002626E+03  0.26232002626E+03  0.00000000000E+00 0. -1.
         23    2    1    2    0    0  0.34913232281E+01  0.23710190981E+02 -0.21151879948E+03  0.23062083297E+03  0.88720930864E+02 0.  0.
         23    2    1    2    0    0  0.21143882540E+02 -0.40084456590E+02  0.30353041959E+02  0.10593227071E+03  0.90810304442E+02 0.  0.
        -13    1    3    3    0    0  0.44625974546E+02  0.28349948123E+01 -0.12158466032E+03  0.12954668820E+03  0.00000000000E+00 0. -1.
         13    1    3    3    0    0 -0.41134651317E+02  0.20875196169E+02 -0.89934139160E+02  0.10107414477E+03  0.00000000000E+00 0.  1.
        -13    1    4    4    0    0  0.31478910059E+02  0.21977577149E+02  0.14592668590E+02  0.41071664837E+02  0.00000000000E+00 0.  1.
         13    1    4    4    0    0 -0.10335027519E+02 -0.62062033739E+02  0.15760373369E+02  0.64860605875E+02  0.00000000000E+00 0. -1.
          3    1    1    2  501    0 -0.24635205768E+02  0.16374265609E+02  0.59751783400E+02  0.66672974712E+02  0.00000000000E+00 0. -1.
<scales pt_clust_5="13000.00000" pt_clust_6="13000.00000" pt_clust_7="13000.00000" pt_clust_8="13000.00000" pt_clust_9="13000.00000"></scales>
<clustering>
<clus scale="   88.721">  5  6 -1 -1</clus>
<clus scale="   90.810">  7  8 -1 -1</clus>
<clus scale="   29.581">  7  9 -1 -1</clus>
<clus scale="   91.901">  2  5  1 -1</clus>
<clus scale="  147.220">  1  5  2 -1</clus>
</clustering>
</event>
<event>
 9    1  0.3312826E-006  0.1343603E+03  0.7546771E-02  0.1234165E+00
         21   -1    0    0  501  502  0.00000000000E+00  0.00000000000E+00  0.57602308694E+03  0.57602308694E+03  0.00000000000E+00 0. -1.
          1   -1    0    0  502    0 -0.00000000000E+00 -0.00000000000E+00 -0.91169427991E+02  0.91169427991E+02  0.00000000000E+00 0. -1.
         23    2    1    2    0    0 -0.13960470311E+01  0.46200204713E+02 -0.51164074724E+02  0.11459167096E+03  0.91526393177E+02 0.  0.
         23    2    1    2    0    0 -0.64356914313E+01 -0.64263633384E+01  0.30282188008E+03  0.31590779228E+03  0.89520533398E+02 0.  0.
        -11    1    4    4    0    0 -0.43042488585E+02  0.51610829661E+01  0.93076483681E+02  0.10267679590E+03  0.00000000000E+00 0. -1.
         11    1    4    4    0    0  0.36606797154E+02 -0.11587446304E+02  0.20974539639E+03  0.21323099638E+03  0.00000000000E+00 0.  1.
        -13    1    3    3    0    0  0.33546806105E+02 -0.10112804041E+02 -0.94749062828E+01  0.36296430327E+02  0.00000000000E+00 0.  1.
         13    1    3    3    0    0 -0.34942853136E+02  0.56313008754E+02 -0.41689168441E+02  0.78295240632E+02  0.00000000000E+00 0. -1.
          1    1    1    2  501    0  0.78317384625E+01 -0.39773841375E+02  0.23319585360E+03  0.23669305170E+03  0.00000000000E+00 0. -1.
<scales pt_clust_5="13000.00000" pt_clust_6="13000.00000" pt_clust_7="13000.00000" pt_clust_8="13000.00000" pt_clust_9="13000.00000"></scales>
<clustering>
<clus scale="   89.521">  5  6 -1 -1</clus>
<clus scale="   40.538">  5  9 -1 -1</clus>
<clus scale="   91.526">  7  8 -1 -1</clus>
<clus scale="  102.535">  2  7  1 -1</clus>
<clus scale="  134.360">  1  5  2 -1</clus>
</clustering>
</event>
<event>
 9    1  0.3312826E-006  0.3700350E+03  0.7546771E-02  0.1106663E+00
         -4   -1    0    0    0  501 -0.00000000000E+00  0.00000000000E+00  0.20492415383E+03  0.20492415383E+03  0.00000000000E+00 0.  1.
         21   -1    0    0  501  502  0.00000000000E+00 -0.00000000000E+00 -0.27503804524E+03  0.27503804524E+03  0.00000000000E+00 0.  1.
         23    2    1    2    0    0  0.55819515157E+01  0.93709980091E+01 -0.61011625975E+02  0.10981526786E+03  0.90653189494E+02 0.  0.
         23    2    1    2    0    0 -0.56961972323E+02 -0.11239725079E+03  0.11958318932E+03  0.19747886361E+03  0.93914610834E+02 0.  0.
        -11    1    4    4    0    0  0.25441737808E+02 -0.27110945270E+02  0.40273138704E+02  0.54810683969E+02  0.00000000000E+00 0. -1.
         11    1    4    4    0    0 -0.82403710132E+02 -0.85286305523E+02  0.79310050614E+02  0.14266817964E+03  0.00000000000E+00 0.  1.
        -13    1    3    3    0    0 -0.32417832644E+01 -0.31724341853E+02  0.42684602914E+01  0.32173945639E+02  0.00000000000E+00 0.  1.
         13    1    3    3    0    0  0.88237347802E+01  0.41095339862E+02 -0.65280086267E+02  0.77641322225E+02  0.00000000000E+00 0. -1.
         -4    1    1    2    0  502  0.51380020808E+02  0.10302625278E+03 -0.12868545476E+03  0.17266806760E+03  0.00000000000E+00 0.  1.
<scales pt_clust_5="13000.00000" pt_clust_6="13000.00000" pt_clust_7="13000.00000" pt_clust_8="13000.00000" pt_clust_9="13000.00000"></scales>
<clustering>
<clus scale="   90.653">  7  8 -1 -1</clus>
<clus scale="   91.307">  1  7  2 -1</clus>
<clus scale="   93.915">  5  6 -1 -1</clus>
<clus scale="  116.453">  5  9 -1 -1</clus>
<clus scale="  370.035">  2  5  1 -1</clus>
</clustering>
</event>
<event>
 9    1  0.3312826E-006  0.1962844E+03  0.7546771E-02  0.1179767E+00
         -1   -1    0    0    0  501 -0.00000000000E+00  0.00000000000E+00  0.58953295053E+02  0.58953295053E+02  0.00000000000E+00 0.  1.
         21   -1    0    0  501  502  0.00000000000E+00 -0.00000000000E+00 -0.41267559077E+03  0.41267559077E+03  0.00000000000E+00 0.  1.
         23    2    1    2    0    0  0.45897257044E+02 -0.15723380886E+02 -0.70776796920E+02  0.12726610987E+03  0.93986833275E+02 0.  0.
         23    2    1    2    0    0 -0.63833333654E+02 -0.37245674956E+02 -0.10186710921E+03  0.15484547623E+03  0.90212409235E+02 0.  0.
        -13    1    3    3    0    0  0.49039801524E+02  0.85577070291E+01 -0.85325919715E+02  0.98785874791E+02  0.00000000000E+00 0. -1.
         13    1    3    3    0    0 -0.31425444799E+01 -0.24281087915E+02  0.14549122795E+02  0.28480235080E+02  0.00000000000E+00 0.  1.
        -13    1    4    4    0    0  0.51019784460E+01  0.22318941565E+02 -0.35051245171E+02  0.41865918414E+02  0.00000000000E+00 0. -1.
         13    1    4    4    0    0 -0.68935312100E+02 -0.59564616521E+02 -0.66815864043E+02  0.11297955781E+03  0.00000000000E+00 0.  1.
         -1    1    1    2    0  502  0.17936076610E+02  0.52969055842E+02 -0.18107838959E+03  0.18951729973E+03  0.00000000000E+00 0.  1.
<scales pt_clust_5="13000.00000" pt_clust_6="13000.00000" pt_clust_7="13000.00000" pt_clust_8="13000.00000" pt_clust_9="13000.00000"></scales>
<clustering>
<clus scale="   90.212">  7  8 -1 -1</clus>
<clus scale="   55.923">  7  9 -1 -1</clus>
<clus scale="   93.987">  5  6 -1 -1</clus>
<clus scale="  105.770">  1  5  2 -1</clus>
<clus scale="  196.284">  2  5  1 -1</clus>
</clustering>
</event>
<event>
 9    1  0.3312826E-006  0.5075939E+03  0.7546771E-02  0.1064462E+00
         21   -1    0    0  501  502  0.00000000000E+00  0.00000000000E+00  0.10834301026E+03  0.10834301026E+03  0.00000000000E+00 0. -1.
          1   -1    0    0  502    0 -0.00000000000E+00 -0.00000000000E+00 -0.93608313722E+03  0.93608313722E+03  0.00000000000E+00 0. -1.
         23    2    1    2    0    0  0.16773861993E+02 -0.56444530422E+02 -0.61047509288E+02  0.12493217123E+03  0.91727321766E+02 0.  0.
         23    2    1    2    0    0 -0.15435254357E+03 -0.10320038376E+03 -0.64254794703E+03  0.67489983997E+03  0.90260195253E+02 0.  0.
        -11    1    3    3    0    0 -0.18355940250E+02 -0.62764692302E+02 -0.15754135110E+02  0.67264700366E+02  0.00000000000E+00 0. -1.
         11    1    3    3    0    0  0.35129802244E+02  0.63201618803E+01 -0.45293374178E+02  0.57667470868E+02  0.00000000000E+00 0.  1.
        -13    1    4    4    0    0 -0.16248434262E+03 -0.78672231954E+02 -0.55562215999E+03  0.58421440102E+03  0.00000000000E+00 0. -1.
         13    1    4    4    0    0  0.81317990519E+01 -0.24528151806E+02 -0.86925787036E+02  0.90685438956E+02  0.00000000000E+00 0.  1.
          1    1    1    2  501    0  0.13757868158E+03  0.15964491418E+03 -0.12414467065E+03  0.24459413628E+03  0.00000000000E+00 0. -1.
<scales pt_clust_5="13000.00000" pt_clust_6="13000.00000" pt_clust_7="13000.00000" pt_clust_8="13000.00000" pt_clust_9="13000.00000"></scales>
<clustering>
<clus scale="   90.260">  7  8 -1 -1</clus>
<clus scale="   91.727">  5  6 -1 -1</clus>
<clus scale="  109.001">  2  5  1 -1</clus>
<clus scale="  204.079">  7  9 -1 -1</clus>
<clus scale="  507.594">  1  5  2 -1</clus>
</clustering>
</event>
<event>
 9    1  0.3312826E-006  0.3199801E+03  0.7546771E-02  0.1117882E+00
         21   -1    0    0  501  502  0.00000000000E+00  0.00000000000E+00  0.14877596588E+03  0.14877596588E+03  0.00000000000E+00 0.  1.
          2   -1    0    0  502    0 -0.00000000000E+00 -0.00000000000E+00 -0.32394919329E+03  0.32394919329E+03  0.00000000000E+00 0. -1.
         23    2    1    2    0    0 -0.54104238346E+02 -0.77380485894E+01 -0.95788952047E+02  0.14304477500E+03  0.91099606570E+02 0.  0.
         23    2    1    2    0    0  0.15981414089E+03  0.35747537604E+02 -0.10604230936E+03  0.21712033022E+03  0.95277596238E+02 0.  0.
        -11    1    4    4    0    0  0.11297328795E+03  0.56405058855E+02 -0.10760673708E+03  0.16590269534E+03  0.00000000000E+00 0. -1.
         11    1    4    4    0    0  0.46840852940E+02 -0.20657521252E+02  0.15644277210E+01  0.51217634878E+02  0.00000000000E+00 0.  1.
        -13    1    3    3    0    0 -0.19621664362E+02  0.15710344954E+02 -0.98111563213E+02  0.10128032132E+03  0.00000000000E+00 0. -1.
         13    1    3    3    0    0 -0.34482573984E+02 -0.23448393543E+02  0.23226111662E+01  0.41764453677E+02  0.00000000000E+00 0.  1.
          2    1    1    2  501    0 -0.10570990255E+03 -0.28009489014E+02  0.26658033998E+02  0.11256005396E+03  0.00000000000E+00 0. -1.
<scales pt_clust_5="13000.00000" pt_clust_6="13000.00000" pt_clust_7="13000.00000" pt_clust_8="13000.00000" pt_clust_9="13000.00000"></scales>
<clustering>
<clus scale="   91.100">  7  8 -1 -1</clus>
<clus scale="   95.278">  5  6 -1 -1</clus>
<clus scale="  106.237">  2  7  1 -1</clus>
<clus scale="  120.764">  5  9 -1 -1</clus>
<clus scale="  319.980">  1  5  2 -1</clus>
</clustering>
</event>
<event>
 9    1  0.3312826E-006  0.2332585E+03  0.7546771E-02  0.1156363E+00
         -3   -1    0    0    0  501 -0.00000000000E+00  0.00000000000E+00  0.11594670947E+03  0.11594670947E+03  0.00000000000E+00 0.  1.
         21   -1    0    0  501  502  0.00000000000E+00 -0.00000000000E+00 -0.26131434851E+03  0.26131434851E+03  0.00000000000E+00 0.  1.
         23    2    1    2    0    0  0.56312015817E+02 -0.19627776357E+02 -0.11860414861E+02  0.10849775840E+03  0.89859898776E+02 0.  0.
         23    2    1    2    0    0  0.66587780571E+00 -0.20489622675E+02  0.23770654615E+02  0.96739413949E+02  0.91505202910E+02 0.  0.
        -11    1    4    4    0    0 -0.21184043604E+02 -0.38507275123E+02  0.43802597976E+02  0.62050314506E+02  0.00000000000E+00 0.  1.
         11    1    4    4    0    0  0.21849921410E+02  0.18017652447E+02 -0.20031943361E+02  0.34689099443E+02  0.00000000000E+00 0. -1.
        -13    1    3    3    0    0  0.65706514553E+02  0.18715261969E+02 -0.59157175257E+01  0.68575526240E+02  0.00000000000E+00 0. -1.
         13    1    3    3    0    0 -0.93944987357E+01 -0.38343038326E+02 -0.59446973357E+01  0.39922232164E+02  0.00000000000E+00 0.  1.
         -3    1    1    2    0  502 -0.56977893623E+02  0.40117399033E+02 -0.15727787880E+03  0.17202388562E+03  0.00000000000E+00 0.  1.
<scales pt_clust_5="13000.00000" pt_clust_6="13000.00000" pt_clust_7="13000.00000" pt_clust_8="13000.00000" pt_clust_9="13000.00000"></scales>
<clustering>
<clus scale="   89.860">  7  8 -1 -1</clus>
<clus scale="   91.505">  5  6 -1 -1</clus>
<clus scale="   69.684">  5  9 -1 -1</clus>
<clus scale="  107.848">  1  7  2 -1</clus>
<clus scale="  233.259">  2  5  1 -1</clus>
</clustering>
</event>
<event>
 9    1  0.3312826E-006  0.2323492E+03  0.7546771E-02  0.1152403E+00
         21   -1    0    0  501  502  0.00000000000E+00  0.00000000000E+00  0.59068921358E+03  0.59068921358E+03  0.00000000000E+00 0. -1.
          2   -1    0    0  502    0 -0.00000000000E+00 -0.00000000000E+00 -0.53700706661E+02  0.53700706661E+02  0.00000000000E+00 0. -1.
         23    2    1    2    0    0 -0.44670100699E+02 -0.62568868164E+02  0.23078910921E+03  0.26001483756E+03  0.91835840832E+02 0.  0.
         23    2    1    2    0    0 -0.33293586759E+02  0.45388543612E+02  0.51065102010E+02  0.11704194041E+03  0.89008922934E+02 0.  0.
        -11    1    4    4    0    0  0.24480608552E+02  0.36336738553E+02  0.35861390772E+02  0.56618884763E+02  0.00000000000E+00 0.  1.
         11    1    4    4    0    0 -0.57774195311E+02  0.90518050587E+01  0.15203711239E+02  0.60423055650E+02  0.00000000000E+00 0. -1.
        -13    1    3    3    0    0  0.25120620082E+02 -0.69837618892E+01  0.86729273520E+02  0.90563708895E+02  0.00000000000E+00 0.  1.
         13    1    3    3    0    0 -0.69790720781E+02 -0.55585106275E+02  0.14405983569E+03  0.16945112866E+03  0.00000000000E+00 0. -1.
          2    1    1    2  501    0  0.77963687459E+02  0.17180324553E+02  0.25513429570E+03  0.26733314227E+03  0.00000000000E+00 0. -1.
<scales pt_clust_5="13000.00000" pt_clust_6="13000.00000" pt_clust_7="13000.00000" pt_clust_8="13000.00000" pt_clust_9="13000.00000"></scales>
<clustering>
<clus scale="   89.009">  5  6 -1 -1</clus>
<clus scale="   79.834">  5  9 -1 -1</clus>
<clus scale="   91.836">  7  8 -1 -1</clus>
<clus scale="  119.767">  2  7  1 -1</clus>
<clus scale="  232.349">  1  5  2 -1</clus>
</clustering>
</event>
<event>
 9    1  0.3312826E-006  0.1300408E+03  0.7546771E-02  0.1236977E+00
         -4   -1    0    0    0  501 -0.00000000000E+00  0.00000000000E+00  0.69347627790E+03  0.69347627790E+03  0.00000000000E+00 0.  1.
         21   -1    0    0  501  502  0.00000000000E+00 -0.00000000000E+00 -0.20651250376E+02  0.20651250376E+02  0.00000000000E+00 0.  1.
         23    2    1    2    0    0  0.37125445854E+02 -0.27592195313E+02  0.35556577618E+03  0.37125140289E+03  0.96233855729E+02 0.  0.
         23    2    1    2    0    0 -0.89561525681E+01  0.10004781755E+02  0.17533482314E+03  0.19711821129E+03  0.89067281811E+02 0.  0.
        -11    1    3    3    0    0 -0.15135969245E+02  0.23402285930E+02  0.51679599219E+02  0.58715803045E+02  0.00000000000E+00 0. -1.
         11    1    3    3    0    0  0.52261415099E+02 -0.50994481243E+02  0.30388617696E+03  0.31253559984E+03  0.00000000000E+00 0.  1.
        -13    1    4    4    0    0 -0.29965496891E+02 -0.29745783611E+02  0.10984243585E+03  0.11767796463E+03  0.00000000000E+00 0. -1.
         13    1    4    4    0    0  0.21009344323E+02  0.39750565366E+02  0.65492387293E+02  0.79440246659E+02  0.00000000000E+00 0.  1.
         -4    1    1    2    0  502 -0.28169293286E+02  0.17587413558E+02  0.14192442821E+03  0.14575791410E+03  0.00000000000E+00 0.  1.
<scales pt_clust_5="13000.00000" pt_clust_6="13000.00000" pt_clust_7="13000.00000" pt_clust_8="13000.00000" pt_clust_9="13000.00000"></scales>
<clustering>
<clus scale="   89.067">  7  8 -1 -1</clus>
<clus scale="   33.209">  7  9 -1 -1</clus>
<clus scale="   96.234">  5  6 -1 -1</clus>
<clus scale="  106.774">  1  5  2 -1</clus>
<clus scale="  130.041">  2  5  1 -1</clus>
</clustering>
</event>
<event>
 9    1  0.3312826E-006  0.3067502E+03  0.7546771E-02  0.1097266E+00
          1   -1    0    0  502    0 -0.00000000000E+00  0.00000000000E+00  0.70832001822E+03  0.70832001822E+03  0.00000000000E+00 0. -1.
         21   -1    0    0  501  502  0.00000000000E+00 -0.00000000000E+00 -0.98649078509E+02  0.98649078509E+02  0.00000000000E+00 0. -1.
         23    2    1    2    0    0 -0.14561125842E+03 -0.10808822974E+03  0.34896376419E+03  0.40439748104E+03  0.94212047886E+02 0.  0.
         23    2    1    2    0    0  0.33008128177E+01  0.12129955278E+03  0.19184873868E+03  0.24392645722E+03  0.89273182571E+02 0.  0.
        -11    1    3    3    0    0 -0.13805389229E+01 -0.21481475245E+02  0.59259610422E+01  0.22326591336E+02  0.00000000000E+00 0.  1.
         11    1    3    3    0    0 -0.14423071949E+03 -0.86606754500E+02  0.34303780315E+03  0.38207088971E+03  0.00000000000E+00 0. -1.
        -13    1    4    4    0    0 -0.50532832118E+01  0.97484820150E+02  0.71604050604E+02  0.12106182674E+03  0.00000000000E+00 0. -1.
         13    1    4    4    0    0  0.83540960295E+01  0.23814732627E+02  0.12024468808E+03  0.12286463047E+03  0.00000000000E+00 0.  1.
          1    1    1    2  501    0  0.14231044560E+03 -0.13211323033E+02  0.68858436832E+02  0.15864515847E+03  0.00000000000E+00 0. -1.
<scales pt_clust_5="13000.00000" pt_clust_6="13000.00000" pt_clust_7="13000.00000" pt_clust_8="13000.00000" pt_clust_9="13000.00000"></scales>
<clustering>
<clus scale="   89.273">  7  8 -1 -1</clus>
<clus scale="   94.212">  5  6 -1 -1</clus>
<clus scale="  142.922">  7  9 -1 -1</clus>
<clus scale="  204.357">  1  5  2 -1</clus>
<clus scale="  306.750">  2  5  1 -1</clus>
</clustering>
</event>
<event>
 9    1  0.3312826E-006  0.2855659E+03  0.7546771E-02  0.1138770E+00
         21   -1    0    0  501  502  0.00000000000E+00  0.00000000000E+00  0.38699794419E+03  0.38699794419E+03  0.00000000000E+00 0.  1.
         -1   -1    0    0    0  501 -0.00000000000E+00 -0.00000000000E+00 -0.17535943574E+03  0.17535943574E+03  0.00000000000E+00 0.  1.
         23    2    1    2    0    0  0.13746615509E+02  0.18813172693E+02 -0.10373729904E+03  0.13690493159E+03  0.86247482154E+02 0.  0.
         23    2    1    2    0    0  0.48806922577E+02 -0.27126519478E+02  0.33258811269E+01  0.10708597177E+03  0.91314731090E+02 0.  0.
        -11    1    4    4    0    0 -0.27111072305E+02 -0.48383434123E+01  0.47765552202E+01  0.27950586546E+02  0.00000000000E+00 0. -1.
         11    1    4    4    0    0  0.75917994881E+02 -0.22288176065E+02 -0.14506740933E+01  0.79135385224E+02  0.00000000000E+00 0.  1.
        -13    1    3    3    0    0  0.42257296044E+02  0.11270724411E+02 -0.97360006614E+02  0.10673180962E+03  0.00000000000E+00 0.  1.
         13    1    3    3    0    0 -0.28510680535E+02  0.75424482828E+01 -0.63772924238E+01  0.30173121969E+02  0.00000000000E+00 0. -1.
         -1    1    1    2    0  502 -0.62553538086E+02  0.83133467844E+01  0.31204992636E+03  0.31836647657E+03  0.00000000000E+00 0.  1.
<scales pt_clust_5="13000.00000" pt_clust_6="13000.00000" pt_clust_7="13000.00000" pt_clust_8="13000.00000" pt_clust_9="13000.00000"></scales>
<clustering>
<clus scale="   86.247">  7  8 -1 -1</clus>
<clus scale="   89.339">  2  7  1 -1</clus>
<clus scale="   91.315">  5  6 -1 -1</clus>
<clus scale="   62.475">  5  9 -1 -1</clus>
<clus scale="  285.566">  1  5  2 -1</clus>
</clustering>
</event>
<event>
 9    1  0.3312826E-006  0.1271395E+03  0.7546771E-02  0.1243651E+00
          1   -1    0    0  502    0 -0.00000000000E+00  0.00000000000E+00  0.34180260804E+03  0.34180260804E+03  0.00000000000E+00 0. -1.
         21   -1    0    0  501  502  0.00000000000E+00 -0.00000000000E+00 -0.43863619486E+02  0.43863619486E+02  0.00000000000E+00 0.  1.
         23    2    1    2    0    0  0.10936874992E+02  0.28488801328E+02  0.61485125763E+02  0.11719856625E+03  0.94993979837E+02 0.  0.
         23    2    1    2    0    0 -0.28203136658E+02 -0.42575039043E+02  0.20143271427E+03  0.22695830416E+03  0.91251753846E+02 0.  0.
        -13    1    4    4    0    0 -0.86687658963E+01  0.29042469438E+02  0.56046924970E+02  0.63717111767E+02  0.00000000000E+00 0.  1.
         13    1    4    4    0    0 -0.19534370761E+02 -0.71617508482E+02  0.14538578930E+03  0.16324119239E+03  0.00000000000E+00 0. -1.
        -13    1    3    3    0    0  0.44952419908E+02  0.34766678239E+02  0.14134827447E+02  0.58559673140E+02  0.00000000000E+00 0.  1.
         13    1    3    3    0    0 -0.34015544916E+02 -0.62778769109E+01  0.47350298316E+02  0.58638893109E+02  0.00000000000E+00 0. -1.
          1    1    1    2  501    0  0.17266261666E+02  0.14086237716E+02  0.35021148520E+02  0.41509357120E+02  0.00000000000E+00 0. -1.
<scales pt_clust_5="13000.00000" pt_clust_6="13000.00000" pt_clust_7="13000.00000" pt_clust_8="13000.00000" pt_clust_9="13000.00000"></scales>
<clustering>
<clus scale="   91.252">  5  6 -1 -1</clus>
<clus scale="   22.283">  5  9 -1 -1</clus>
<clus scale="   94.994">  7  8 -1 -1</clus>
<clus scale="   99.775">  1  7  2 -1</clus>
<clus scale="  127.140">  2  5  1 -1</clus>
</clustering>
</event>
<event>
 9    1  0.3312826E-006  0.2167105E+03  0.7546771E-02  0.1160194E+00
         21   -1    0    0  501  502  0.00000000000E+00  0.00000000000E+00  0.59037706660E+03  0.59037706660E+03  0.00000000000E+00 0. -1.
          1   -1    0    0  502    0 -0.00000000000E+00 -0.00000000000E+00 -0.23445823683E+03  0.23445823683E+03  0.00000000000E+00 0. -1.
         23    2    1    2    0    0  0.51313353585E+02 -0.64677351686E+02 -0.19628532790E+03  0.23162969943E+03  0.91149150471E+02 0.  0.
         23    2    1    2    0    0 -0.45655293453E+02 -0.28807353504E+02  0.18768676613E+03  0.21684894804E+03  0.94249003442E+02 0.  0.
        -13    1    4    4    0    0 -0.27880555244E+02  0.20802178739E+02  0.17998753461E+02  0.39166454105E+02  0.00000000000E+00 0.  1.
         13    1    4    4    0    0 -0.17774738209E+02 -0.49609532243E+02  0.16968801267E+03  0.17768249393E+03  0.00000000000E+00 0. -1.
        -13    1    3    3    0    0 -0.12082293758E+01 -0.59746880624E+02 -0.14994279978E+03  0.16141249261E+03  0.00000000000E+00 0. -1.
         13    1    3    3    0    0  0.52521582961E+02 -0.49304710613E+01 -0.46342528113E+02  0.70217206819E+02  0.00000000000E+00 0.  1.
          1    1    1    2  501    0 -0.56580601323E+01  0.93484705189E+02  0.36451739154E+03  0.37635665596E+03  0.00000000000E+00 0. -1.
<scales pt_clust_5="13000.00000" pt_clust_6="13000.00000" pt_clust_7="13000.00000" pt_clust_8="13000.00000" pt_clust_9="13000.00000"></scales>
<clustering>
<clus scale="   91.149">  7  8 -1 -1</clus>
<clus scale="   94.249">  5  6 -1 -1</clus>
<clus scale="   93.656">  5  9 -1 -1</clus>
<clus scale="  122.981">  2  7  1 -1</clus>
<clus scale="  216.711">  1  5  2 -1</clus>
</clustering>
</event>
<event>
 9    1  0.3312826E-006  0.2183377E+03  0.7546771E-02  0.1156440E+00
         21   -1    0    0  501  502  0.00000000000E+00  0.00000000000E+00  0.58900597844E+02  0.58900597844E+02  0.00000000000E+00 0.  1.
          1   -1    0    0  502    0 -0.00000000000E+00 -0.00000000000E+00 -0.52012926549E+03  0.52012926549E+03  0.00000000000E+00 0. -1.
         23    2    1    2    0    0  0.95191321819E+02 -0.20455637866E+02 -0.18765856163E+03  0.22901278146E+03  0.88041453006E+02 0.  0.
         23    2    1    2    0    0  0.23479495907E+02  0.16609364558E+02 -0.15298747793E+03  0.18079023119E+03  0.91939010056E+02 0.  0.
        -11    1    4    4    0    0  0.21427924480E+02 -0.34439098173E+02 -0.40869051925E+02  0.57580264291E+02  0.00000000000E+00 0.  1.
         11    1    4    4    0    0  0.20515714263E+01  0.51048462732E+02 -0.11211842601E+03  0.12320996690E+03  0.00000000000E+00 0. -1.
        -13    1    3    3    0    0  0.34831944402E+02 -0.23959627430E+02 -0.13069127998E+02  0.44250765011E+02  0.00000000000E+00 0.  1.
         13    1    3    3    0    0  0.60359377417E+02  0.35039895645E+01 -0.17458943363E+03  0.18476201645E+03  0.00000000000E+00 0. -1.
          1    1    1    2  501    0 -0.11867081773E+03  0.38462733074E+01 -0.12058262808E+03  0.16922685068E+03  0.00000000000E+00 0. -1.
<scales pt_clust_5="13000.00000" pt_clust_6="13000.00000" pt_clust_7="13000.00000" pt_clust_8="13000.00000" pt_clust_9="13000.00000"></scales>
<clustering>
<clus scale="   88.041">  7  8 -1 -1</clus>
<clus scale="   91.939">  5  6 -1 -1</clus>
<clus scale="  118.733">  5  9 -1 -1</clus>
<clus scale="  131.267">  2  7  1 -1</clus>
<clus scale="  218.338">  1  5  2 -1</clus>
</clustering>
</event>
<event>
 9    1  0.3312826E-006  0.2017158E+03  0.7546771E-02  0.1182318E+00
          2   -1    0    0  502    0 -0.00000000000E+00  0.00000000000E+00  0.47816501205E+03  0.47816501205E+03  0.00000000000E+00 0. -1.
         21   -1    0    0  501  502  0.00000000000E+00 -0.00000000000E+00 -0.34805916956E+03  0.34805916956E+03  0.00000000000E+00 0.  1.
         23    2    1    2    0    0  0.14452708708E+02 -0.28677741037E+02  0.44381644370E+03  0.45325823935E+03  0.86247911412E+02 0.  0.
         23    2    1    2    0    0 -0.78041017317E+01 -0.37814243717E+02 -0.28232575941E+03  0.29913914289E+03  0.91025113843E+02 0.  0.
        -11    1    3    3    0    0 -0.61030134339E+01 -0.56230843119E+02  0.24092877849E+03  0.24747895021E+03  0.00000000000E+00 0. -1.
         11    1    3    3    0    0  0.20555722141E+02  0.27553102082E+02  0.20288766521E+03  0.20577928914E+03  0.00000000000E+00 0.  1.
        -11    1    4    4    0    0 -0.42008333715E+02 -0.37668516628E+02 -0.11196474327E+03  0.12537831145E+03  0.00000000000E+00 0. -1.
         11    1    4    4    0    0  0.34204231984E+02 -0.14572708864E+00 -0.17036101614E+03  0.17376083144E+03  0.00000000000E+00 0.  1.
          2    1    1    2  501    0 -0.66486069759E+01  0.66491984754E+02 -0.31384841799E+02  0.73826799375E+02  0.00000000000E+00 0. -1.
<scales pt_clust_5="13000.00000" pt_clust_6="13000.00000" pt_clust_7="13000.00000" pt_clust_8="13000.00000" pt_clust_9="13000.00000"></scales>
<clustering>
<clus scale="   86.248">  5  6 -1 -1</clus>
<clus scale="   91.025">  7  8 -1 -1</clus>
<clus scale="   66.824">  7  9 -1 -1</clus>
<clus scale="   92.033">  1  5  2 -1</clus>
<clus scale="  201.716">  2  5  1 -1</clus>
</clustering>
</event>
<event>
 9    1  0.3312826E-006  0.2998675E+03  0.7546771E-02  0.1126781E+00
         21   -1    0    0  501  502  0.00000000000E+00  0.00000000000E+00  0.48211201062E+02  0.48211201062E+02  0.00000000000E+00 0. -1.
          1   -1    0    0  502    0 -0.00000000000E+00 -0.00000000000E+00 -0.89127591735E+03  0.89127591735E+03  0.00000000000E+00 0. -1.
         23    2    1    2    0    0  0.25776429251E+02 -0.17553558047E+02 -0.32312219980E+03  0.33926988234E+03  0.98608038998E+02 0.  0.
         23    2    1    2    0    0  0.11385175842E+03  0.37455081185E+02 -0.33695864670E+03  0.36918650647E+03  0.91610266759E+02 0.  0.
        -11    1    4    4    0    0  0.75943714988E+02 -0.16545710119E+02 -0.12498087939E+03  0.14717822047E+03  0.00000000000E+00 0.  1.
         11    1    4    4    0    0  0.37908043431E+02  0.54000791304E+02 -0.21197776731E+03  0.22200828600E+03  0.00000000000E+00 0. -1.
        -13    1    3    3    0    0  0.65409886209E+01  0.41024420783E+02 -0.11926452630E+03  0.12629257645E+03  0.00000000000E+00 0.  1.
         13    1    3    3    0    0  0.19235440630E+02 -0.58577978829E+02 -0.20385767350E+03  0.21297730589E+03  0.00000000000E+00 0. -1.
          1    1    1    2  501    0 -0.13962818767E+03 -0.19901523139E+02 -0.18298386979E+03  0.23103072960E+03  0.00000000000E+00 0. -1.
<scales pt_clust_5="13000.00000" pt_clust_6="13000.00000" pt_clust_7="13000.00000" pt_clust_8="13000.00000" pt_clust_9="13000.00000"></scales>
<clustering>
<clus scale="   91.610">  5  6 -1 -1</clus>
<clus scale="   98.608">  7  8 -1 -1</clus>
<clus scale="  103.422">  2  7  1 -1</clus>
<clus scale="  132.751">  5  9 -1 -1</clus>
<clus scale="  299.867">  1  5  2 -1</clus>
</clustering>
</event>
<event>
 9    1  0.3312826E-006  0.3534043E+03  0.7546771E-02  0.1103123E+00
         21   -1    0    0  501  502  0.00000000000E+00  0.00000000000E+00  0.52944073581E+03  0.52944073581E+03  0.00000000000E+00 0.  1.
          2   -1    0    0  502    0 -0.00000000000E+00 -0.00000000000E+00 -0.10352833003E+03  0.10352833003E+03  0.00000000000E+00 0. -1.
         23    2    1    2    0    0  0.64847278937E+02 -0.89610042254E+01  0.10129322184E+03  0.15310221416E+03  0.94310667530E+02 0.  0.
         23    2    1    2    0    0  0.26272823742E+02  0.33567965245E+02 -0.35207722033E+02  0.10786715018E+03  0.92621103636E+02 0.  0.
        -11    1    3    3    0    0  0.52024294603E+02 -0.46070360229E+02  0.86937879144E+02  0.11129779940E+03  0.00000000000E+00 0.  1.
         11    1    3    3    0    0  0.12822984334E+02  0.37109356004E+02  0.14355342691E+02  0.41804414767E+02  0.00000000000E+00 0. -1.
        -11    1    4    4    0    0  0.15911480873E+02 -0.30594229091E+02 -0.11797098395E+01  0.34504692327E+02  0.00000000000E+00 0.  1.
         11    1    4    4    0    0  0.10361342869E+02  0.64162194337E+02 -0.34028012193E+02  0.73362457851E+02  0.00000000000E+00 0. -1.
          2    1    1    2  501    0 -0.91120102680E+02 -0.24606961020E+02  0.35982690598E+03  0.37199970149E+03  0.00000000000E+00 0. -1.
<scales pt_clust_5="13000.00000" pt_clust_6="13000.00000" pt_clust_7="13000.00000" pt_clust_8="13000.00000" pt_clust_9="13000.00000"></scales>
<clustering>
<clus scale="   92.621">  7  8 -1 -1</clus>
<clus scale="   94.311">  5  6 -1 -1</clus>
<clus scale="   94.384">  7  9 -1 -1</clus>
<clus scale="  114.804">  2  5  1 -1</clus>
<clus scale="  353.404">  1  5  2 -1</clus>
</clustering>
</event>
<event>
 9    1  0.3312826E-006  0.6953374E+03  0.7546771E-02  0.1028223E+00
         21   -1    0    0  501  502  0.00000000000E+00  0.00000000000E+00  0.75626027928E+03  0.75626027928E+03  0.00000000000E+00 0. -1.
         -1   -1    0    0    0  501 -0.00000000000E+00 -0.00000000000E+00 -0.24176710370E+03  0.24176710370E+03  0.00000000000E+00 0.  1.
         23    2    1    2    0    0 -0.17111571771E+02 -0.59116185974E+02 -0.18936557531E+02  0.12164764858E+03  0.10320866175E+03 0.  0.
         23    2    1    2    0    0 -0.16040643733E+02 -0.30958820789E+03  0.21706318070E+03  0.38941998767E+03  0.91811446256E+02 0.  0.
        -11    1    3    3    0    0 -0.60509002466E+02 -0.35117774358E+02 -0.17109155332E+02  0.72023056388E+02  0.00000000000E+00 0. -1.
         11    1    3    3    0    0  0.43397430696E+02 -0.23998411616E+02 -0.18274021983E+01  0.49624592189E+02  0.00000000000E+00 0.  1.
        -13    1    4    4    0    0 -0.48471683752E+02 -0.21786820686E+03  0.12673679054E+03  0.25666763287E+03  0.00000000000E+00 0. -1.
         13    1    4    4    0    0  0.32431040019E+02 -0.91720001033E+02  0.90326390153E+02  0.13275235480E+03  0.00000000000E+00 0.  1.
         -1    1    1    2    0  502  0.33152215504E+02  0.36870439387E+03  0.31636655242E+03  0.48695974674E+03  0.00000000000E+00 0.  1.
<scales pt_clust_5="13000.00000" pt_clust_6="13000.00000" pt_clust_7="13000.00000" pt_clust_8="13000.00000" pt_clust_9="13000.00000"></scales>
<clustering>
<clus scale="   91.811">  7  8 -1 -1</clus>
<clus scale="  103.209">  5  6 -1 -1</clus>
<clus scale="  120.165">  2  5  1 -1</clus>
<clus scale="  340.192">  7  9 -1 -1</clus>
<clus scale="  695.337">  1  5  2 -1</clus>
</clustering>
</event>
<event>
 9    1  0.3312826E-006  0.1660535E+03  0.7546771E-02  0.1192489E+00
         21   -1    0    0  501  502  0.00000000000E+00  0.00000000000E+00  0.65995991795E+02  0.65995991795E+02  0.00000000000E+00 0. -1.
          1   -1    0    0  502    0 -0.00000000000E+00 -0.00000000000E+00 -0.35713029755E+03  0.35713029755E+03  0.00000000000E+00 0. -1.
         23    2    1    2    0    0 -0.60758060019E+02  0.75376640313E+02 -0.18124133546E+03  0.22400262189E+03  0.89194019823E+02 0.  0.
         23    2    1    2    0    0  0.67192185740E+02 -0.26110433402E+02 -0.69448378585E+02  0.13505868391E+03  0.90670978024E+02 0.  0.
        -13    1    4    4    0    0  0.34663151139E+02 -0.13834660095E+02 -0.88045494361E+02  0.95629184583E+02  0.00000000000E+00 0.  1.
         13    1    4    4    0    0  0.32529034601E+02 -0.12275773307E+02  0.18597115776E+02  0.39429499331E+02  0.00000000000E+00 0. -1.
        -13    1    3    3    0    0 -0.50598315855E+02  0.14014270960E+02 -0.29996424466E+02  0.60467965392E+02  0.00000000000E+00 0.  1.
         13    1    3    3    0    0 -0.10159744163E+02  0.61362369354E+02 -0.15124491100E+03  0.16353465650E+03  0.00000000000E+00 0. -1.
          1    1    1    2  501    0 -0.64341257211E+01 -0.49266206911E+02 -0.40444591701E+02  0.64064983533E+02  0.00000000000E+00 0. -1.
<scales pt_clust_5="13000.00000" pt_clust_6="13000.00000" pt_clust_7="13000.00000" pt_clust_8="13000.00000" pt_clust_9="13000.00000"></scales>
<clustering>
<clus scale="   89.194">  7  8 -1 -1</clus>
<clus scale="   90.671">  5  6 -1 -1</clus>
<clus scale="   49.685">  5  9 -1 -1</clus>
<clus scale="  131.639">  2  7  1 -1</clus>
<clus scale="  166.054">  1  5  2 -1</clus>
</clustering>
</event>
<event>
 9    1  0.3312826E-006  0.4955312E+03  0.7546771E-02  0.1072811E+00
         21   -1    0    0  501  502  0.00000000000E+00  0.00000000000E+00  0.87446560729E+02  0.87446560729E+02  0.00000000000E+00 0. -1.
          1   -1    0    0  502    0 -0.00000000000E+00 -0.00000000000E+00 -0.10544760223E+04  0.10544760223E+04  0.00000000000E+00 0. -1.
         23    2    1    2    0    0 -0.90408467699E+01 -0.17816776805E+02 -0.27825176253E+03  0.29341455696E+03  0.90933406631E+02 0.  0.
         23    2    1    2    0    0  0.12940759287E+01  0.12367091883E+03 -0.72135533773E+03  0.73748363956E+03  0.90732709369E+02 0.  0.
        -11    1    4    4    0    0  0.41802192428E+02  0.30567620625E+02 -0.23319522646E+03  0.23887615278E+03  0.00000000000E+00 0.  1.
         11    1    4    4    0    0 -0.40508116499E+02  0.93103298209E+02 -0.48816011127E+03  0.49860748678E+03  0.00000000000E+00 0. -1.
        -13    1    3    3    0    0 -0.43615672558E+02 -0.30654200628E+02 -0.19873546884E+03  0.20576149660E+03  0.00000000000E+00 0. -1.
         13    1    3    3    0    0  0.34574825789E+02  0.12837423823E+02 -0.79516293692E+02  0.87653060364E+02  0.00000000000E+00 0.  1.
          1    1    1    2  501    0  0.77467708412E+01 -0.10585414203E+03  0.32577638735E+02  0.11102438646E+03  0.00000000000E+00 0. -1.
<scales pt_clust_5="13000.00000" pt_clust_6="13000.00000" pt_clust_7="13000.00000" pt_clust_8="13000.00000" pt_clust_9="13000.00000"></scales>
<clustering>
<clus scale="   90.733">  5  6 -1 -1</clus>
<clus scale="   90.933">  7  8 -1 -1</clus>
<clus scale="   93.102">  2  7  1 -1</clus>
<clus scale="  107.012">  5  9 -1 -1</clus>
<clus scale="  495.531">  1  5  2 -1</clus>
</clustering>
</event>
<event>
 9    1  0.3312826E-006  0.1596657E+03  0.7546771E-02  0.1208541E+00
         -3   -1    0    0    0  501 -0.00000000000E+00  0.00000000000E+00  0.16174072541E+03  0.16174072541E+03  0.00000000000E+00 0.  1.
         21   -1    0    0  501  502  0.00000000000E+00 -0.00000000000E+00 -0.10797109501E+03  0.10797109501E+03  0.00000000000E+00 0.  1.
         23    2    1    2    0    0  0.24823850957E+02 -0.45435324403E+02  0.17463488431E+02  0.10597033343E+03  0.90797278920E+02 0.  0.
         23    2    1    2    0    0  0.13369458374E+02  0.10133419992E+02  0.53038860604E+02  0.10910690815E+03  0.93860364660E+02 0.  0.
        -11    1    4    4    0    0 -0.31713090827E+02  0.31992020725E+02  0.21600435904E+02  0.49957865758E+02  0.00000000000E+00 0. -1.
         11    1    4    4    0    0  0.45082549201E+02 -0.21858600732E+02  0.31438424701E+02  0.59149042394E+02  0.00000000000E+00 0.  1.
        -11    1    3    3    0    0  0.44567190852E+02 -0.60868619216E+02  0.25532268391E+02  0.79643706813E+02  0.00000000000E+00 0.  1.
         11    1    3    3    0    0 -0.19743339895E+02  0.15433294814E+02 -0.80687799607E+01  0.26326626618E+02  0.00000000000E+00 0. -1.
         -3    1    1    2    0  502 -0.38193309331E+02  0.35301904410E+02 -0.16732718633E+02  0.54634578844E+02  0.00000000000E+00 0.  1.
<scales pt_clust_5="13000.00000" pt_clust_6="13000.00000" pt_clust_7="13000.00000" pt_clust_8="13000.00000" pt_clust_9="13000.00000"></scales>
<clustering>
<clus scale="   90.797">  7  8 -1 -1</clus>
<clus scale="   93.860">  5  6 -1 -1</clus>
<clus scale="   52.009">  5  9 -1 -1</clus>
<clus scale="  104.522">  1  7  2 -1</clus>
<clus scale="  159.666">  2  5  1 -1</clus>
</clustering>
</event>
<event>
 9    1  0.3312826E-006  0.4484191E+03  0.7546771E-02  0.1075911E+00
          2   -1    0    0  502    0 -0.00000000000E+00  0.00000000000E+00  0.22135631926E+03  0.22135631926E+03  0.00000000000E+00 0. -1.
         21   -1    0    0  501  502  0.00000000000E+00 -0.00000000000E+00 -0.37580673778E+03  0.37580673778E+03  0.00000000000E+00 0. -1.
         23    2    1    2    0    0 -0.22313294571E+02 -0.58828597557E+02 -0.85042207066E+02  0.14340408154E+03  0.96818730695E+02 0.  0.
         23    2    1    2    0    0  0.95391742659E+02  0.90642602949E+02  0.15021443019E+03  0.22012101789E+03  0.92591692077E+02 0.  0.
        -11    1    4    4    0    0  0.27819972373E+02  0.15428823524E+02 -0.75888153431E+01  0.32704580360E+02  0.00000000000E+00 0.  1.
         11    1    4    4    0    0  0.67571770285E+02  0.75213779425E+02  0.15780324553E+03  0.18741643753E+03  0.00000000000E+00 0. -1.
        -13    1    3    3    0    0  0.10769026291E+02 -0.74948332157E+02 -0.71643495939E+02  0.10424017906E+03  0.00000000000E+00 0.  1.
         13    1    3    3    0    0 -0.33082320862E+02  0.16119734600E+02 -0.13398711127E+02  0.39163902474E+02  0.00000000000E+00 0. -1.
          2    1    1    2  501    0 -0.73078448088E+02 -0.31814005392E+02 -0.21962264165E+03  0.23363795762E+03  0.00000000000E+00 0. -1.
<scales pt_clust_5="13000.00000" pt_clust_6="13000.00000" pt_clust_7="13000.00000" pt_clust_8="13000.00000" pt_clust_9="13000.00000"></scales>
<clustering>
<clus scale="   92.592">  5  6 -1 -1</clus>
<clus scale="   79.703">  5  9 -1 -1</clus>
<clus scale="   96.819">  7  8 -1 -1</clus>
<clus scale="  115.467">  1  7  2 -1</clus>
<clus scale="  448.419">  2  5  1 -1</clus>
</clustering>
</event>
<event>
 9    1  0.3312826E-006  0.2130074E+03  0.7546771E-02  0.1165518E+00
         -3   -1    0    0    0  501 -0.00000000000E+00  0.00000000000E+00  0.24254929640E+03  0.24254929640E+03  0.00000000000E+00 0.  1.
         21   -1    0    0  501  502  0.00000000000E+00 -0.00000000000E+00 -0.16061989867E+03  0.16061989867E+03  0.00000000000E+00 0.  1.
         23    2    1    2    0    0  0.60904092981E+02  0.54153504077E+02 -0.76512718303E+02  0.13769592928E+03  0.80399392615E+02 0.  0.
         23    2    1    2    0    0  0.39593079335E+02 -0.26337609072E+02  0.47218192800E+02  0.11301288813E+03  0.91000404229E+02 0.  0.
        -11    1    3    3    0    0 -0.78722072587E+01  0.43919734352E+02 -0.35038918947E+02  0.56733064025E+02  0.00000000000E+00 0. -1.
         11    1    3    3    0    0  0.68776300240E+02  0.10233769725E+02 -0.41473799356E+02  0.80962865256E+02  0.00000000000E+00 0.  1.
        -13    1    4    4    0    0 -0.11530130230E+02  0.24473724172E+02  0.38746637644E+00  0.27056555733E+02  0.00000000000E+00 0. -1.
         13    1    4    4    0    0  0.51123209565E+02 -0.50811333244E+02  0.46830726423E+02  0.85956332399E+02  0.00000000000E+00 0.  1.
         -3    1    1    2    0  502 -0.10049717232E+03 -0.27815895005E+02  0.11122392323E+03  0.15246037766E+03  0.00000000000E+00 0.  1.
<scales pt_clust_5="13000.00000" pt_clust_6="13000.00000" pt_clust_7="13000.00000" pt_clust_8="13000.00000" pt_clust_9="13000.00000"></scales>
<clustering>
<clus scale="   80.399">  5  6 -1 -1</clus>
<clus scale="   91.000">  7  8 -1 -1</clus>
<clus scale="  104.276">  7  9 -1 -1</clus>
<clus scale="  114.481">  1  5  2 -1</clus>
<clus scale="  213.007">  2  5  1 -1</clus>
</clustering>
</event>
<event>
 9    1  0.3312826E-006  0.1804470E+03  0.7546771E-02  0.1192143E+00
          3   -1    0    0  502    0 -0.00000000000E+00  0.00000000000E+00  0.56726133080E+02  0.56726133080E+02  0.00000000000E+00 0. -1.
         21   -1    0    0  501  502  0.00000000000E+00 -0.00000000000E+00 -0.39463179369E+03  0.39463179369E+03  0.00000000000E+00 0. -1.
         23    2    1    2    0    0 -0.40337536726E+02 -0.20314638111E+02 -0.58570515464E+02  0.11880832115E+03  0.92979086368E+02 0.  0.
         23    2    1    2    0    0  0.63425059083E+02  0.39460628165E+02 -0.11237195007E+03  0.16291378648E+03  0.91288374775E+02 0.  0.
        -13    1    3    3    0    0 -0.70733788080E+02 -0.16798210785E+02 -0.39241039901E+02  0.82615421528E+02  0.00000000000E+00 0. -1.
         13    1    3    3    0    0  0.30396251353E+02 -0.35164273254E+01 -0.19329475563E+02  0.36192899622E+02  0.00000000000E+00 0.  1.
        -13    1    4    4    0    0 -0.13307570034E+02 -0.17480973103E+02 -0.15814375687E+02  0.27069730682E+02  0.00000000000E+00 0.  1.
         13    1    4    4    0    0  0.76732629117E+02  0.56941601268E+02 -0.96557574378E+02  0.13584405580E+03  0.00000000000E+00 0. -1.
          3    1    1    2  501    0 -0.23087522357E+02 -0.19145990055E+02 -0.16696319508E+03  0.16963581914E+03  0.00000000000E+00 0. -1.
<scales pt_clust_5="13000.00000" pt_clust_6="13000.00000" pt_clust_7="13000.00000" pt_clust_8="13000.00000" pt_clust_9="13000.00000"></scales>
<clustering>
<clus scale="   91.288">  7  8 -1 -1</clus>
<clus scale="   29.993">  7  9 -1 -1</clus>
<clus scale="   92.979">  5  6 -1 -1</clus>
<clus scale="  103.368">  1  5  2 -1</clus>
<clus scale="  180.447">  2  5  1 -1</clus>
</clustering>
</event>
<event>
 9    1  0.3312826E-006  0.2613565E+03  0.7546771E-02  0.1145458E+00
         -3   -1    0    0    0  501 -0.00000000000E+00  0.00000000000E+00  0.12250104344E+03  0.12250104344E+03  0.00000000000E+00 0.  1.
         21   -1    0    0  501  502  0.00000000000E+00 -0.00000000000E+00 -0.28443417917E+03  0.28443417917E+03  0.00000000000E+00 0.  1.
         23    2    1    2    0    0 -0.25415094853E+02  0.17346379959E+02 -0.94472114783E+02  0.13701264159E+03  0.94343306811E+02 0.  0.
         23    2    1    2    0    0  0.60154151889E+02 -0.56674046407E+02  0.59526472646E+02  0.13252064886E+03  0.84781200168E+02 0.  0.
        -11    1    4    4    0    0  0.62187556278E+02 -0.19022930441E+02  0.36789151630E+01  0.65135999686E+02  0.00000000000E+00 0. -1.
         11    1    4    4    0    0 -0.20334043892E+01 -0.37651115966E+02  0.55847557483E+02  0.67384649170E+02  0.00000000000E+00 0.  1.
        -11    1    3    3    0    0  0.89917745143E+01  0.50572237179E+02 -0.50818511850E+02  0.72255963968E+02  0.00000000000E+00 0.  1.
         11    1    3    3    0    0 -0.34406869368E+02 -0.33225857221E+02 -0.43653602932E+02  0.64756677623E+02  0.00000000000E+00 0. -1.
         -3    1    1    2    0  502 -0.34739057035E+02  0.39327666448E+02 -0.12698749360E+03  0.13740193217E+03  0.00000000000E+00 0.  1.
<scales pt_clust_5="13000.00000" pt_clust_6="13000.00000" pt_clust_7="13000.00000" pt_clust_8="13000.00000" pt_clust_9="13000.00000"></scales>
<clustering>
<clus scale="   84.781">  5  6 -1 -1</clus>
<clus scale="   52.474">  5  9 -1 -1</clus>
<clus scale="   94.343">  7  8 -1 -1</clus>
<clus scale="   99.235">  1  7  2 -1</clus>
<clus scale="  261.356">  2  5  1 -1</clus>
</clustering>
</event>
<event>
 9    1  0.3312826E-006  0.3449242E+03  0.7546771E-02  0.1103755E+00
          1   -1    0    0  502    0 -0.00000000000E+00  0.00000000000E+00  0.88952029839E+03  0.88952029839E+03  0.00000000000E+00 0. -1.
         21   -1    0    0  501  502  0.00000000000E+00 -0.00000000000E+00 -0.76332724267E+02  0.76332724267E+02  0.00000000000E+00 0. -1.
         23    2    1    2    0    0  0.76870250364E+02 -0.13112024123E+02  0.55931746579E+02  0.13374179834E+03  0.93153356252E+02 0.  0.
         23    2    1    2    0    0 -0.62094883063E+02 -0.13784959224E+03  0.53829782531E+03  0.56574619689E+03  0.86289779083E+02 0.  0.
        -13    1    3    3    0    0  0.37979802899E+02 -0.51876439998E+02  0.42944084436E+02  0.77316394401E+02  0.00000000000E+00 0. -1.
         13    1    3    3    0    0  0.38890447465E+02  0.38764415875E+02  0.12987662143E+02  0.56425403942E+02  0.00000000000E+00 0.  1.
        -13    1    4    4    0    0 -0.82592937279E+02 -0.91074389316E+02  0.37326101225E+03  0.39298844886E+03  0.00000000000E+00 0. -1.
         13    1    4    4    0    0  0.20498054217E+02 -0.46775202926E+02  0.16503681306E+03  0.17275774802E+03  0.00000000000E+00 0.  1.
          1    1    1    2  501    0 -0.14775367302E+02  0.15096161637E+03  0.21895800224E+03  0.26636502743E+03  0.00000000000E+00 0. -1.
<scales pt_clust_5="13000.00000" pt_clust_6="13000.00000" pt_clust_7="13000.00000" pt_clust_8="13000.00000" pt_clust_9="13000.00000"></scales>
<clustering>
<clus scale="   86.290">  7  8 -1 -1</clus>
<clus scale="   93.153">  5  6 -1 -1</clus>
<clus scale="  121.485">  1  5  2 -1</clus>
<clus scale="  147.215">  7  9 -1 -1</clus>
<clus scale="  344.924">  2  5  1 -1</clus>
</clustering>
</event>
<event>
 9    1  0.3312826E-006  0.2562090E+03  0.7546771E-02  0.1132551E+00
          1   -1    0    0  502    0 -0.00000000000E+00  0.00000000000E+00  0.33551561141E+03  0.33551561141E+03  0.00000000000E+00 0. -1.
         21   -1    0    0  501  502  0.00000000000E+00 -0.00000000000E+00 -0.16789706679E+03  0.16789706679E+03  0.00000000000E+00 0. -1.
         23    2    1    2    0    0 -0.17783964029E+02 -0.10904938078E+03  0.19869555554E+03  0.24532580672E+03  0.92178038752E+02 0.  0.
         23    2    1    2    0    0  0.81049776706E+02 -0.86567470133E+01 -0.26607674727E+02  0.12438096084E+03  0.90103548722E+02 0.  0.
        -11    1    3    3    0    0 -0.47441092745E+02 -0.23156590914E+02  0.66384229743E+02  0.84815982822E+02  0.00000000000E+00 0.  1.
         11    1    3    3    0    0  0.29657128716E+02 -0.85892789869E+02  0.13231132579E+03  0.16050982390E+03  0.00000000000E+00 0. -1.
        -13    1    4    4    0    0  0.53033498417E+02 -0.47470297402E+02 -0.35909224821E+01  0.71266231934E+02  0.00000000000E+00 0. -1.
         13    1    4    4    0    0  0.28016278289E+02  0.38813550388E+02 -0.23016752245E+02  0.53114728906E+02  0.00000000000E+00 0.  1.
          1    1    1    2  501    0 -0.63265812677E+02  0.11770612780E+03 -0.44693361938E+01  0.13370591064E+03  0.00000000000E+00 0. -1.
<scales pt_clust_5="13000.00000" pt_clust_6="13000.00000" pt_clust_7="13000.00000" pt_clust_8="13000.00000" pt_clust_9="13000.00000"></scales>
<clustering>
<clus scale="   90.104">  7  8 -1 -1</clus>
<clus scale="   92.178">  5  6 -1 -1</clus>
<clus scale="  133.631">  7  9 -1 -1</clus>
<clus scale="  143.892">  1  5  2 -1</clus>
<clus scale="  256.209">  2  5  1 -1</clus>
</clustering>
</event>
<event>
 9    1  0.3312826E-006  0.2344349E+03  0.7546771E-02  0.1135202E+00
         21   -1    0    0  501  502  0.00000000000E+00  0.00000000000E+00  0.95443717749E+02  0.95443717749E+02  0.00000000000E+00 0.  1.
         -4   -1    0    0    0  501 -0.00000000000E+00 -0.00000000000E+00 -0.65121086860E+03  0.65121086860E+03  0.00000000000E+00 0.  1.
         23    2    1    2    0    0  0.11616396076E+03  0.95554612380E+02 -0.46155956133E+03  0.49399913604E+03  0.91505016376E+02 0.  0.
         23    2    1    2    0    0 -0.39799789024E+02 -0.19981228631E+02 -0.10536546815E+03  0.14464007496E+03  0.88518905895E+02 0.  0.
        -11    1    4    4    0    0 -0.65296790698E+02 -0.29059526334E+02 -0.69332509836E+02  0.99574714995E+02  0.00000000000E+00 0. -1.
         11    1    4    4    0    0  0.25497001674E+02  0.90782977027E+01 -0.36032958318E+02  0.45065359964E+02  0.00000000000E+00 0.  1.
        -13    1    3    3    0    0 -0.68367436824E+01  0.31622696824E+02 -0.14249573534E+03  0.14612245074E+03  0.00000000000E+00 0. -1.
         13    1    3    3    0    0  0.12300070445E+03  0.63931915556E+02 -0.31906382599E+03  0.34787668530E+03  0.00000000000E+00 0.  1.
         -4    1    1    2    0  502 -0.76364171740E+02 -0.75573383749E+02  0.11157878635E+02  0.10801537535E+03  0.00000000000E+00 0.  1.
<scales pt_clust_5="13000.00000" pt_clust_6="13000.00000" pt_clust_7="13000.00000" pt_clust_8="13000.00000" pt_clust_9="13000.00000"></scales>
<clustering>
<clus scale="   88.519">  5  6 -1 -1</clus>
<clus scale="   91.505">  7  8 -1 -1</clus>
<clus scale="  107.438">  5  9 -1 -1</clus>
<clus scale="  176.062">  2  7  1 -1</clus>
<clus scale="  234.435">  1  5  2 -1</clus>
</clustering>
</event>
<event>
 9    1  0.3312826E-006  0.3205375E+03  0.7546771E-02  0.1110862E+00
         -3   -1    0    0    0  501 -0.00000000000E+00  0.00000000000E+00  0.48009504651E+02  0.48009504651E+02  0.00000000000E+00 0.  1.
         21   -1    0    0  501  502  0.00000000000E+00 -0.00000000000E+00 -0.16374067403E+04  0.16374067403E+04  0.00000000000E+00 0.  1.
         23    2    1    2    0    0 -0.65572741900E+02  0.57010631423E+02 -0.97495333671E+02  0.15946880224E+03  0.91514819693E+02 0.  0.
         23    2    1    2    0    0 -0.82976985443E+01  0.93903289390E+02 -0.39342055649E+03  0.41468999286E+03  0.91111889195E+02 0.  0.
        -11    1    3    3    0    0 -0.36563046766E+02  0.64709458858E+02 -0.20906801240E+02  0.77209227380E+02  0.00000000000E+00 0.  1.
         11    1    3    3    0    0 -0.29009695134E+02 -0.76988274347E+01 -0.76588532431E+02  0.82259574856E+02  0.00000000000E+00 0. -1.
        -13    1    4    4    0    0  0.34202357361E+02  0.77974658880E+01 -0.10515185319E+03  0.11084905932E+03  0.00000000000E+00 0. -1.
         13    1    4    4    0    0 -0.42500055905E+02  0.86105823502E+02 -0.28826870330E+03  0.30384093354E+03  0.00000000000E+00 0.  1.
         -3    1    1    2    0  502  0.73870440444E+02 -0.15091392081E+03 -0.10984813454E+04  0.11112574498E+04  0.00000000000E+00 0.  1.
<scales pt_clust_5="13000.00000" pt_clust_6="13000.00000" pt_clust_7="13000.00000" pt_clust_8="13000.00000" pt_clust_9="13000.00000"></scales>
<clustering>
<clus scale="   91.112">  7  8 -1 -1</clus>
<clus scale="   91.515">  5  6 -1 -1</clus>
<clus scale="  126.194">  1  5  2 -1</clus>
<clus scale="  138.572">  7  9 -1 -1</clus>
<clus scale="  320.538">  2  5  1 -1</clus>
</clustering>
</event>
<event>
 9    1  0.3312826E-006  0.2488070E+03  0.7546771E-02  0.1149656E+00
         21   -1    0    0  501  502  0.00000000000E+00  0.00000000000E+00  0.10796669396E+03  0.10796669396E+03  0.00000000000E+00 0.  1.
         -1   -1    0    0    0  501 -0.00000000000E+00 -0.00000000000E+00 -0.36274058560E+03  0.36274058560E+03  0.00000000000E+00 0.  1.
         23    2    1    2    0    0 -0.62895299207E+00  0.47782569623E+02  0.13336594302E+02  0.10493661393E+03  0.92467608676E+02 0.  0.
         23    2    1    2    0    0  0.65711987921E+02  0.56300459134E+02 -0.13722781074E+03  0.18632888404E+03  0.91647007222E+02 0.  0.
        -13    1    4    4    0    0  0.29234892831E+02  0.62187085249E+02 -0.33959756462E+02  0.76649707042E+02  0.00000000000E+00 0.  1.
         13    1    4    4    0    0  0.36477095090E+02 -0.58866261153E+01 -0.10326805428E+03  0.10967917700E+03  0.00000000000E+00 0. -1.
        -13    1    3    3    0    0  0.44660245394E+02  0.34125165128E+02  0.12729660960E+02  0.57629061088E+02  0.00000000000E+00 0.  1.
         13    1    3    3    0    0 -0.45289198386E+02  0.13657404495E+02  0.60693334199E+00  0.47307552844E+02  0.00000000000E+00 0. -1.
         -1    1    1    2    0  502 -0.65083034929E+02 -0.10408302876E+03 -0.13088267520E+03  0.17944178159E+03  0.00000000000E+00 0.  1.
<scales pt_clust_5="13000.00000" pt_clust_6="13000.00000" pt_clust_7="13000.00000" pt_clust_8="13000.00000" pt_clust_9="13000.00000"></scales>
<clustering>
<clus scale="   91.647">  5  6 -1 -1</clus>
<clus scale="   92.468">  7  8 -1 -1</clus>
<clus scale="  104.086">  2  7  1 -1</clus>
<clus scale="  103.860">  5  9 -1 -1</clus>
<clus scale="  248.807">  1  5  2 -1</clus>
</clustering>
</event>
<event>
 9    1  0.3312826E-006  0.2246036E+03  0.7546771E-02  0.1142808E+00
         21   -1    0    0  501  502  0.00000000000E+00  0.00000000000E+00  0.27259244812E+03  0.27259244812E+03  0.00000000000E+00 0. -1.
          2   -1    0    0  502    0 -0.00000000000E+00 -0.00000000000E+00 -0.17519499214E+03  0.17519499214E+03  0.00000000000E+00 0. -1.
         23    2    1    2    0    0 -0.39032345817E+01 -0.13723030133E+03 -0.56046031865E+02  0.17577328235E+03  0.94380603168E+02 0.  0.
         23    2    1    2    0    0  0.27034662713E+02  0.11699253124E+02  0.80350805954E+02  0.12492354918E+03  0.91004920807E+02 0.  0.
        -11    1    3    3    0    0  0.44313700813E+01 -0.74352646051E+02 -0.78758882781E+02  0.10840163575E+03  0.00000000000E+00 0. -1.
         11    1    3    3    0    0 -0.83346046630E+01 -0.62877655283E+02  0.22712850916E+02  0.67371646600E+02  0.00000000000E+00 0.  1.
        -13    1    4    4    0    0  0.48869076294E+02  0.97112178401E+01  0.94534673381E+01  0.50713532853E+02  0.00000000000E+00 0.  1.
         13    1    4    4    0    0 -0.21834413581E+02  0.19880352836E+01  0.70897338615E+02  0.74210016328E+02  0.00000000000E+00 0. -1.
          2    1    1    2  501    0 -0.23131428131E+02  0.12553104821E+03  0.73092681891E+02  0.14709060874E+03  0.00000000000E+00 0. -1.
<scales pt_clust_5="13000.00000" pt_clust_6="13000.00000" pt_clust_7="13000.00000" pt_clust_8="13000.00000" pt_clust_9="13000.00000"></scales>
<clustering>
<clus scale="   91.005">  7  8 -1 -1</clus>
<clus scale="   94.381">  5  6 -1 -1</clus>
<clus scale="  127.645">  7  9 -1 -1</clus>
<clus scale="  166.599">  2  5  1 -1</clus>
<clus scale="  224.604">  1  5  2 -1</clus>
</clustering>
</event>
<event>
 9    1  0.3312826E-006  0.1994968E+03  0.7546771E-02  0.1161700E+00
         -2   -1    0    0    0  501 -0.00000000000E+00  0.00000000000E+00  0.61859489922E+03  0.61859489922E+03  0.00000000000E+00 0. -1.
         21   -1    0    0  501  502  0.00000000000E+00 -0.00000000000E+00 -0.57308453429E+02  0.57308453429E+02  0.00000000000E+00 0. -1.
         23    2    1    2    0    0 -0.11703832159E+03 -0.23379769623E+02  0.36751567943E+03  0.39779170943E+03  0.94476913152E+02 0.  0.
         23    2    1    2    0    0  0.15582214506E+02 -0.95797974175E+01  0.96152117783E+02  0.13351193618E+03  0.90805448190E+02 0.  0.
        -13    1    4    4    0    0 -0.11804464633E+02  0.20710889418E+02 -0.50621988252E+01  0.24370313553E+02  0.00000000000E+00 0.  1.
         13    1    4    4    0    0  0.27386679139E+02 -0.30290686835E+02  0.10121431661E+03  0.10914162263E+03  0.00000000000E+00 0. -1.
        -13    1    3    3    0    0 -0.15293736800E+02 -0.22753381846E+02  0.15773697321E+02  0.31629484629E+02  0.00000000000E+00 0.  1.
         13    1    3    3    0    0 -0.10174458479E+03 -0.62638777671E+00  0.35174198211E+03  0.36616222480E+03  0.00000000000E+00 0. -1.
         -2    1    1    2    0  502  0.10145610709E+03  0.32959567040E+02  0.97618648581E+02  0.14459970704E+03  0.00000000000E+00 0. -1.
<scales pt_clust_5="13000.00000" pt_clust_6="13000.00000" pt_clust_7="13000.00000" pt_clust_8="13000.00000" pt_clust_9="13000.00000"></scales>
<clustering>
<clus scale="   90.805">  5  6 -1 -1</clus>
<clus scale="   94.477">  7  8 -1 -1</clus>
<clus scale="  106.676">  5  9 -1 -1</clus>
<clus scale="  152.218">  1  7  2 -1</clus>
<clus scale="  199.497">  2  5  1 -1</clus>
</clustering>
</event>
<event>
 9    1  0.3312826E-006  0.1940982E+03  0.7546771E-02  0.1187747E+00
         21   -1    0    0  501  502  0.00000000000E+00  0.00000000000E+00  0.41087052601E+03  0.41087052601E+03  0.00000000000E+00 0.  1.
          2   -1    0    0  502    0 -0.00000000000E+00 -0.00000000000E+00 -0.50620754858E+02  0.50620754858E+02  0.00000000000E+00 0.  1.
         23    2    1    2    0    0  0.10892833265E+02 -0.11488976712E+02  0.86679472342E+02  0.12605896584E+03  0.90149218196E+02 0.  0.
         23    2    1    2    0    0 -0.31627891264E+02 -0.63564304669E+02  0.15514920282E+03  0.19370548747E+03  0.91704942088E+02 0.  0.
        -11    1    4    4    0    0 -0.57621913298E+02 -0.65079566212E+02  0.98566403227E+02  0.13141906511E+03  0.00000000000E+00 0.  1.
         11    1    4    4    0    0  0.25994022034E+02  0.15152615435E+01  0.56582799598E+02  0.62286422352E+02  0.00000000000E+00 0. -1.
        -11    1    3    3    0    0  0.15061970830E+02 -0.48443644321E+02  0.66830062746E+02  0.83904153217E+02  0.00000000000E+00 0.  1.
         11    1    3    3    0    0 -0.41691375647E+01  0.36954667609E+02  0.19849409596E+02  0.42154812625E+02  0.00000000000E+00 0. -1.
          2    1    1    2  501    0  0.20735057999E+02  0.75053281380E+02  0.11842109599E+03  0.14172682756E+03  0.00000000000E+00 0.  1.
<scales pt_clust_5="13000.00000" pt_clust_6="13000.00000" pt_clust_7="13000.00000" pt_clust_8="13000.00000" pt_clust_9="13000.00000"></scales>
<clustering>
<clus scale="   90.149">  7  8 -1 -1</clus>
<clus scale="   91.529">  2  7  1 -1</clus>
<clus scale="   91.705">  5  6 -1 -1</clus>
<clus scale="   74.960">  5  9 -1 -1</clus>
<clus scale="  194.098">  1  5  2 -1</clus>
</clustering>
</event>
<event>
 9    1  0.3312826E-006  0.5883714E+03  0.7546771E-02  0.1020016E+00
         21   -1    0    0  501  502  0.00000000000E+00  0.00000000000E+00  0.23846331117E+03  0.23846331117E+03  0.00000000000E+00 0. -1.
          1   -1    0    0  502    0 -0.00000000000E+00 -0.00000000000E+00 -0.16120957451E+04  0.16120957451E+04  0.00000000000E+00 0. -1.
         23    2    1    2    0    0  0.22424200127E+03  0.77727643662E+02 -0.12149471173E+04  0.12411643741E+04  0.89813384140E+02 0.  0.
         23    2    1    2    0    0 -0.95417357362E+02  0.55588851149E+02 -0.32814462376E+03  0.35822634523E+03  0.91938174119E+02 0.  0.
        -13    1    3    3    0    0  0.21101799653E+03  0.48970475933E+02 -0.11285307229E+04  0.11491337150E+04  0.00000000000E+00 0. -1.
         13    1    3    3    0    0  0.13224004742E+02  0.28757167729E+02 -0.86416394460E+02  0.92030659178E+02  0.00000000000E+00 0.  1.
        -13    1    4    4    0    0 -0.15499354945E+02  0.24026050133E+02 -0.12694452972E+02  0.31283066106E+02  0.00000000000E+00 0.  1.
         13    1    4    4    0    0 -0.79918002417E+02  0.31562801015E+02 -0.31545017078E+03  0.32694327913E+03  0.00000000000E+00 0. -1.
          1    1    1    2  501    0 -0.12882464391E+03 -0.13331649481E+03  0.16945930717E+03  0.25116833689E+03  0.00000000000E+00 0. -1.
<scales pt_clust_5="13000.00000" pt_clust_6="13000.00000" pt_clust_7="13000.00000" pt_clust_8="13000.00000" pt_clust_9="13000.00000"></scales>
<clustering>
<clus scale="   89.813">  5  6 -1 -1</clus>
<clus scale="   91.938">  7  8 -1 -1</clus>
<clus scale="  185.389">  7  9 -1 -1</clus>
<clus scale="  253.757">  2  5  1 -1</clus>
<clus scale="  588.371">  1  5  2 -1</clus>
</clustering>
</event>
<event>
 9    1  0.3312826E-006  0.2246507E+03  0.7546771E-02  0.1152932E+00
         21   -1    0    0  501  502  0.00000000000E+00  0.00000000000E+00  0.16998830420E+03  0.16998830420E+03  0.00000000000E+00 0.  1.
         -3   -1    0    0    0  501 -0.00000000000E+00 -0.00000000000E+00 -0.30449322605E+03  0.30449322605E+03  0.00000000000E+00 0.  1.
         23    2    1    2    0    0 -0.59479386764E+02  0.74516849364E+02 -0.20131178526E+03  0.24010766644E+03  0.89636478688E+02 0.  0.
         23    2    1    2    0    0  0.83622005300E+02 -0.12593338674E+03  0.57611163754E+02  0.17683181624E+03  0.71404393261E+02 0.  0.
        -11    1    4    4    0    0  0.20530318045E+02 -0.81766826784E+02  0.53207883232E+02  0.99691457806E+02  0.00000000000E+00 0.  1.
         11    1    4    4    0    0  0.63091687255E+02 -0.44166559960E+02  0.44032805219E+01  0.77140358430E+02  0.00000000000E+00 0. -1.
        -13    1    3    3    0    0 -0.28554674477E+02  0.79685424919E+02 -0.18774447941E+03  0.20594447293E+03  0.00000000000E+00 0.  1.
         13    1    3    3    0    0 -0.30924712287E+02 -0.51685755555E+01 -0.13567305846E+02  0.34163193517E+02  0.00000000000E+00 0. -1.
         -3    1    1    2    0  502 -0.24142618536E+02  0.51416537380E+02  0.91956996517E+01  0.57542047565E+02  0.00000000000E+00 0.  1.
<scales pt_clust_5="13000.00000" pt_clust_6="13000.00000" pt_clust_7="13000.00000" pt_clust_8="13000.00000" pt_clust_9="13000.00000"></scales>
<clustering>
<clus scale="   71.404">  5  6 -1 -1</clus>
<clus scale="   56.803">  5  9 -1 -1</clus>
<clus scale="   89.636">  7  8 -1 -1</clus>
<clus scale="  130.864">  2  7  1 -1</clus>
<clus scale="  224.651">  1  5  2 -1</clus>
</clustering>
</event>
<event>
 9    1  0.3312826E-006  0.3776206E+03  0.7546771E-02  0.1090752E+00
         21   -1    0    0  501  502  0.00000000000E+00  0.00000000000E+00  0.19624450148E+03  0.19624450148E+03  0.00000000000E+00 0. -1.
          1   -1    0    0  502    0 -0.00000000000E+00 -0.00000000000E+00 -0.86260956364E+03  0.86260956364E+03  0.00000000000E+00 0. -1.
         23    2    1    2    0    0 -0.23718889343E+02 -0.89340714864E+02 -0.66871529593E+03  0.68122614698E+03  0.91348603036E+02 0.  0.
         23    2    1    2    0    0 -0.88246799632E+02  0.30526049300E+02 -0.13765287362E+03  0.18895796698E+03  0.89651895349E+02 0.  0.
        -11    1    3    3    0    0 -0.54573497904E+02 -0.81155892363E+02 -0.52126605493E+03  0.53036105207E+03  0.00000000000E+00 0. -1.
         11    1    3    3    0    0  0.30854608562E+02 -0.81848225008E+01 -0.14744924100E+03  0.15086509491E+03  0.00000000000E+00 0.  1.
        -13    1    4    4    0    0 -0.10556145814E+03  0.18567516267E+02 -0.10452088526E+03  0.14970834833E+03  0.00000000000E+00 0. -1.
         13    1    4    4    0    0  0.17314658508E+02  0.11958533033E+02 -0.33131988361E+02  0.39249618652E+02  0.00000000000E+00 0.  1.
          1    1    1    2  501    0  0.11196568897E+03  0.58814665564E+02  0.14000310738E+03  0.18866995116E+03  0.00000000000E+00 0. -1.
<scales pt_clust_5="13000.00000" pt_clust_6="13000.00000" pt_clust_7="13000.00000" pt_clust_8="13000.00000" pt_clust_9="13000.00000"></scales>
<clustering>
<clus scale="   89.652">  7  8 -1 -1</clus>
<clus scale="   91.349">  5  6 -1 -1</clus>
<clus scale="  126.473">  7  9 -1 -1</clus>
<clus scale="  129.957">  2  5  1 -1</clus>
<clus scale="  377.621">  1  5  2 -1</clus>
</clustering>
</event>
<event>
 9    1  0.3312826E-006  0.2563740E+03  0.7546771E-02  0.1120858E+00
          1   -1    0    0  502    0 -0.00000000000E+00  0.00000000000E+00  0.45879247872E+03  0.45879247872E+03  0.00000000000E+00 0. -1.
         21   -1    0    0  501  502  0.00000000000E+00 -0.00000000000E+00 -0.11001522668E+03  0.11001522668E+03  0.00000000000E+00 0. -1.
         23    2    1    2    0    0  0.12209735551E+03 -0.11730714553E+03  0.17023051712E+03  0.25638723239E+03  0.89929157445E+02 0.  0.
         23    2    1    2    0    0  0.13822334796E+02  0.50087511054E+02  0.56013896794E+02  0.11746679162E+03  0.89224855265E+02 0.  0.
        -11    1    3    3    0    0  0.41844689323E+01 -0.59740535217E+02  0.63086343850E+02  0.86984642947E+02  0.00000000000E+00 0.  1.
         11    1    3    3    0    0  0.11791288658E+03 -0.57566610308E+02  0.10714417327E+03  0.16940258944E+03  0.00000000000E+00 0. -1.
        -11    1    4    4    0    0 -0.50120486491E+01 -0.20247680210E+02  0.36572565103E+02  0.42102751736E+02  0.00000000000E+00 0.  1.
         11    1    4    4    0    0  0.18834383445E+02  0.70335191264E+02  0.19441331690E+02  0.75364039885E+02  0.00000000000E+00 0. -1.
          1    1    1    2  501    0 -0.13591969031E+03  0.67219634471E+02  0.12253283813E+03  0.19495368140E+03  0.00000000000E+00 0. -1.
<scales pt_clust_5="13000.00000" pt_clust_6="13000.00000" pt_clust_7="13000.00000" pt_clust_8="13000.00000" pt_clust_9="13000.00000"></scales>
<clustering>
<clus scale="   89.225">  7  8 -1 -1</clus>
<clus scale="   89.929">  5  6 -1 -1</clus>
<clus scale="  151.633">  7  9 -1 -1</clus>
<clus scale="  191.719">  1  5  2 -1</clus>
<clus scale="  256.374">  2  5  1 -1</clus>
</clustering>
</event>
<event>
 9    1  0.3312826E-006  0.3144848E+03  0.7546771E-02  0.1111755E+00
         21   -1    0    0  501  502  0.00000000000E+00  0.00000000000E+00  0.30691328480E+03  0.30691328480E+03  0.00000000000E+00 0.  1.
         -1   -1    0    0    0  501 -0.00000000000E+00 -0.00000000000E+00 -0.35793733104E+03  0.35793733104E+03  0.00000000000E+00 0.  1.
         23    2    1    2    0    0  0.91443675636E+02  0.12120901804E+02 -0.25743412471E+03  0.28867804273E+03  0.92486873194E+02 0.  0.
         23    2    1    2    0    0 -0.89609900949E+02  0.12252674030E+03  0.90044315227E+02  0.19819970689E+03  0.90179868430E+02 0.  0.
        -11    1    4    4    0    0 -0.18498271839E+02  0.48426832343E+02  0.79567517467E+02  0.94964909243E+02  0.00000000000E+00 0. -1.
         11    1    4    4    0    0 -0.71111629110E+02  0.74099907953E+02  0.10476797760E+02  0.10323479764E+03  0.00000000000E+00 0.  1.
        -11    1    3    3    0    0  0.54436035933E+02 -0.35748295048E+02 -0.17259523746E+03  0.18447313788E+03  0.00000000000E+00 0.  1.
         11    1    3    3    0    0  0.37007639703E+02  0.47869196852E+02 -0.84838887255E+02  0.10420490485E+03  0.00000000000E+00 0. -1.
         -1    1    1    2    0  502 -0.18337746872E+01 -0.13464764210E+03  0.11636576325E+03  0.17797286622E+03  0.00000000000E+00 0.  1.
<scales pt_clust_5="13000.00000" pt_clust_6="13000.00000" pt_clust_7="13000.00000" pt_clust_8="13000.00000" pt_clust_9="13000.00000"></scales>
<clustering>
<clus scale="   90.180">  5  6 -1 -1</clus>
<clus scale="   92.487">  7  8 -1 -1</clus>
<clus scale="  130.624">  2  7  1 -1</clus>
<clus scale="  133.969">  5  9 -1 -1</clus>
<clus scale="  314.485">  1  5  2 -1</clus>
</clustering>
</event>
<event>
 9    1  0.3312826E-006  0.1651342E+03  0.7546771E-02  0.1208592E+00
          2   -1    0    0  502    0 -0.00000000000E+00  0.00000000000E+00  0.25057294101E+03  0.25057294101E+03  0.00000000000E+00 0. -1.
         21   -1    0    0  501  502  0.00000000000E+00 -0.00000000000E+00 -0.68656086050E+02  0.68656086050E+02  0.00000000000E+00 0.  1.
         23    2    1    2    0    0  0.24268611113E+02 -0.15597471230E+02  0.44233902022E+02  0.10422693088E+03  0.89857489605E+02 0.  0.
         23    2    1    2    0    0 -0.12126324035E+02 -0.39615096493E+02  0.11537568626E+03  0.15422811395E+03  0.93586102320E+02 0.  0.
        -11    1    3    3    0    0  0.53877516102E+02 -0.16323510949E+01  0.65336575791E+01  0.54296777002E+02  0.00000000000E+00 0.  1.
         11    1    3    3    0    0 -0.29608904990E+02 -0.13965120135E+02  0.37700244443E+02  0.49930153877E+02  0.00000000000E+00 0. -1.
        -13    1    4    4    0    0  0.11655834796E+02 -0.65673818408E+02  0.81540670698E+02  0.10534604827E+03  0.00000000000E+00 0. -1.
         13    1    4    4    0    0 -0.23782158831E+02  0.26058721915E+02  0.33835015557E+02  0.48882065671E+02  0.00000000000E+00 0.  1.
          2    1    1    2  501    0 -0.12142287077E+02  0.55212567723E+02  0.22307266684E+02  0.60773982237E+02  0.00000000000E+00 0. -1.
<scales pt_clust_5="13000.00000" pt_clust_6="13000.00000" pt_clust_7="13000.00000" pt_clust_8="13000.00000" pt_clust_9="13000.00000"></scales>
<clustering>
<clus scale="   89.857">  5  6 -1 -1</clus>
<clus scale="   93.586">  7  8 -1 -1</clus>
<clus scale="   56.532">  7  9 -1 -1</clus>
<clus scale="   94.375">  1  5  2 -1</clus>
<clus scale="  165.134">  2  5  1 -1</clus>
</clustering>
</event>
<event>
 9    1  0.3312826E-006  0.2200722E+03  0.7546771E-02  0.1166923E+00
         21   -1    0    0  501  502  0.00000000000E+00  0.00000000000E+00  0.23219965303E+03  0.23219965303E+03  0.00000000000E+00 0. -1.
         -3   -1    0    0    0  501 -0.00000000000E+00 -0.00000000000E+00 -0.12692255902E+03  0.12692255902E+03  0.00000000000E+00 0.  1.
         23    2    1    2    0    0  0.11885299415E+02  0.41484209857E+02 -0.24751722595E+02  0.10350677259E+03  0.90767858803E+02 0.  0.
         23    2    1    2    0    0 -0.33822812885E+02  0.43260558524E+02  0.12602315740E+03  0.16798567527E+03  0.96549947177E+02 0.  0.
        -13    1    3    3    0    0  0.34185111188E+02  0.48598767403E+02  0.11339086079E+02  0.60489973493E+02  0.00000000000E+00 0.  1.
         13    1    3    3    0    0 -0.22299811773E+02 -0.71145575463E+01 -0.36090808674E+02  0.43016799101E+02  0.00000000000E+00 0. -1.
        -13    1    4    4    0    0 -0.42523560440E+02  0.24039031449E+02  0.13610230802E+03  0.14460278861E+03  0.00000000000E+00 0. -1.
         13    1    4    4    0    0  0.87007475552E+01  0.19221527075E+02 -0.10079150624E+02  0.23382886657E+02  0.00000000000E+00 0.  1.
         -3    1    1    2    0  502  0.21937513470E+02 -0.84744768381E+02  0.40056592022E+01  0.87629764184E+02  0.00000000000E+00 0.  1.
<scales pt_clust_5="13000.00000" pt_clust_6="13000.00000" pt_clust_7="13000.00000" pt_clust_8="13000.00000" pt_clust_9="13000.00000"></scales>
<clustering>
<clus scale="   90.768">  5  6 -1 -1</clus>
<clus scale="   96.550">  7  8 -1 -1</clus>
<clus scale="   87.538">  7  9 -1 -1</clus>
<clus scale="  100.504">  2  5  1 -1</clus>
<clus scale="  220.072">  1  5  2 -1</clus>
</clustering>
</event>
<event>
 9    1  0.3312826E-006  0.2357716E+03  0.7546771E-02  0.1152690E+00
         21   -1    0    0  501  502  0.00000000000E+00  0.00000000000E+00  0.21442812523E+03  0.21442812523E+03  0.00000000000E+00 0. -1.
         -4   -1    0    0    0  501 -0.00000000000E+00 -0.00000000000E+00 -0.16689506960E+03  0.16689506960E+03  0.00000000000E+00 0.  1.
         23    2    1    2    0    0  0.62511013836E+02  0.28631895458E+02 -0.52294209852E+02  0.12528857730E+03  0.90747622171E+02 0.  0.
         23    2    1    2    0    0  0.73373320919E+01 -0.78194754528E+02  0.12057425488E+03  0.16791137431E+03  0.86532205592E+02 0.  0.
        -13    1    4    4    0    0  0.41784810136E+02 -0.69879662631E+02  0.84549881194E+02  0.11737895901E+03  0.00000000000E+00 0. -1.
         13    1    4    4    0    0 -0.34447478044E+02 -0.83150918968E+01  0.36024373682E+02  0.50532415299E+02  0.00000000000E+00 0.  1.
        -13    1    3    3    0    0  0.77283128050E+02 -0.44999019992E+01 -0.38709302608E+02  0.86552533802E+02  0.00000000000E+00 0. -1.
         13    1    3    3    0    0 -0.14772114214E+02  0.33131797457E+02 -0.13584907244E+02  0.38736043498E+02  0.00000000000E+00 0.  1.
         -4    1    1    2    0  502 -0.69848345928E+02  0.49562859070E+02 -0.20746989393E+02  0.88123243228E+02  0.00000000000E+00 0.  1.
<scales pt_clust_5="13000.00000" pt_clust_6="13000.00000" pt_clust_7="13000.00000" pt_clust_8="13000.00000" pt_clust_9="13000.00000"></scales>
<clustering>
<clus scale="   86.532">  5  6 -1 -1</clus>
<clus scale="   85.646">  5  9 -1 -1</clus>
<clus scale="   90.748">  7  8 -1 -1</clus>
<clus scale="  113.853">  2  7  1 -1</clus>
<clus scale="  235.772">  1  5  2 -1</clus>
</clustering>
</event>
<event>
 9    1  0.3312826E-006  0.2847720E+03  0.7546771E-02  0.1134538E+00
         21   -1    0    0  501  502  0.00000000000E+00  0.00000000000E+00  0.12820716483E+03  0.12820716483E+03  0.00000000000E+00 0.  1.
          2   -1    0    0  502    0 -0.00000000000E+00 -0.00000000000E+00 -0.28959521700E+03  0.28959521700E+03  0.00000000000E+00 0. -1.
         23    2    1    2    0    0 -0.17239703723E+02 -0.33964861417E+02 -0.53624540438E+02  0.11332235576E+03  0.92279714906E+02 0.  0.
         23    2    1    2    0    0  0.79739920942E+02  0.11273931839E+03 -0.11817344354E+03  0.20338571908E+03  0.91280770497E+02 0.  0.
        -11    1    3    3    0    0 -0.32634305244E+02  0.23157038129E+02 -0.15339266692E+02  0.42854864325E+02  0.00000000000E+00 0.  1.
         11    1    3    3    0    0  0.15394601521E+02 -0.57121899546E+02 -0.38285273746E+02  0.70467491438E+02  0.00000000000E+00 0. -1.
        -11    1    4    4    0    0  0.49991943400E+02  0.79891453687E+02 -0.20957878328E+02  0.96545696130E+02  0.00000000000E+00 0.  1.
         11    1    4    4    0    0  0.29747977542E+02  0.32847864705E+02 -0.97215565214E+02  0.10684002295E+03  0.00000000000E+00 0. -1.
          2    1    1    2  501    0 -0.62500217219E+02 -0.78774456976E+02  0.10409931810E+02  0.10109430698E+03  0.00000000000E+00 0. -1.
<scales pt_clust_5="13000.00000" pt_clust_6="13000.00000" pt_clust_7="13000.00000" pt_clust_8="13000.00000" pt_clust_9="13000.00000"></scales>
<clustering>
<clus scale="   91.281">  7  8 -1 -1</clus>
<clus scale="   92.280">  5  6 -1 -1</clus>
<clus scale="   99.832">  2  5  1 -1</clus>
<clus scale="  108.780">  7  9 -1 -1</clus>
<clus scale="  284.772">  1  5  2 -1</clus>
</clustering>
</event>
<event>
 9    1  0.3312826E-006  0.2115308E+03  0.7546771E-02  0.1170536E+00
          1   -1    0    0  502    0 -0.00000000000E+00  0.00000000000E+00  0.12064179359E+03  0.12064179359E+03  0.00000000000E+00 0. -1.
         21   -1    0    0  501  502  0.00000000000E+00 -0.00000000000E+00 -0.35015450593E+03  0.35015450593E+03  0.00000000000E+00 0.  1.
         23    2    1    2    0    0 -0.53217072385E+02  0.78882145429E+01  0.53780844933E+02  0.11724219681E+03  0.89213635223E+02 0.  0.
         23    2    1    2    0    0  0.96904770979E+02 -0.49615227311E+01 -0.10505009086E+03  0.17001142687E+03  0.91941352664E+02 0.  0.
        -11    1    3    3    0    0 -0.31497022597E+02  0.20353074420E+02 -0.17724434718E+02  0.41478496319E+02  0.00000000000E+00 0.  1.
         11    1    3    3    0    0 -0.21720049788E+02 -0.12464859877E+02  0.71505279650E+02  0.75763700493E+02  0.00000000000E+00 0. -1.
        -13    1    4    4    0    0  0.41425276072E+02 -0.30942738548E+02 -0.94679341977E+02  0.10787809956E+03  0.00000000000E+00 0.  1.
         13    1    4    4    0    0  0.55479494908E+02  0.25981215816E+02 -0.10370748881E+02  0.62133327312E+02  0.00000000000E+00 0. -1.
          1    1    1    2  501    0 -0.43687698594E+02 -0.29266918118E+01 -0.17824346642E+03  0.18354267584E+03  0.00000000000E+00 0. -1.
<scales pt_clust_5="13000.00000" pt_clust_6="13000.00000" pt_clust_7="13000.00000" pt_clust_8="13000.00000" pt_clust_9="13000.00000"></scales>
<clustering>
<clus scale="   89.214">  5  6 -1 -1</clus>
<clus scale="   91.941">  7  8 -1 -1</clus>
<clus scale="   43.786">  7  9 -1 -1</clus>
<clus scale="  104.179">  1  5  2 -1</clus>
<clus scale="  211.531">  2  5  1 -1</clus>
</clustering>
</event>
<event>
 9    1  0.3312826E-006  0.1538662E+03  0.7546771E-02  0.1217862E+00
         21   -1    0    0  501  502  0.00000000000E+00  0.00000000000E+00  0.10887634063E+03  0.10887634063E+03  0.00000000000E+00 0. -1.
          4   -1    0    0  502    0 -0.00000000000E+00 -0.00000000000E+00 -0.26816377850E+03  0.26816377850E+03  0.00000000000E+00 0. -1.
         23    2    1    2    0    0 -0.70488556874E+01 -0.28138686918E+02 -0.19660759177E+03  0.21871258671E+03  0.91319101925E+02 0.  0.
         23    2    1    2    0    0 -0.26339218276E+02  0.38809999967E+01  0.90961022510E+01  0.10832957296E+03  0.10461233542E+03 0.  0.
        -11    1    4    4    0    0  0.33846419908E+02  0.50160908030E+00  0.29283287909E+02  0.44758716503E+02  0.00000000000E+00 0.  1.
         11    1    4    4    0    0 -0.60185638184E+02  0.33793909164E+01 -0.20187185658E+02  0.63570856462E+02  0.00000000000E+00 0. -1.
        -13    1    3    3    0    0 -0.19928595395E+02  0.27709498986E+02 -0.43924905989E+02  0.55626995376E+02  0.00000000000E+00 0.  1.
         13    1    3    3    0    0  0.12879739708E+02 -0.55848185903E+02 -0.15268268578E+03  0.16308559134E+03  0.00000000000E+00 0. -1.
          4    1    1    2  501    0  0.33388073963E+02  0.24257686921E+02  0.28224051648E+02  0.49997959450E+02  0.00000000000E+00 0. -1.
<scales pt_clust_5="13000.00000" pt_clust_6="13000.00000" pt_clust_7="13000.00000" pt_clust_8="13000.00000" pt_clust_9="13000.00000"></scales>
<clustering>
<clus scale="   91.319">  7  8 -1 -1</clus>
<clus scale="   95.816">  2  7  1 -1</clus>
<clus scale="  104.612">  5  6 -1 -1</clus>
<clus scale="   37.418">  5  9 -1 -1</clus>
<clus scale="  153.866">  1  5  2 -1</clus>
</clustering>
</event>
<event>
 9    1  0.3312826E-006  0.3160884E+03  0.7546771E-02  0.1118011E+00
          1   -1    0    0  502    0 -0.00000000000E+00  0.00000000000E+00  0.37619745370E+03  0.37619745370E+03  0.00000000000E+00 0. -1.
         21   -1    0    0  501  502  0.00000000000E+00 -0.00000000000E+00 -0.13712746630E+03  0.13712746630E+03  0.00000000000E+00 0. -1.
         23    2    1    2    0    0 -0.60720047237E+02  0.15073296606E+02  0.14812314999E+03  0.18441273176E+03  0.90296509688E+02 0.  0.
         23    2    1    2    0    0  0.34457308283E+02  0.53909689857E+02  0.18117294682E+03  0.21233974424E+03  0.90393415534E+02 0.  0.
        -11    1    3    3    0    0  0.18625149700E+02 -0.10602145717E+02  0.11431936543E+02  0.24289727629E+02  0.00000000000E+00 0.  1.
         11    1    3    3    0    0 -0.79345196937E+02  0.25675442323E+02  0.13669121345E+03  0.16012300413E+03  0.00000000000E+00 0. -1.
        -11    1    4    4    0    0  0.42815683207E+02  0.64620056377E+01  0.27508552983E+02  0.51299714741E+02  0.00000000000E+00 0.  1.
         11    1    4    4    0    0 -0.83583749239E+01  0.47447684219E+02  0.15366439384E+03  0.16104002950E+03  0.00000000000E+00 0. -1.
          1    1    1    2  501    0  0.26262738954E+02 -0.68982986463E+02 -0.90226109420E+02  0.11657244400E+03  0.00000000000E+00 0. -1.
<scales pt_clust_5="13000.00000" pt_clust_6="13000.00000" pt_clust_7="13000.00000" pt_clust_8="13000.00000" pt_clust_9="13000.00000"></scales>
<clustering>
<clus scale="   90.297">  5  6 -1 -1</clus>
<clus scale="   90.393">  7  8 -1 -1</clus>
<clus scale="   73.813">  7  9 -1 -1</clus>
<clus scale="  109.853">  1  5  2 -1</clus>
<clus scale="  316.088">  2  5  1 -1</clus>
</clustering>
</event>
<event>
 9    1  0.3312826E-006  0.1620734E+03  0.7546771E-02  0.1199768E+00
          2   -1    0    0  502    0 -0.00000000000E+00  0.00000000000E+00  0.10805603126E+04  0.10805603126E+04  0.00000000000E+00 0. -1.
         21   -1    0    0  501  502  0.00000000000E+00 -0.00000000000E+00 -0.18593668652E+02  0.18593668652E+02  0.00000000000E+00 0.  1.
         23    2    1    2    0    0  0.63786657468E+02 -0.48880628885E+02  0.49111220430E+03  0.50573796793E+03  0.90120150071E+02 0.  0.
         23    2    1    2    0    0 -0.57079848401E+02  0.25135381058E+01  0.46896045311E+03  0.48126757201E+03  0.91815806494E+02 0.  0.
        -13    1    4    4    0    0 -0.49876035300E+02  0.42089228005E+02  0.33897275332E+03  0.34519798595E+03  0.00000000000E+00 0. -1.
         13    1    4    4    0    0 -0.72038131012E+01 -0.39575689899E+02  0.12998769979E+03  0.13606958606E+03  0.00000000000E+00 0.  1.
        -13    1    3    3    0    0  0.86848724591E+02 -0.40182240660E+02  0.37283008648E+03  0.38491503844E+03  0.00000000000E+00 0.  1.
         13    1    3    3    0    0 -0.23062067123E+02 -0.86983882244E+01  0.11828211781E+03  0.12082292950E+03  0.00000000000E+00 0. -1.
          2    1    1    2  501    0 -0.67068090667E+01  0.46367090779E+02  0.10189398659E+03  0.11214844136E+03  0.00000000000E+00 0. -1.
<scales pt_clust_5="13000.00000" pt_clust_6="13000.00000" pt_clust_7="13000.00000" pt_clust_8="13000.00000" pt_clust_9="13000.00000"></scales>
<clustering>
<clus scale="   90.120">  7  8 -1 -1</clus>
<clus scale="   91.816">  5  6 -1 -1</clus>
<clus scale="   46.850">  5  9 -1 -1</clus>
<clus scale="  120.746">  1  7  2 -1</clus>
<clus scale="  162.073">  2  5  1 -1</clus>
</clustering>
</event>
<event>
 9    1  0.3312826E-006  0.2860839E+03  0.7546771E-02  0.1128167E+00
         21   -1    0    0  501  502  0.00000000000E+00  0.00000000000E+00  0.24991833973E+03  0.24991833973E+03  0.00000000000E+00 0. -1.
         -4   -1    0    0    0  501 -0.00000000000E+00 -0.00000000000E+00 -0.19164454418E+03  0.19164454418E+03  0.00000000000E+00 0.  1.
         23    2    1    2    0    0 -0.68819043525E+02 -0.16214744540E+02 -0.62567556881E+02  0.13100434150E+03  0.90821030738E+02 0.  0.
         23    2    1    2    0    0 -0.46811416948E+02  0.58698065602E+02 -0.24558596019E+02  0.11998996954E+03  0.90319967288E+02 0.  0.
        -11    1    4    4    0    0  0.15777741902E+02  0.39822277201E+02 -0.33002672229E+02  0.54073350879E+02  0.00000000000E+00 0.  1.
         11    1    4    4    0    0 -0.62589158850E+02  0.18875788400E+02  0.84440762099E+01  0.65916618666E+02  0.00000000000E+00 0. -1.
        -13    1    3    3    0    0 -0.42879858564E+02  0.29153449000E+02 -0.59110768853E+02  0.78630076011E+02  0.00000000000E+00 0.  1.
         13    1    3    3    0    0 -0.25939184962E+02 -0.45368193540E+02 -0.34567880282E+01  0.52374265485E+02  0.00000000000E+00 0. -1.
         -4    1    1    2    0  502  0.11563046047E+03 -0.42483321062E+02  0.14539994844E+03  0.19056857287E+03  0.00000000000E+00 0.  1.
<scales pt_clust_5="13000.00000" pt_clust_6="13000.00000" pt_clust_7="13000.00000" pt_clust_8="13000.00000" pt_clust_9="13000.00000"></scales>
<clustering>
<clus scale="   90.320">  5  6 -1 -1</clus>
<clus scale="   90.821">  7  8 -1 -1</clus>
<clus scale="  115.098">  2  7  1 -1</clus>
<clus scale="  109.533">  5  9 -1 -1</clus>
<clus scale="  286.084">  1  5  2 -1</clus>
</clustering>
</event>
<event>
 9    1  0.3312826E-006  0.2045064E+03  0.7546771E-02  0.1162412E+00
          4   -1    0    0  502    0 -0.00000000000E+00  0.00000000000E+00  0.70474622145E+03  0.70474622145E+03  0.00000000000E+00 0. -1.
         21   -1    0    0  501  502  0.00000000000E+00 -0.00000000000E+00 -0.12545766470E+03  0.12545766470E+03  0.00000000000E+00 0.  1.
         23    2    1    2    0    0 -0.47741849359E+02 -0.91455622093E+02  0.60800676821E+03  0.62369094229E+03  0.93138318203E+02 0.  0.
         23    2    1    2    0    0  0.48181436783E+02  0.12484316250E+03 -0.46836507839E+02  0.16852355381E+03  0.91100294452E+02 0.  0.
        -13    1    4    4    0    0 -0.18124008146E+02  0.53961347048E+02  0.72948102284E+01  0.57389205456E+02  0.00000000000E+00 0. -1.
         13    1    4    4    0    0  0.66305444929E+02  0.70881815455E+02 -0.54131318068E+02  0.11113434836E+03  0.00000000000E+00 0.  1.
        -13    1    3    3    0    0  0.23153079568E+02 -0.32783609543E+02  0.10651210466E+03  0.11382292645E+03  0.00000000000E+00 0.  1.
         13    1    3    3    0    0 -0.70894928927E+02 -0.58672012550E+02  0.50149466355E+03  0.50986801584E+03  0.00000000000E+00 0. -1.
          4    1    1    2  501    0 -0.43958742383E+00 -0.33387540411E+02  0.18118296381E+02  0.37989390039E+02  0.00000000000E+00 0. -1.
<scales pt_clust_5="13000.00000" pt_clust_6="13000.00000" pt_clust_7="13000.00000" pt_clust_8="13000.00000" pt_clust_9="13000.00000"></scales>
<clustering>
<clus scale="   91.100">  5  6 -1 -1</clus>
<clus scale="   33.390">  5  9 -1 -1</clus>
<clus scale="   93.138">  7  8 -1 -1</clus>
<clus scale="  138.990">  1  7  2 -1</clus>
<clus scale="  204.506">  2  5  1 -1</clus>
</clustering>
</event>
<event>
 9    1  0.3312826E-006  0.2884301E+03  0.7546771E-02  0.1135922E+00
         21   -1    0    0  501  502  0.00000000000E+00  0.00000000000E+00  0.48822657361E+02  0.48822657361E+02  0.00000000000E+00 0. -1.
          1   -1    0    0  502    0 -0.00000000000E+00 -0.00000000000E+00 -0.74461591104E+03  0.74461591104E+03  0.00000000000E+00 0. -1.
         23    2    1    2    0    0 -0.21058857897E+02  0.85930741850E+01 -0.16752037765E+03  0.19155472971E+03  0.90071200312E+02 0.  0.
         23    2    1    2    0    0  0.11267524570E+03  0.67873373125E+02 -0.37709911783E+03  0.40928533079E+03  0.89488723092E+02 0.  0.
        -11    1    3    3    0    0  0.25460628327E+02  0.25637069180E+02 -0.35967911695E+02  0.50982286950E+02  0.00000000000E+00 0. -1.
         11    1    3    3    0    0 -0.46519486225E+02 -0.17043994995E+02 -0.13155246596E+03  0.14057244276E+03  0.00000000000E+00 0.  1.
        -13    1    4    4    0    0  0.64505553536E+02 -0.72434550886E+01 -0.21066197587E+03  0.22043570980E+03  0.00000000000E+00 0.  1.
         13    1    4    4    0    0  0.48169692160E+02  0.75116828214E+02 -0.16643714196E+03  0.18884962098E+03  0.00000000000E+00 0. -1.
          1    1    1    2  501    0 -0.91616387799E+02 -0.76466447310E+02 -0.15117375820E+03  0.19259850790E+03  0.00000000000E+00 0. -1.
<scales pt_clust_5="13000.00000" pt_clust_6="13000.00000" pt_clust_7="13000.00000" pt_clust_8="13000.00000" pt_clust_9="13000.00000"></scales>
<clustering>
<clus scale="   89.489">  7  8 -1 -1</clus>
<clus scale="   90.071">  5  6 -1 -1</clus>
<clus scale="   92.899">  2  5  1 -1</clus>
<clus scale="  122.730">  7  9 -1 -1</clus>
<clus scale="  288.430">  1  5  2 -1</clus>
</clustering>
</event>
<event>
 9    1  0.3312826E-006  0.1916277E+03  0.7546771E-02  0.1183255E+00
         21   -1    0    0  501  502  0.00000000000E+00  0.00000000000E+00  0.10200728999E+03  0.10200728999E+03  0.00000000000E+00 0. -1.
          1   -1    0    0  502    0 -0.00000000000E+00 -0.00000000000E+00 -0.24179679605E+03  0.24179679605E+03  0.00000000000E+00 0. -1.
         23    2    1    2    0    0  0.50302250963E+02  0.25812484199E+02 -0.10587920226E+03  0.14919917104E+03  0.88619334104E+02 0.  0.
         23    2    1    2    0    0  0.29681783761E+02  0.17200812901E+02 -0.37750879778E+02  0.10370750270E+03  0.90295298554E+02 0.  0.
        -11    1    4    4    0    0 -0.30456657546E+02 -0.48087376194E+01 -0.21648056014E+02  0.37674530861E+02  0.00000000000E+00 0.  1.
         11    1    4    4    0    0  0.60138441307E+02  0.22009550521E+02 -0.16102823764E+02  0.66032971841E+02  0.00000000000E+00 0. -1.
        -13    1    3    3    0    0 -0.79200676054E+00 -0.29390989430E+02 -0.36496798173E+02  0.46866553225E+02  0.00000000000E+00 0.  1.
         13    1    3    3    0    0  0.51094257723E+02  0.55203473629E+02 -0.69382404085E+02  0.10233261782E+03  0.00000000000E+00 0. -1.
          1    1    1    2  501    0 -0.79984034724E+02 -0.43013297101E+02  0.38405759707E+01  0.90897412295E+02  0.00000000000E+00 0. -1.
<scales pt_clust_5="13000.00000" pt_clust_6="13000.00000" pt_clust_7="13000.00000" pt_clust_8="13000.00000" pt_clust_9="13000.00000"></scales>
<clustering>
<clus scale="   88.619">  7  8 -1 -1</clus>
<clus scale="   90.295">  5  6 -1 -1</clus>
<clus scale="   90.816">  5  9 -1 -1</clus>
<clus scale="  105.119">  2  7  1 -1</clus>
<clus scale="  191.628">  1  5  2 -1</clus>
</clustering>
</event>
<event>
 9    1  0.3312826E-006  0.3064908E+03  0.7546771E-02  0.1126795E+00
         21   -1    0    0  501  502  0.00000000000E+00  0.00000000000E+00  0.59977669535E+03  0.59977669535E+03  0.00000000000E+00 0. -1.
          3   -1    0    0  502    0 -0.00000000000E+00 -0.00000000000E+00 -0.11713784689E+03  0.11713784689E+03  0.00000000000E+00 0. -1.
         23    2    1    2    0    0 -0.29252660288E+02  0.96372237451E+01 -0.44957452379E+02  0.10675516122E+03  0.91798135641E+02 0.  0.
         23    2    1    2    0    0 -0.11897376975E+03 -0.32741229744E+02  0.30195384856E+03  0.33919926233E+03  0.93022937434E+02 0.  0.
        -13    1    4    4    0    0 -0.69799497884E+02 -0.25938843539E+02  0.70711663902E+02  0.10268852380E+03  0.00000000000E+00 0. -1.
         13    1    4    4    0    0 -0.49174271870E+02 -0.68023862049E+01  0.23124218466E+03  0.23651073853E+03  0.00000000000E+00 0.  1.
        -13    1    3    3    0    0  0.73129475869E+01 -0.36091047121E+02 -0.85347314453E+01  0.37800588957E+02  0.00000000000E+00 0.  1.
         13    1    3    3    0    0 -0.36565607875E+02  0.45728270866E+02 -0.36422720934E+02  0.68954572262E+02  0.00000000000E+00 0. -1.
          3    1    1    2  501    0  0.14822643004E+03  0.23104005999E+02  0.22564245227E+03  0.27096011869E+03  0.00000000000E+00 0. -1.
<scales pt_clust_5="13000.00000" pt_clust_6="13000.00000" pt_clust_7="13000.00000" pt_clust_8="13000.00000" pt_clust_9="13000.00000"></scales>
<clustering>
<clus scale="   91.798">  7  8 -1 -1</clus>
<clus scale="   93.023">  5  6 -1 -1</clus>
<clus scale="   96.827">  2  7  1 -1</clus>
<clus scale="  135.186">  5  9 -1 -1</clus>
<clus scale="  306.491">  1  5  2 -1</clus>
</clustering>
</event>
<event>
 9    1  0.3312826E-006  0.6805632E+03  0.7546771E-02  0.1032286E+00
         21   -1    0    0  501  502  0.00000000000E+00  0.00000000000E+00  0.10958063948E+03  0.10958063948E+03  0.00000000000E+00 0. -1.
          1   -1    0    0  502    0 -0.00000000000E+00 -0.00000000000E+00 -0.14941896353E+04  0.14941896353E+04  0.00000000000E+00 0. -1.
         23    2    1    2    0    0  0.12523799708E+02 -0.63812959494E+02 -0.32640217320E+03  0.34560974980E+03  0.93159975996E+02 0.  0.
         23    2    1    2    0    0 -0.16874996898E+03 -0.19795167018E+03 -0.83691916786E+03  0.88147024973E+03  0.94311674087E+02 0.  0.
        -11    1    4    4    0    0  0.48286279990E+01 -0.42174616045E+02 -0.10375421374E+03  0.11210241191E+03  0.00000000000E+00 0.  1.
         11    1    4    4    0    0 -0.17357859698E+03 -0.15577705414E+03 -0.73316495412E+03  0.76936783782E+03  0.00000000000E+00 0. -1.
        -13    1    3    3    0    0 -0.30445862345E+02 -0.63719566447E+02 -0.19955783582E+03  0.21168482118E+03  0.00000000000E+00 0.  1.
         13    1    3    3    0    0  0.42969662053E+02 -0.93393046705E-01 -0.12684433738E+03  0.13392492861E+03  0.00000000000E+00 0. -1.
          1    1    1    2  501    0  0.15622616927E+03  0.26176462968E+03 -0.22128765473E+03  0.37669027523E+03  0.00000000000E+00 0. -1.
<scales pt_clust_5="13000.00000" pt_clust_6="13000.00000" pt_clust_7="13000.00000" pt_clust_8="13000.00000" pt_clust_9="13000.00000"></scales>
<clustering>
<clus scale="   93.160">  7  8 -1 -1</clus>
<clus scale="   94.312">  5  6 -1 -1</clus>
<clus scale="  113.612">  2  7  1 -1</clus>
<clus scale="  292.566">  5  9 -1 -1</clus>
<clus scale="  680.563">  1  5  2 -1</clus>
</clustering>
</event>
<event>
 9    1  0.3312826E-006  0.7075135E+03  0.7546771E-02  0.1035198E+00
         21   -1    0    0  501  502  0.00000000000E+00  0.00000000000E+00  0.12031019894E+03  0.12031019894E+03  0.00000000000E+00 0. -1.
          1   -1    0    0  502    0 -0.00000000000E+00 -0.00000000000E+00 -0.13686510454E+04  0.13686510454E+04  0.00000000000E+00 0. -1.
         23    2    1    2    0    0 -0.15221370629E+02  0.34108727395E+01 -0.23862932211E+03  0.25604081768E+03  0.91485642450E+02 0.  0.
         23    2    1    2    0    0 -0.10347708075E+03 -0.13112293431E+03  0.15535512782E+02  0.19295351363E+03  0.95336121795E+02 0.  0.
        -13    1    3    3    0    0 -0.21925539414E+02 -0.41654349565E+02 -0.11345631399E+03  0.12283382799E+03  0.00000000000E+00 0.  1.
         13    1    3    3    0    0  0.67041687852E+01  0.45065222304E+02 -0.12517300812E+03  0.13320698969E+03  0.00000000000E+00 0. -1.
        -13    1    4    4    0    0 -0.68068031905E+02 -0.12800737678E+03 -0.15446903063E+02  0.14580038509E+03  0.00000000000E+00 0. -1.
         13    1    4    4    0    0 -0.35409048849E+02 -0.31155575303E+01  0.30982415844E+02  0.47153128536E+02  0.00000000000E+00 0.  1.
          1    1    1    2  501    0  0.11869845138E+03  0.12771206157E+03 -0.10252470371E+04  0.10399669130E+04  0.00000000000E+00 0. -1.
<scales pt_clust_5="13000.00000" pt_clust_6="13000.00000" pt_clust_7="13000.00000" pt_clust_8="13000.00000" pt_clust_9="13000.00000"></scales>
<clustering>
<clus scale="   91.486">  5  6 -1 -1</clus>
<clus scale="   92.806">  2  5  1 -1</clus>
<clus scale="   95.336">  7  8 -1 -1</clus>
<clus scale="  167.573">  7  9 -1 -1</clus>
<clus scale="  707.514">  1  5  2 -1</clus>
</clustering>
</event>
<event>
 9    1  0.3312826E-006  0.1954017E+03  0.7546771E-02  0.1182409E+00
         21   -1    0    0  501  502  0.00000000000E+00  0.00000000000E+00  0.90762801682E+02  0.90762801682E+02  0.00000000000E+00 0.  1.
          1   -1    0    0  502    0 -0.00000000000E+00 -0.00000000000E+00 -0.32768836247E+03  0.32768836247E+03  0.00000000000E+00 0. -1.
         23    2    1    2    0    0 -0.15267375245E+02 -0.44468409900E+02 -0.19348507658E+03  0.21827896543E+03  0.89435449694E+02 0.  0.
         23    2    1    2    0    0  0.42595267585E+02  0.69030869385E+02 -0.80458815130E+02  0.14801393054E+03  0.94100398260E+02 0.  0.
        -11    1    3    3    0    0 -0.25523983327E+02  0.10647470384E+02 -0.13285084924E+03  0.13569889644E+03  0.00000000000E+00 0.  1.
         11    1    3    3    0    0  0.10256608082E+02 -0.55115880284E+02 -0.60634227338E+02  0.82580068986E+02  0.00000000000E+00 0. -1.
        -13    1    4    4    0    0  0.39127263980E+02  0.46131807614E+02  0.38198906354E+01  0.60610873816E+02  0.00000000000E+00 0.  1.
         13    1    4    4    0    0  0.34680036049E+01  0.22899061771E+02 -0.84278705765E+02  0.87403056722E+02  0.00000000000E+00 0. -1.
          1    1    1    2  501    0 -0.27327892339E+02 -0.24562459485E+02  0.37018330924E+02  0.52158268185E+02  0.00000000000E+00 0. -1.
<scales pt_clust_5="13000.00000" pt_clust_6="13000.00000" pt_clust_7="13000.00000" pt_clust_8="13000.00000" pt_clust_9="13000.00000"></scales>
<clustering>
<clus scale="   89.435">  5  6 -1 -1</clus>
<clus scale="   94.100">  7  8 -1 -1</clus>
<clus scale="   36.744">  7  9 -1 -1</clus>
<clus scale="  101.041">  2  5  1 -1</clus>
<clus scale="  195.402">  1  5  2 -1</clus>
</clustering>
</event>
<event>
 9    1  0.3312826E-006  0.2749286E+03  0.7546771E-02  0.1107212E+00
         -1   -1    0    0    0  501 -0.00000000000E+00  0.00000000000E+00  0.11978765374E+04  0.11978765374E+04  0.00000000000E+00 0.  1.
         21   -1    0    0  501  502  0.00000000000E+00 -0.00000000000E+00 -0.60158121433E+02  0.60158121433E+02  0.00000000000E+00 0.  1.
         23    2    1    2    0    0  0.68945964409E+02 -0.18473854481E+03  0.27098902307E+03  0.34874616124E+03  0.96472578541E+02 0.  0.
         23    2    1    2    0    0 -0.60753909914E+02  0.74291832314E+02  0.24227810647E+03  0.27509215955E+03  0.88128891147E+02 0.  0.
        -13    1    3    3    0    0  0.90460168220E+02 -0.17244156105E+03  0.24147239529E+03  0.31020646624E+03  0.00000000000E+00 0.  1.
         13    1    3    3    0    0 -0.21514203811E+02 -0.12296983762E+02  0.29516627782E+02  0.38539695002E+02  0.00000000000E+00 0. -1.
        -13    1    4    4    0    0  0.14949498719E+02  0.30953768191E+02  0.12042042465E+03  0.12523059511E+03  0.00000000000E+00 0.  1.
         13    1    4    4    0    0 -0.75703408634E+02  0.43338064123E+02  0.12185768182E+03  0.14986156445E+03  0.00000000000E+00 0. -1.
         -1    1    1    2    0  502 -0.81920544944E+01  0.11044671250E+03  0.62445128640E+03  0.63419633801E+03  0.00000000000E+00 0.  1.
<scales pt_clust_5="13000.00000" pt_clust_6="13000.00000" pt_clust_7="13000.00000" pt_clust_8="13000.00000" pt_clust_9="13000.00000"></scales>
<clustering>
<clus scale="   88.129">  7  8 -1 -1</clus>
<clus scale="   96.473">  5  6 -1 -1</clus>
<clus scale="  110.750">  7  9 -1 -1</clus>
<clus scale="  219.520">  1  5  2 -1</clus>
<clus scale="  274.929">  2  5  1 -1</clus>
</clustering>
</event>
<event>
 9    1  0.3312826E-006  0.3153398E+03  0.7546771E-02  0.1121005E+00
          1   -1    0    0  502    0 -0.00000000000E+00  0.00000000000E+00  0.12069840117E+04  0.12069840117E+04  0.00000000000E+00 0. -1.
         21   -1    0    0  501  502  0.00000000000E+00 -0.00000000000E+00 -0.37633588471E+02  0.37633588471E+02  0.00000000000E+00 0. -1.
         23    2    1    2    0    0  0.40105518379E+02  0.16001077082E+02  0.40428374804E+03  0.41711157823E+03  0.93124823164E+02 0.  0.
         23    2    1    2    0    0 -0.48089566866E+02  0.77983552984E+02  0.12439974658E+03  0.17993288389E+03  0.92230714939E+02 0.  0.
        -11    1    4    4    0    0  0.26375054797E+02  0.18473292440E+02  0.47858337420E+02  0.57682982844E+02  0.00000000000E+00 0.  1.
         11    1    4    4    0    0 -0.74464621663E+02  0.59510260544E+02  0.76541409163E+02  0.12224990105E+03  0.00000000000E+00 0. -1.
        -13    1    3    3    0    0  0.46926064642E+02  0.49593620052E+02  0.27748507386E+03  0.28576134957E+03  0.00000000000E+00 0. -1.
         13    1    3    3    0    0 -0.68205462628E+01 -0.33592542970E+02  0.12679867418E+03  0.13135022866E+03  0.00000000000E+00 0.  1.
          1    1    1    2  501    0  0.79840484864E+01 -0.93984630066E+02  0.64066692856E+03  0.64757313801E+03  0.00000000000E+00 0. -1.
<scales pt_clust_5="13000.00000" pt_clust_6="13000.00000" pt_clust_7="13000.00000" pt_clust_8="13000.00000" pt_clust_9="13000.00000"></scales>
<clustering>
<clus scale="   92.231">  5  6 -1 -1</clus>
<clus scale="   93.125">  7  8 -1 -1</clus>
<clus scale="   94.323">  5  9 -1 -1</clus>
<clus scale="  102.649">  1  7  2 -1</clus>
<clus scale="  315.340">  2  5  1 -1</clus>
</clustering>
</event>
<event>
 9    1  0.3312826E-006  0.2311874E+03  0.7546771E-02  0.1160856E+00
         -1   -1    0    0    0  501 -0.00000000000E+00  0.00000000000E+00  0.16821953768E+03  0.16821953768E+03  0.00000000000E+00 0.  1.
         21   -1    0    0  501  502  0.00000000000E+00 -0.00000000000E+00 -0.16279848412E+03  0.16279848412E+03  0.00000000000E+00 0. -1.
         23    2    1    2    0    0  0.13925813305E+02 -0.37827808547E+02 -0.70238981769E+00  0.99749568512E+02  0.91239310011E+02 0.  0.
         23    2    1    2    0    0 -0.27619349201E+02  0.98154642448E+02 -0.51564604570E+02  0.14668269391E+03  0.91976855582E+02 0.  0.
        -11    1    3    3    0    0  0.20053725037E+02  0.10485998593E+02  0.33365350529E+02  0.40315687645E+02  0.00000000000E+00 0.  1.
         11    1    3    3    0    0 -0.61279117314E+01 -0.48313807141E+02 -0.34067740347E+02  0.59433880868E+02  0.00000000000E+00 0. -1.
        -13    1    4    4    0    0  0.29051341664E+02  0.24355164799E+02 -0.36118726213E+02  0.52361406476E+02  0.00000000000E+00 0.  1.
         13    1    4    4    0    0 -0.56670690864E+02  0.73799477649E+02 -0.15445878357E+02  0.94321287431E+02  0.00000000000E+00 0. -1.
         -1    1    1    2    0  502  0.13693535895E+02 -0.60326833901E+02  0.57688047944E+02  0.84585759377E+02  0.00000000000E+00 0.  1.
<scales pt_clust_5="13000.00000" pt_clust_6="13000.00000" pt_clust_7="13000.00000" pt_clust_8="13000.00000" pt_clust_9="13000.00000"></scales>
<clustering>
<clus scale="   91.239">  5  6 -1 -1</clus>
<clus scale="   91.977">  7  8 -1 -1</clus>
<clus scale="   61.861">  7  9 -1 -1</clus>
<clus scale="   99.747">  1  5  2 -1</clus>
<clus scale="  231.187">  2  5  1 -1</clus>
</clustering>
</event>
<event>
 9    1  0.3312826E-006  0.2496610E+03  0.7546771E-02  0.1117154E+00
         -4   -1    0    0    0  501 -0.00000000000E+00  0.00000000000E+00  0.20725172655E+03  0.20725172655E+03  0.00000000000E+00 0.  1.
         21   -1    0    0  501  502  0.00000000000E+00 -0.00000000000E+00 -0.30965862909E+03  0.30965862909E+03  0.00000000000E+00 0.  1.
         23    2    1    2    0    0  0.81428118753E+02 -0.19291062577E+03  0.37294545666E+02  0.23082099058E+03  0.89679420705E+02 0.  0.
         23    2    1    2    0    0 -0.24141582208E+02  0.10438437897E+03 -0.57736997383E+02  0.15253482623E+03  0.91947799219E+02 0.  0.
        -11    1    3    3    0    0  0.47818098982E+02 -0.14366234665E+03 -0.14149617559E+02  0.15207120738E+03  0.00000000000E+00 0. -1.
         11    1    3    3    0    0  0.33610019770E+02 -0.49248279122E+02  0.51444163225E+02  0.78749783209E+02  0.00000000000E+00 0.  1.
        -13    1    4    4    0    0  0.27549957996E+02  0.65224499735E+02 -0.51158043000E+02  0.87352051577E+02  0.00000000000E+00 0.  1.
         13    1    4    4    0    0 -0.51691540204E+02  0.39159879236E+02 -0.65789543826E+01  0.65182774651E+02  0.00000000000E+00 0. -1.
         -4    1    1    2    0  502 -0.57286536544E+02  0.88526246802E+02 -0.81964450830E+02  0.13355453883E+03  0.00000000000E+00 0.  1.
<scales pt_clust_5="13000.00000" pt_clust_6="13000.00000" pt_clust_7="13000.00000" pt_clust_8="13000.00000" pt_clust_9="13000.00000"></scales>
<clustering>
<clus scale="   89.679">  5  6 -1 -1</clus>
<clus scale="   91.948">  7  8 -1 -1</clus>
<clus scale="  105.445">  7  9 -1 -1</clus>
<clus scale="  227.788">  1  5  2 -1</clus>
<clus scale="  249.661">  2  5  1 -1</clus>
</clustering>
</event>
<event>
 9    1  0.3312826E-006  0.1374030E+03  0.7546771E-02  0.1229729E+00
         21   -1    0    0  501  502  0.00000000000E+00  0.00000000000E+00  0.62294927772E+02  0.62294927772E+02  0.00000000000E+00 0.  1.
         -3   -1    0    0    0  501 -0.00000000000E+00 -0.00000000000E+00 -0.53112093442E+03  0.53112093442E+03  0.00000000000E+00 0.  1.
         23    2    1    2    0    0  0.35247767137E+02 -0.41821946508E+02 -0.44085402014E+03  0.45319457007E+03  0.89674806798E+02 0.  0.
         23    2    1    2    0    0 -0.77528457010E+01  0.13357247317E+02 -0.37715421580E+02  0.99464153699E+02  0.90731153270E+02 0.  0.
        -11    1    3    3    0    0  0.43609532251E+02 -0.65460388440E+02 -0.36213353283E+03  0.37057731900E+03  0.00000000000E+00 0.  1.
         11    1    3    3    0    0 -0.83617651141E+01  0.23638441932E+02 -0.78720487306E+02  0.82617251071E+02  0.00000000000E+00 0. -1.
        -13    1    4    4    0    0  0.28974101799E+02 -0.67171514174E+01  0.14050400678E+02  0.32894261771E+02  0.00000000000E+00 0.  1.
         13    1    4    4    0    0 -0.36726947500E+02  0.20074398734E+02 -0.51765822259E+02  0.66569891928E+02  0.00000000000E+00 0. -1.
         -3    1    1    2    0  502 -0.27494921436E+02  0.28464699191E+02  0.97434350743E+01  0.40757138416E+02  0.00000000000E+00 0.  1.
<scales pt_clust_5="13000.00000" pt_clust_6="13000.00000" pt_clust_7="13000.00000" pt_clust_8="13000.00000" pt_clust_9="13000.00000"></scales>
<clustering>
<clus scale="   89.675">  5  6 -1 -1</clus>
<clus scale="   90.731">  7  8 -1 -1</clus>
<clus scale="   39.575">  7  9 -1 -1</clus>
<clus scale="  105.038">  2  5  1 -1</clus>
<clus scale="  137.403">  1  5  2 -1</clus>
</clustering>
</event>
<event>
 9    1  0.3312826E-006  0.2432379E+03  0.7546771E-02  0.1152603E+00
         -3   -1    0    0    0  501 -0.00000000000E+00  0.00000000000E+00  0.44043473085E+03  0.44043473085E+03  0.00000000000E+00 0.  1.
         21   -1    0    0  501  502  0.00000000000E+00 -0.00000000000E+00 -0.10281931997E+03  0.10281931997E+03  0.00000000000E+00 0.  1.
         23    2    1    2    0    0  0.45844516639E+02  0.31270886609E+01  0.27222685128E+03  0.29138037063E+03  0.93185639700E+02 0.  0.
         23    2    1    2    0    0 -0.38269743928E+02  0.92592488313E+02  0.74692568178E+02  0.15540514037E+03  0.92378762280E+02 0.  0.
        -11    1    3    3    0    0 -0.26602823060E+02 -0.32614910398E+01  0.11597451103E+03  0.11903123425E+03  0.00000000000E+00 0. -1.
         11    1    3    3    0    0  0.72447339699E+02  0.63885797007E+01  0.15625234025E+03  0.17234913638E+03  0.00000000000E+00 0.  1.
        -13    1    4    4    0    0  0.25420634303E+02  0.76444030233E+01  0.30414923471E+02  0.40369705420E+02  0.00000000000E+00 0.  1.
         13    1    4    4    0    0 -0.63690378231E+02  0.84948085290E+02  0.44277644707E+02  0.11503543495E+03  0.00000000000E+00 0. -1.
         -3    1    1    2    0  502 -0.75747727105E+01 -0.95719576974E+02 -0.93040085714E+01  0.96468539810E+02  0.00000000000E+00 0.  1.
<scales pt_clust_5="13000.00000" pt_clust_6="13000.00000" pt_clust_7="13000.00000" pt_clust_8="13000.00000" pt_clust_9="13000.00000"></scales>
<clustering>
<clus scale="   92.379">  7  8 -1 -1</clus>
<clus scale="   93.186">  5  6 -1 -1</clus>
<clus scale="   96.019">  7  9 -1 -1</clus>
<clus scale="  103.899">  1  5  2 -1</clus>
<clus scale="  243.238">  2  5  1 -1</clus>
</clustering>
</event>
<event>
 9    1  0.3312826E-006  0.2730035E+03  0.7546771E-02  0.1134969E+00
         21   -1    0    0  501  502  0.00000000000E+00  0.00000000000E+00  0.72891534003E+02  0.72891534003E+02  0.00000000000E+00 0.  1.
          2   -1    0    0  502    0 -0.00000000000E+00 -0.00000000000E+00 -0.50961374210E+03  0.50961374210E+03  0.00000000000E+00 0. -1.
         23    2    1    2    0    0 -0.12932562582E+02 -0.58230499294E+02 -0.11616732682E+03  0.16145144120E+03  0.94940390880E+02 0.  0.
         23    2    1    2    0    0  0.42339090403E+02  0.14790892366E+03 -0.21331457104E+03  0.27819919615E+03  0.90675455590E+02 0.  0.
        -13    1    3    3    0    0 -0.45063673179E+02 -0.51855447532E+02 -0.10748198806E+03  0.12756214108E+03  0.00000000000E+00 0.  1.
         13    1    3    3    0    0  0.32131110597E+02 -0.63750517613E+01 -0.86853387654E+01  0.33889300120E+02  0.00000000000E+00 0. -1.
        -13    1    4    4    0    0  0.19944001329E+02  0.11086980926E+03 -0.80355310319E+02  0.13837215648E+03  0.00000000000E+00 0.  1.
         13    1    4    4    0    0  0.22395089075E+02  0.37039114402E+02 -0.13295926072E+03  0.13982703966E+03  0.00000000000E+00 0. -1.
          2    1    1    2  501    0 -0.29406527821E+02 -0.89678424364E+02 -0.10724031023E+03  0.14285463875E+03  0.00000000000E+00 0. -1.
<scales pt_clust_5="13000.00000" pt_clust_6="13000.00000" pt_clust_7="13000.00000" pt_clust_8="13000.00000" pt_clust_9="13000.00000"></scales>
<clustering>
<clus scale="   90.675">  7  8 -1 -1</clus>
<clus scale="   94.377">  7  9 -1 -1</clus>
<clus scale="   94.940">  5  6 -1 -1</clus>
<clus scale="  112.124">  2  5  1 -1</clus>
<clus scale="  273.003">  1  5  2 -1</clus>
</clustering>
</event>
<event>
 9    1  0.3312826E-006  0.2193832E+03  0.7546771E-02  0.1171501E+00
          2   -1    0    0  502    0 -0.00000000000E+00  0.00000000000E+00  0.64058431963E+03  0.64058431963E+03  0.00000000000E+00 0. -1.
         21   -1    0    0  501  502  0.00000000000E+00 -0.00000000000E+00 -0.37807881698E+02  0.37807881698E+02  0.00000000000E+00 0. -1.
         23    2    1    2    0    0 -0.25263279731E+02  0.18293262044E+02  0.19538610799E+03  0.21568725558E+03  0.85862589562E+02 0.  0.
         23    2    1    2    0    0  0.11583760978E+01 -0.76000381347E+02  0.37278966591E+03  0.39123212610E+03  0.91175883230E+02 0.  0.
        -11    1    3    3    0    0  0.16687780219E+02  0.38732797583E+02  0.11810928256E+03  0.12541337347E+03  0.00000000000E+00 0.  1.
         11    1    3    3    0    0 -0.41951059949E+02 -0.20439535539E+02  0.77276825426E+02  0.90273882114E+02  0.00000000000E+00 0. -1.
        -13    1    4    4    0    0 -0.14693339035E+02  0.15631841004E+02  0.11951375896E+03  0.12142399781E+03  0.00000000000E+00 0.  1.
         13    1    4    4    0    0  0.15851715133E+02 -0.91632222351E+02  0.25327590695E+03  0.26980812828E+03  0.00000000000E+00 0. -1.
          2    1    1    2  501    0  0.24104903633E+02  0.57707119303E+02  0.34600664041E+02  0.71472819656E+02  0.00000000000E+00 0. -1.
<scales pt_clust_5="13000.00000" pt_clust_6="13000.00000" pt_clust_7="13000.00000" pt_clust_8="13000.00000" pt_clust_9="13000.00000"></scales>
<clustering>
<clus scale="   85.863">  5  6 -1 -1</clus>
<clus scale="   91.176">  7  8 -1 -1</clus>
<clus scale="   62.539">  7  9 -1 -1</clus>
<clus scale="   91.352">  1  5  2 -1</clus>
<clus scale="  219.383">  2  5  1 -1</clus>
</clustering>
</event>
<event>
 9    1  0.3312826E-006  0.2992190E+03  0.7546771E-02  0.1105930E+00
          1   -1    0    0  502    0 -0.00000000000E+00  0.00000000000E+00  0.12478420511E+04  0.12478420511E+04  0.00000000000E+00 0. -1.
         21   -1    0    0  501  502  0.00000000000E+00 -0.00000000000E+00 -0.10340714986E+03  0.10340714986E+03  0.00000000000E+00 0. -1.
         23    2    1    2    0    0 -0.13748105004E+03 -0.57346057479E+02  0.10065024135E+04  0.10217687737E+04  0.93673416915E+02 0.  0.
         23    2    1    2    0    0  0.13712486747E+01  0.70907361139E+02  0.15173393109E+03  0.19200218603E+03  0.93871824364E+02 0.  0.
        -13    1    3    3    0    0 -0.39894912836E+02  0.26007150401E+02  0.26903689018E+03  0.27321937015E+03  0.00000000000E+00 0.  1.
         13    1    3    3    0    0 -0.97586137203E+02 -0.83353207881E+02  0.73746552334E+03  0.74854940355E+03  0.00000000000E+00 0. -1.
        -13    1    4    4    0    0  0.30593759312E+02  0.65391213219E+02  0.54879055174E+02  0.90684615960E+02  0.00000000000E+00 0.  1.
         13    1    4    4    0    0 -0.29222510637E+02  0.55161479204E+01  0.96854875919E+02  0.10131757007E+03  0.00000000000E+00 0. -1.
          1    1    1    2  501    0  0.13610980136E+03 -0.13561303660E+02 -0.13801443341E+02  0.13747824127E+03  0.00000000000E+00 0. -1.
<scales pt_clust_5="13000.00000" pt_clust_6="13000.00000" pt_clust_7="13000.00000" pt_clust_8="13000.00000" pt_clust_9="13000.00000"></scales>
<clustering>
<clus scale="   93.673">  5  6 -1 -1</clus>
<clus scale="   93.872">  7  8 -1 -1</clus>
<clus scale="  136.784">  7  9 -1 -1</clus>
<clus scale="  175.967">  1  5  2 -1</clus>
<clus scale="  299.219">  2  5  1 -1</clus>
</clustering>
</event>
<event>
 9    1  0.3312826E-006  0.6960870E+03  0.7546771E-02  0.1010694E+00
         21   -1    0    0  501  502  0.00000000000E+00  0.00000000000E+00  0.28740840610E+03  0.28740840610E+03  0.00000000000E+00 0.  1.
         -3   -1    0    0    0  501 -0.00000000000E+00 -0.00000000000E+00 -0.71142901719E+03  0.71142901719E+03  0.00000000000E+00 0.  1.
         23    2    1    2    0    0 -0.14978726783E+03  0.10208088433E+03 -0.13908691761E+03  0.24669094564E+03  0.93029669800E+02 0.  0.
         23    2    1    2    0    0 -0.11722305802E+03 -0.11008205257E+02 -0.41548792183E+03  0.44128774201E+03  0.90786739910E+02 0.  0.
        -11    1    4    4    0    0 -0.34171469845E+02  0.30894432209E+02 -0.22031703113E+03  0.22508165074E+03  0.00000000000E+00 0.  1.
         11    1    4    4    0    0 -0.83051588171E+02 -0.41902637466E+02 -0.19517089070E+03  0.21620609127E+03  0.00000000000E+00 0. -1.
        -11    1    3    3    0    0 -0.22378367211E+02  0.61787897309E+02 -0.70898533843E+02  0.96670252270E+02  0.00000000000E+00 0. -1.
         11    1    3    3    0    0 -0.12740890062E+03  0.40292987025E+02 -0.68188383763E+02  0.15002069337E+03  0.00000000000E+00 0.  1.
         -3    1    1    2    0  502  0.26701032584E+03 -0.91072679077E+02  0.13055422835E+03  0.31085873564E+03  0.00000000000E+00 0.  1.
<scales pt_clust_5="13000.00000" pt_clust_6="13000.00000" pt_clust_7="13000.00000" pt_clust_8="13000.00000" pt_clust_9="13000.00000"></scales>
<clustering>
<clus scale="   90.787">  5  6 -1 -1</clus>
<clus scale="   93.030">  7  8 -1 -1</clus>
<clus scale="  203.743">  2  7  1 -1</clus>
<clus scale="  251.878">  5  9 -1 -1</clus>
<clus scale="  696.087">  1  5  2 -1</clus>
</clustering>
</event>
<event>
 9    1  0.3312826E-006  0.2393398E+03  0.7546771E-02  0.1155552E+00
         21   -1    0    0  501  502  0.00000000000E+00  0.00000000000E+00  0.22078838101E+03  0.22078838101E+03  0.00000000000E+00 0. -1.
          2   -1    0    0  502    0 -0.00000000000E+00 -0.00000000000E+00 -0.16236678072E+03  0.16236678072E+03  0.00000000000E+00 0. -1.
         23    2    1    2    0    0 -0.76252339879E+01 -0.45526110520E+02 -0.57871825480E+02  0.11705802842E+03  0.90678899975E+02 0.  0.
         23    2    1    2    0    0 -0.80567976830E+02 -0.18473366211E+02  0.98472665308E+01  0.11376604563E+03  0.77545343701E+02 0.  0.
        -11    1    4    4    0    0  0.36943567529E+00  0.20843841076E+02 -0.74472913622E+01  0.22137396915E+02  0.00000000000E+00 0.  1.
         11    1    4    4    0    0 -0.80937412506E+02 -0.39317207288E+02  0.17294557893E+02  0.91628648712E+02  0.00000000000E+00 0. -1.
        -13    1    3    3    0    0  0.18373700675E+02  0.22153864681E+02 -0.21624464544E+02  0.36000056439E+02  0.00000000000E+00 0.  1.
         13    1    3    3    0    0 -0.25998934663E+02 -0.67679975201E+02 -0.36247360936E+02  0.81057971981E+02  0.00000000000E+00 0. -1.
          2    1    1    2  501    0  0.88193210818E+02  0.63999476731E+02  0.10644615924E+03  0.15233108768E+03  0.00000000000E+00 0. -1.
<scales pt_clust_5="13000.00000" pt_clust_6="13000.00000" pt_clust_7="13000.00000" pt_clust_8="13000.00000" pt_clust_9="13000.00000"></scales>
<clustering>
<clus scale="   77.545">  5  6 -1 -1</clus>
<clus scale="   90.679">  7  8 -1 -1</clus>
<clus scale="  101.752">  2  7  1 -1</clus>
<clus scale="   99.383">  5  9 -1 -1</clus>
<clus scale="  239.340">  1  5  2 -1</clus>
</clustering>
</event>
<event>
 9    1  0.3312826E-006  0.1272080E+03  0.7546771E-02  0.1236390E+00
         21   -1    0    0  501  502  0.00000000000E+00  0.00000000000E+00  0.32819513238E+03  0.32819513238E+03  0.00000000000E+00 0.  1.
         -3   -1    0    0    0  501 -0.00000000000E+00 -0.00000000000E+00 -0.49562590056E+02  0.49562590056E+02  0.00000000000E+00 0.  1.
         23    2    1    2    0    0 -0.44649155529E+02 -0.53982727729E+02  0.19138086093E+03  0.22350231230E+03  0.91754932786E+02 0.  0.
         23    2    1    2    0    0  0.32400031822E+02  0.24895436610E+02  0.70400725228E+02  0.11847739650E+03  0.86087667772E+02 0.  0.
        -11    1    4    4    0    0 -0.29629256878E+02  0.50122707505E+01  0.24826006191E+02  0.38978793011E+02  0.00000000000E+00 0. -1.
         11    1    4    4    0    0  0.62029288700E+02  0.19883165860E+02  0.45574719038E+02  0.79498603488E+02  0.00000000000E+00 0.  1.
        -11    1    3    3    0    0  0.17814732776E+02 -0.36672957314E+02  0.12164136563E+03  0.12829221463E+03  0.00000000000E+00 0. -1.
         11    1    3    3    0    0 -0.62463888305E+02 -0.17309770415E+02  0.69739495304E+02  0.95210097675E+02  0.00000000000E+00 0.  1.
         -3    1    1    2    0  502  0.12249123707E+02  0.29087291119E+02  0.16850956167E+02  0.35778013639E+02  0.00000000000E+00 0.  1.
<scales pt_clust_5="13000.00000" pt_clust_6="13000.00000" pt_clust_7="13000.00000" pt_clust_8="13000.00000" pt_clust_9="13000.00000"></scales>
<clustering>
<clus scale="   86.088">  5  6 -1 -1</clus>
<clus scale="   31.561">  5  9 -1 -1</clus>
<clus scale="   91.755">  7  8 -1 -1</clus>
<clus scale="  115.441">  2  7  1 -1</clus>
<clus scale="  127.208">  1  5  2 -1</clus>
</clustering>
</event>
<event>
 9    1  0.3312826E-006  0.3292196E+03  0.7546771E-02  0.1091766E+00
         21   -1    0    0  501  502  0.00000000000E+00  0.00000000000E+00  0.24071439957E+03  0.24071439957E+03  0.00000000000E+00 0. -1.
         -3   -1    0    0    0  501 -0.00000000000E+00 -0.00000000000E+00 -0.29032939220E+03  0.29032939220E+03  0.00000000000E+00 0.  1.
         23    2    1    2    0    0 -0.16788987554E+03 -0.13765758086E+02  0.27505414142E+02  0.19291204456E+03  0.89899959543E+02 0.  0.
         23    2    1    2    0    0 -0.52945079115E+02  0.51218095060E+01 -0.46384459049E+02  0.11500063436E+03  0.90797651543E+02 0.  0.
        -11    1    3    3    0    0 -0.92513702498E+02  0.29146179020E+02  0.40680822219E+02  0.10518181496E+03  0.00000000000E+00 0. -1.
         11    1    3    3    0    0 -0.75376173039E+02 -0.42911937106E+02 -0.13175408077E+02  0.87730229602E+02  0.00000000000E+00 0.  1.
        -13    1    4    4    0    0 -0.25746414122E+02 -0.34866770649E+02 -0.50398797374E+02  0.66472613250E+02  0.00000000000E+00 0.  1.
         13    1    4    4    0    0 -0.27198664993E+02  0.39988580154E+02  0.40143383246E+01  0.48528021105E+02  0.00000000000E+00 0. -1.
         -3    1    1    2    0  502  0.22083495465E+03  0.86439485796E+01 -0.30735947719E+02  0.22313111286E+03  0.00000000000E+00 0.  1.
<scales pt_clust_5="13000.00000" pt_clust_6="13000.00000" pt_clust_7="13000.00000" pt_clust_8="13000.00000" pt_clust_9="13000.00000"></scales>
<clustering>
<clus scale="   89.900">  5  6 -1 -1</clus>
<clus scale="   90.798">  7  8 -1 -1</clus>
<clus scale="  190.941">  2  5  1 -1</clus>
<clus scale="  118.195">  7  9 -1 -1</clus>
<clus scale="  329.220">  1  5  2 -1</clus>
</clustering>
</event>
<event>
 9    1  0.3312826E-006  0.3045421E+03  0.7546771E-02  0.1115949E+00
          2   -1    0    0  502    0 -0.00000000000E+00  0.00000000000E+00  0.32658959225E+03  0.32658959225E+03  0.00000000000E+00 0. -1.
         21   -1    0    0  501  502  0.00000000000E+00 -0.00000000000E+00 -0.17429895337E+03  0.17429895337E+03  0.00000000000E+00 0.  1.
         23    2    1    2    0    0  0.38573052677E+02  0.24876300392E+02  0.14765682572E+03  0.19631117944E+03  0.12094970143E+03 0.  0.
         23    2    1    2    0    0  0.91943531730E+00 -0.14804413823E+03  0.15292223984E+02  0.17479456837E+03  0.91659024605E+02 0.  0.
        -11    1    3    3    0    0  0.70677714023E+02  0.13074187109E+02  0.37714040321E+02  0.81170329957E+02  0.00000000000E+00 0.  1.
         11    1    3    3    0    0 -0.32104661346E+02  0.11802113283E+02  0.10994278540E+03  0.11514084948E+03  0.00000000000E+00 0. -1.
        -13    1    4    4    0    0 -0.43929577187E+02 -0.52005536914E+02  0.80955483598E+01  0.68555973662E+02  0.00000000000E+00 0.  1.
         13    1    4    4    0    0  0.44849012504E+02 -0.96038601319E+02  0.71966756245E+01  0.10623859471E+03  0.00000000000E+00 0. -1.
          2    1    1    2  501    0 -0.39492487994E+02  0.12316783784E+03 -0.10658410821E+02  0.12978279781E+03  0.00000000000E+00 0. -1.
<scales pt_clust_5="13000.00000" pt_clust_6="13000.00000" pt_clust_7="13000.00000" pt_clust_8="13000.00000" pt_clust_9="13000.00000"></scales>
<clustering>
<clus scale="   91.659">  7  8 -1 -1</clus>
<clus scale="  120.950">  5  6 -1 -1</clus>
<clus scale="  129.344">  7  9 -1 -1</clus>
<clus scale="  129.366">  1  5  2 -1</clus>
<clus scale="  304.542">  2  5  1 -1</clus>
</clustering>
</event>
<event>
 9    1  0.3312826E-006  0.1801037E+03  0.7546771E-02  0.1189664E+00
         -1   -1    0    0    0  501 -0.00000000000E+00  0.00000000000E+00  0.20445208300E+03  0.20445208300E+03  0.00000000000E+00 0.  1.
         21   -1    0    0  501  502  0.00000000000E+00 -0.00000000000E+00 -0.47603504864E+03  0.47603504864E+03  0.00000000000E+00 0. -1.
         23    2    1    2    0    0 -0.60341984962E+02  0.91443181344E+01  0.17068490304E+03  0.20295365188E+03  0.91280200389E+02 0.  0.
         23    2    1    2    0    0  0.57226170500E+02  0.51818448060E+02 -0.28210694262E+03  0.30613426915E+03  0.90409499060E+02 0.  0.
        -11    1    3    3    0    0 -0.26328668262E+02 -0.41143273623E+02  0.82904378246E+02  0.96224236392E+02  0.00000000000E+00 0.  1.
         11    1    3    3    0    0 -0.34013316700E+02  0.50287591757E+02  0.87780524791E+02  0.10672941549E+03  0.00000000000E+00 0. -1.
        -13    1    4    4    0    0  0.37993646576E+02 -0.12759400678E+02 -0.48047272265E+02  0.62568840951E+02  0.00000000000E+00 0.  1.
         13    1    4    4    0    0  0.19232523924E+02  0.64577848738E+02 -0.23405967036E+03  0.24356542819E+03  0.00000000000E+00 0. -1.
         -1    1    1    2    0  502  0.31158144625E+01 -0.60962766194E+02 -0.16016092606E+03  0.17139921061E+03  0.00000000000E+00 0.  1.
<scales pt_clust_5="13000.00000" pt_clust_6="13000.00000" pt_clust_7="13000.00000" pt_clust_8="13000.00000" pt_clust_9="13000.00000"></scales>
<clustering>
<clus scale="   90.409">  7  8 -1 -1</clus>
<clus scale="   61.042">  7  9 -1 -1</clus>
<clus scale="   91.280">  5  6 -1 -1</clus>
<clus scale="  109.804">  1  5  2 -1</clus>
<clus scale="  180.104">  2  5  1 -1</clus>
</clustering>
</event>
<event>
 9    1  0.3312826E-006  0.4269817E+03  0.7546771E-02  0.1051450E+00
         21   -1    0    0  501  502  0.00000000000E+00  0.00000000000E+00  0.31118567522E+03  0.31118567522E+03  0.00000000000E+00 0.  1.
          2   -1    0    0  502    0 -0.00000000000E+00 -0.00000000000E+00 -0.57401968488E+03  0.57401968488E+03  0.00000000000E+00 0. -1.
         23    2    1    2    0    0  0.12624982044E+03  0.21313648177E+03 -0.36088495810E+03  0.44711019813E+03  0.91122989777E+02 0.  0.
         23    2    1    2    0    0 -0.11740464851E+03 -0.28671567021E+03  0.14071642590E+03  0.35258213953E+03  0.92321858535E+02 0.  0.
        -13    1    4    4    0    0 -0.12418980732E+03 -0.25761658833E+03  0.10190604145E+03  0.30360213455E+03  0.00000000000E+00 0.  1.
         13    1    4    4    0    0  0.67851588062E+01 -0.29099081887E+02  0.38810384450E+02  0.48980004980E+02  0.00000000000E+00 0. -1.
        -13    1    3    3    0    0  0.94576372756E+02  0.20125455010E+03 -0.26790984685E+03  0.34817204118E+03  0.00000000000E+00 0. -1.
         13    1    3    3    0    0  0.31673447682E+02  0.11881931666E+02 -0.92975111252E+02  0.98938156949E+02  0.00000000000E+00 0.  1.
          2    1    1    2  501    0 -0.88451719260E+01  0.73579188447E+02 -0.42665477458E+02  0.85513022433E+02  0.00000000000E+00 0. -1.
<scales pt_clust_5="13000.00000" pt_clust_6="13000.00000" pt_clust_7="13000.00000" pt_clust_8="13000.00000" pt_clust_9="13000.00000"></scales>
<clustering>
<clus scale="   91.123">  7  8 -1 -1</clus>
<clus scale="   92.322">  5  6 -1 -1</clus>
<clus scale="   74.109">  5  9 -1 -1</clus>
<clus scale="  263.950">  2  7  1 -1</clus>
<clus scale="  426.982">  1  5  2 -1</clus>
</clustering>
</event>
<event>
 9    1  0.3312826E-006  0.5088477E+03  0.7546771E-02  0.1020450E+00
         21   -1    0    0  501  502  0.00000000000E+00  0.00000000000E+00  0.48253245821E+03  0.48253245821E+03  0.00000000000E+00 0. -1.
          1   -1    0    0  502    0 -0.00000000000E+00 -0.00000000000E+00 -0.53927317512E+03  0.53927317512E+03  0.00000000000E+00 0. -1.
         23    2    1    2    0    0 -0.29359741137E+03  0.23535691264E+03 -0.26796612312E+03  0.47085900166E+03  0.91159420869E+02 0.  0.
         23    2    1    2    0    0  0.53704047274E+02  0.40762652105E+02 -0.27805204905E+02  0.11399529202E+03  0.87613233493E+02 0.  0.
        -11    1    4    4    0    0 -0.11608782666E+02  0.34009829760E+02 -0.32111602567E+02  0.48193229553E+02  0.00000000000E+00 0. -1.
         11    1    4    4    0    0  0.65312829940E+02  0.67528223449E+01  0.43063976625E+01  0.65802062469E+02  0.00000000000E+00 0.  1.
        -11    1    3    3    0    0 -0.27420224984E+03  0.24136043585E+03 -0.26250596366E+03  0.44983454155E+03  0.00000000000E+00 0. -1.
         11    1    3    3    0    0 -0.19395161525E+02 -0.60035232126E+01 -0.54601594605E+01  0.21024460109E+02  0.00000000000E+00 0.  1.
          1    1    1    2  501    0  0.23989336409E+03 -0.27611956475E+03  0.23903061112E+03  0.43695133965E+03  0.00000000000E+00 0. -1.
<scales pt_clust_5="13000.00000" pt_clust_6="13000.00000" pt_clust_7="13000.00000" pt_clust_8="13000.00000" pt_clust_9="13000.00000"></scales>
<clustering>
<clus scale="   87.613">  5  6 -1 -1</clus>
<clus scale="   91.159">  7  8 -1 -1</clus>
<clus scale="  365.774">  5  9 -1 -1</clus>
<clus scale="  387.172">  2  7  1 -1</clus>
<clus scale="  508.848">  1  5  2 -1</clus>
</clustering>
</event>
<event>
 9    1  0.3532440E-006  0.3409799E+03  0.7546771E-02  0.1107750E+00
         -4   -1    0    0    0  501 -0.00000000000E+00  0.00000000000E+00  0.25297805703E+03  0.25297805703E+03  0.00000000000E+00 0.  1.
         21   -1    0    0  501  502  0.00000000000E+00 -0.00000000000E+00 -0.21273627355E+03  0.21273627355E+03  0.00000000000E+00 0.  1.
         23    2    1    2    0    0  0.58531001284E+02 -0.33802500189E+02 -0.30401090372E+02  0.11749359497E+03  0.91170342948E+02 0.  0.
         23    2    1    2    0    0  0.11039094275E+02 -0.35947712894E+02  0.17778345637E+03  0.20267282307E+03  0.89750856196E+02 0.  0.
        -11    1    3    3    0    0  0.69632600196E+02 -0.55500339530E+02 -0.22107237192E+02  0.91748115154E+02  0.00000000000E+00 0.  1.
         11    1    3    3    0    0 -0.11101598912E+02  0.21697839341E+02 -0.82938531796E+01  0.25745479818E+02  0.00000000000E+00 0. -1.
        -13    1    4    4    0    0 -0.79913617912E+01 -0.61347821131E+02  0.14170355825E+03  0.15461990635E+03  0.00000000000E+00 0.  1.
         13    1    4    4    0    0  0.19030456067E+02  0.25400108237E+02  0.36079898128E+02  0.48052916722E+02  0.00000000000E+00 0. -1.
         -4    1    1    2    0  502 -0.69570095560E+02  0.69750213083E+02 -0.10714058252E+03  0.14554791254E+03  0.00000000000E+00 0.  1.
<scales pt_clust_5="13000.00000" pt_clust_6="13000.00000" pt_clust_7="13000.00000" pt_clust_8="13000.00000" pt_clust_9="13000.00000"></scales>
<clustering>
<clus scale="   89.751">  7  8 -1 -1</clus>
<clus scale="   91.170">  5  6 -1 -1</clus>
<clus scale="   98.514">  7  9 -1 -1</clus>
<clus scale="  113.492">  1  5  2 -1</clus>
<clus scale="  340.980">  2  5  1 -1</clus>
</clustering>
</event>
<event>
 9    1  0.3312826E-006  0.2756061E+03  0.7546771E-02  0.1106382E+00
         -3   -1    0    0    0  501 -0.00000000000E+00  0.00000000000E+00  0.94746634316E+02  0.94746634316E+02  0.00000000000E+00 0.  1.
         21   -1    0    0  501  502  0.00000000000E+00 -0.00000000000E+00 -0.79716275882E+03  0.79716275882E+03  0.00000000000E+00 0.  1.
         23    2    1    2    0    0 -0.20259425421E+03 -0.18716890436E+02 -0.13298876130E+03  0.25929081940E+03  0.90282692511E+02 0.  0.
         23    2    1    2    0    0  0.34755047780E+02  0.37105193290E+02 -0.17732233245E+03  0.20570583787E+03  0.91032815156E+02 0.  0.
        -11    1    3    3    0    0 -0.17742364835E+02 -0.29899000845E+02 -0.36741447525E+02  0.50583354255E+02  0.00000000000E+00 0. -1.
         11    1    3    3    0    0 -0.18485188937E+03  0.11182110409E+02 -0.96247313771E+02  0.20870746514E+03  0.00000000000E+00 0.  1.
        -13    1    4    4    0    0  0.32279970307E+01  0.34890426398E+02 -0.11469896109E+02  0.36868961686E+02  0.00000000000E+00 0.  1.
         13    1    4    4    0    0  0.31527050749E+02  0.22147668924E+01 -0.16585243634E+03  0.16883687619E+03  0.00000000000E+00 0. -1.
         -3    1    1    2    0  502  0.16783920643E+03 -0.18388302854E+02 -0.39210503076E+03  0.42691273586E+03  0.00000000000E+00 0.  1.
<scales pt_clust_5="13000.00000" pt_clust_6="13000.00000" pt_clust_7="13000.00000" pt_clust_8="13000.00000" pt_clust_9="13000.00000"></scales>
<clustering>
<clus scale="   90.283">  5  6 -1 -1</clus>
<clus scale="   91.033">  7  8 -1 -1</clus>
<clus scale="  168.844">  7  9 -1 -1</clus>
<clus scale="  222.589">  1  5  2 -1</clus>
<clus scale="  275.606">  2  5  1 -1</clus>
</clustering>
</event>
<event>
 9    1  0.3312826E-006  0.4007706E+03  0.7546771E-02  0.1080374E+00
         -1   -1    0    0    0  501 -0.00000000000E+00  0.00000000000E+00  0.56282272684E+03  0.56282272684E+03  0.00000000000E+00 0.  1.
         21   -1    0    0  501  502  0.00000000000E+00 -0.00000000000E+00 -0.13901410288E+03  0.13901410288E+03  0.00000000000E+00 0.  1.
         23    2    1    2    0    0 -0.49287346301E+02 -0.98238095770E+02  0.18942961008E+03  0.23756257584E+03  0.92045827164E+02 0.  0.
         23    2    1    2    0    0 -0.43878300113E+02 -0.12234308411E+03  0.71201435009E+02  0.17451087312E+03  0.92148060412E+02 0.  0.
        -11    1    3    3    0    0 -0.66682397413E+02 -0.30793964298E+02  0.90065430079E+02  0.11621786462E+03  0.00000000000E+00 0.  1.
         11    1    3    3    0    0  0.17395051111E+02 -0.67444131472E+02  0.99364179996E+02  0.12134471121E+03  0.00000000000E+00 0. -1.
        -13    1    4    4    0    0  0.16450305945E+02 -0.12571806375E+02  0.40593477223E+02  0.45568555762E+02  0.00000000000E+00 0. -1.
         13    1    4    4    0    0 -0.60328606057E+02 -0.10977127774E+03  0.30607957786E+02  0.12894231735E+03  0.00000000000E+00 0.  1.
         -1    1    1    2    0  502  0.93165646414E+02  0.22058117988E+03  0.16317757888E+03  0.28976338077E+03  0.00000000000E+00 0.  1.
<scales pt_clust_5="13000.00000" pt_clust_6="13000.00000" pt_clust_7="13000.00000" pt_clust_8="13000.00000" pt_clust_9="13000.00000"></scales>
<clustering>
<clus scale="   92.046">  5  6 -1 -1</clus>
<clus scale="   92.148">  7  8 -1 -1</clus>
<clus scale="  143.361">  1  5  2 -1</clus>
<clus scale="  168.411">  7  9 -1 -1</clus>
<clus scale="  400.771">  2  5  1 -1</clus>
</clustering>
</event>
<event>
 9    1  0.3312826E-006  0.2363576E+03  0.7546771E-02  0.1149964E+00
          1   -1    0    0  502    0 -0.00000000000E+00  0.00000000000E+00  0.65726829602E+03  0.65726829602E+03  0.00000000000E+00 0. -1.
         21   -1    0    0  501  502  0.00000000000E+00 -0.00000000000E+00 -0.68205408770E+02  0.68205408770E+02  0.00000000000E+00 0. -1.
         23    2    1    2    0    0 -0.93464545244E+01 -0.78746940794E+02  0.41442680680E+03  0.43159845776E+03  0.90770114284E+02 0.  0.
         23    2    1    2    0    0  0.83603354239E+02  0.43183882571E+01  0.57545539179E+02  0.13650977610E+03  0.91188050606E+02 0.  0.
        -11    1    4    4    0    0  0.47912791389E+02 -0.42007280318E+02  0.19087174649E+02  0.66517421887E+02  0.00000000000E+00 0. -1.
         11    1    4    4    0    0  0.35690562850E+02  0.46325668575E+02  0.38458364530E+02  0.69992354209E+02  0.00000000000E+00 0.  1.
        -11    1    3    3    0    0 -0.35794916580E+02 -0.82030274858E+02  0.36052038290E+03  0.37146357632E+03  0.00000000000E+00 0. -1.
         11    1    3    3    0    0  0.26448462056E+02  0.32833340640E+01  0.53906423897E+02  0.60134881434E+02  0.00000000000E+00 0.  1.
          1    1    1    2  501    0 -0.74256899715E+02  0.74428552537E+02  0.11709054127E+03  0.15736547094E+03  0.00000000000E+00 0. -1.
<scales pt_clust_5="13000.00000" pt_clust_6="13000.00000" pt_clust_7="13000.00000" pt_clust_8="13000.00000" pt_clust_9="13000.00000"></scales>
<clustering>
<clus scale="   90.770">  7  8 -1 -1</clus>
<clus scale="   91.188">  5  6 -1 -1</clus>
<clus scale="  105.137">  5  9 -1 -1</clus>
<clus scale="  120.531">  1  7  2 -1</clus>
<clus scale="  236.358">  2  5  1 -1</clus>
</clustering>
</event>
<event>
 9    1  0.3312826E-006  0.3259479E+03  0.7546771E-02  0.1102986E+00
         21   -1    0    0  501  502  0.00000000000E+00  0.00000000000E+00  0.21294134052E+03  0.21294134052E+03  0.00000000000E+00 0.  1.
         -3   -1    0    0    0  501 -0.00000000000E+00 -0.00000000000E+00 -0.26817551785E+03  0.26817551785E+03  0.00000000000E+00 0.  1.
         23    2    1    2    0    0  0.92658472086E+02 -0.66975250232E+02 -0.50016253345E+02  0.15512716707E+03  0.92149529419E+02 0.  0.
         23    2    1    2    0    0 -0.55184412194E+01  0.21358737601E+02 -0.13416571862E+03  0.16381144077E+03  0.91362460620E+02 0.  0.
        -13    1    3    3    0    0  0.18494455294E+02  0.21540933997E+02 -0.22978939891E+02  0.36525174779E+02  0.00000000000E+00 0. -1.
         13    1    3    3    0    0  0.74164016791E+02 -0.88516184229E+02 -0.27037313455E+02  0.11860199229E+03  0.00000000000E+00 0.  1.
        -13    1    4    4    0    0 -0.15602489792E+02 -0.32359651253E+02 -0.75610963272E+02  0.83711423855E+02  0.00000000000E+00 0.  1.
         13    1    4    4    0    0  0.10084048573E+02  0.53718388854E+02 -0.58554755344E+02  0.80100016917E+02  0.00000000000E+00 0. -1.
         -3    1    1    2    0  502 -0.87140030866E+02  0.45616512631E+02  0.12894779464E+03  0.16217825053E+03  0.00000000000E+00 0.  1.
<scales pt_clust_5="13000.00000" pt_clust_6="13000.00000" pt_clust_7="13000.00000" pt_clust_8="13000.00000" pt_clust_9="13000.00000"></scales>
<clustering>
<clus scale="   91.362">  7  8 -1 -1</clus>
<clus scale="   92.150">  5  6 -1 -1</clus>
<clus scale="   98.358">  7  9 -1 -1</clus>
<clus scale="  146.843">  2  5  1 -1</clus>
<clus scale="  325.948">  1  5  2 -1</clus>
</clustering>
</event>
<event>
 9    1  0.3312826E-006  0.5613421E+03  0.7546771E-02  0.1040617E+00
          1   -1    0    0  502    0 -0.00000000000E+00  0.00000000000E+00  0.11082317715E+04  0.11082317715E+04  0.00000000000E+00 0. -1.
         21   -1    0    0  501  502  0.00000000000E+00 -0.00000000000E+00 -0.12192254950E+03  0.12192254950E+03  0.00000000000E+00 0. -1.
         23    2    1    2    0    0  0.12776806689E+03 -0.18170779539E+02  0.33273322844E+03  0.36860540112E+03  0.92215423244E+02 0.  0.
         23    2    1    2    0    0  0.14890448234E+03 -0.16698095719E+02  0.52640601973E+03  0.55505953964E+03  0.92392768482E+02 0.  0.
        -11    1    4    4    0    0  0.78349692050E+02  0.31242095577E+02  0.18777141450E+03  0.20584665866E+03  0.00000000000E+00 0. -1.
         11    1    4    4    0    0  0.70554790294E+02 -0.47940191296E+02  0.33863460524E+03  0.34921288098E+03  0.00000000000E+00 0.  1.
        -11    1    3    3    0    0  0.27085350052E+02 -0.26976360909E+02  0.27544955757E+02  0.47117563848E+02  0.00000000000E+00 0.  1.
         11    1    3    3    0    0  0.10068271683E+03  0.88055813704E+01  0.30518827268E+03  0.32148783727E+03  0.00000000000E+00 0. -1.
          1    1    1    2  501    0 -0.27667254923E+03  0.34868875258E+02  0.12716997385E+03  0.30648938025E+03  0.00000000000E+00 0. -1.
<scales pt_clust_5="13000.00000" pt_clust_6="13000.00000" pt_clust_7="13000.00000" pt_clust_8="13000.00000" pt_clust_9="13000.00000"></scales>
<clustering>
<clus scale="   92.215">  7  8 -1 -1</clus>
<clus scale="   92.393">  5  6 -1 -1</clus>
<clus scale="  158.614">  1  7  2 -1</clus>
<clus scale="  241.929">  5  9 -1 -1</clus>
<clus scale="  561.342">  2  5  1 -1</clus>
</clustering>
</event>
<event>
 9    1  0.5680371E-006  0.4658495E+03  0.7546771E-02  0.1044440E+00
          2   -1    0    0  502    0 -0.00000000000E+00  0.00000000000E+00  0.68422808618E+03  0.68422808618E+03  0.00000000000E+00 0.  1.
         21   -1    0    0  501  502  0.00000000000E+00 -0.00000000000E+00 -0.18642666836E+03  0.18642666836E+03  0.00000000000E+00 0.  1.
         23    2    1    2    0    0 -0.20632430742E+03  0.10340863031E+03  0.17543889206E+03  0.30414499300E+03  0.91990799890E+02 0.  0.
         23    2    1    2    0    0 -0.25259098122E+02  0.34838120479E+02  0.27369783141E+03  0.29244537074E+03  0.93605957468E+02 0.  0.
        -13    1    3    3    0    0 -0.15803330594E+03  0.10457744068E+03  0.17166135538E+03  0.25569236949E+03  0.00000000000E+00 0.  1.
         13    1    3    3    0    0 -0.48291001479E+02 -0.11688103686E+01  0.37775366825E+01  0.48452623509E+02  0.00000000000E+00 0. -1.
        -13    1    4    4    0    0 -0.56813972635E+02  0.41020515676E+02  0.16999081735E+03  0.18386785520E+03  0.00000000000E+00 0.  1.
         13    1    4    4    0    0  0.31554874513E+02 -0.61823951972E+01  0.10370701406E+03  0.10857751554E+03  0.00000000000E+00 0. -1.
          2    1    1    2  501    0  0.23158340554E+03 -0.13824675079E+03  0.48664694350E+02  0.27406439080E+03  0.00000000000E+00 0.  1.
<scales pt_clust_5="13000.00000" pt_clust_6="13000.00000" pt_clust_7="13000.00000" pt_clust_8="13000.00000" pt_clust_9="13000.00000"></scales>
<clustering>
<clus scale="   91.991">  5  6 -1 -1</clus>
<clus scale="   93.606">  7  8 -1 -1</clus>
<clus scale="  248.446">  1  5  2 -1</clus>
<clus scale="  186.244">  7  9 -1 -1</clus>
<clus scale="  465.849">  2  5  1 -1</clus>
</clustering>
</event>
<event>
 9    1  0.3312826E-006  0.2472414E+03  0.7546771E-02  0.1148875E+00
         21   -1    0    0  501  502  0.00000000000E+00  0.00000000000E+00  0.14141652136E+03  0.14141652136E+03  0.00000000000E+00 0. -1.
          3   -1    0    0  502    0 -0.00000000000E+00 -0.00000000000E+00 -0.23921112210E+03  0.23921112210E+03  0.00000000000E+00 0. -1.
         23    2    1    2    0    0  0.17266830676E+02  0.47865350016E+02 -0.76650141032E+02  0.13248377986E+03  0.95328236273E+02 0.  0.
         23    2    1    2    0    0  0.13990132018E+01  0.54041043299E+00 -0.11095472556E+03  0.14442590362E+03  0.92442637515E+02 0.  0.
        -13    1    4    4    0    0  0.45285973539E+02  0.32795541277E+01 -0.37832745763E+02  0.59100689730E+02  0.00000000000E+00 0.  1.
         13    1    4    4    0    0 -0.43886960337E+02 -0.27391436947E+01 -0.73121979798E+02  0.85325213890E+02  0.00000000000E+00 0. -1.
        -13    1    3    3    0    0  0.68660617351E+01 -0.29228913441E+02 -0.17449937048E+02  0.34727114588E+02  0.00000000000E+00 0.  1.
         13    1    3    3    0    0  0.10400768941E+02  0.77094263456E+02 -0.59200203985E+02  0.97756665268E+02  0.00000000000E+00 0. -1.
          3    1    1    2  501    0 -0.18665843878E+02 -0.48405760449E+02  0.89810265846E+02  0.10371795999E+03  0.00000000000E+00 0. -1.
<scales pt_clust_5="13000.00000" pt_clust_6="13000.00000" pt_clust_7="13000.00000" pt_clust_8="13000.00000" pt_clust_9="13000.00000"></scales>
<clustering>
<clus scale="   92.443">  5  6 -1 -1</clus>
<clus scale="   51.880">  5  9 -1 -1</clus>
<clus scale="   95.328">  7  8 -1 -1</clus>
<clus scale="  108.059">  2  7  1 -1</clus>
<clus scale="  247.241">  1  5  2 -1</clus>
</clustering>
</event>
<event>
 9    1  0.3312826E-006  0.4677341E+03  0.7546771E-02  0.1024737E+00
          2   -1    0    0  502    0 -0.00000000000E+00  0.00000000000E+00  0.37417676874E+04  0.37417676874E+04  0.00000000000E+00 0.  1.
         21   -1    0    0  501  502  0.00000000000E+00 -0.00000000000E+00 -0.58355688927E+02  0.58355688927E+02  0.00000000000E+00 0.  1.
         23    2    1    2    0    0  0.33722886170E+03 -0.26446101509E+03  0.22521279716E+04  0.22943514338E+04  0.91132693201E+02 0.  0.
         23    2    1    2    0    0 -0.93879432297E+02  0.33900902031E+02  0.39585441589E+03  0.41742852710E+03  0.87081787407E+02 0.  0.
        -11    1    3    3    0    0  0.13344266091E+03 -0.53559275265E+02  0.66716427017E+03  0.68248348193E+03  0.00000000000E+00 0. -1.
         11    1    3    3    0    0  0.20378620079E+03 -0.21090173983E+03  0.15849637014E+04  0.16118679519E+04  0.00000000000E+00 0.  1.
        -13    1    4    4    0    0 -0.68586882700E+02  0.11975347441E+02  0.36604010092E+03  0.37260290512E+03  0.00000000000E+00 0.  1.
         13    1    4    4    0    0 -0.25292549598E+02  0.21925554590E+02  0.29814314967E+02  0.44825621983E+02  0.00000000000E+00 0. -1.
          2    1    1    2  501    0 -0.24334942941E+03  0.23056011306E+03  0.10354296110E+04  0.10883434154E+04  0.00000000000E+00 0.  1.
<scales pt_clust_5="13000.00000" pt_clust_6="13000.00000" pt_clust_7="13000.00000" pt_clust_8="13000.00000" pt_clust_9="13000.00000"></scales>
<clustering>
<clus scale="   87.082">  7  8 -1 -1</clus>
<clus scale="   91.133">  5  6 -1 -1</clus>
<clus scale="  335.227">  7  9 -1 -1</clus>
<clus scale="  438.142">  1  5  2 -1</clus>
<clus scale="  467.734">  2  5  1 -1</clus>
</clustering>
</event>
<event>
 9    1  0.3312826E-006  0.5543495E+03  0.7546771E-02  0.1024462E+00
         21   -1    0    0  501  502  0.00000000000E+00  0.00000000000E+00  0.43841189997E+03  0.43841189997E+03  0.00000000000E+00 0.  1.
          1   -1    0    0  502    0 -0.00000000000E+00 -0.00000000000E+00 -0.42863377154E+03  0.42863377154E+03  0.00000000000E+00 0. -1.
         23    2    1    2    0    0 -0.74984305320E+02 -0.23607279012E+03  0.13647837226E+03  0.29840137240E+03  0.95205171483E+02 0.  0.
         23    2    1    2    0    0  0.35684836190E+02  0.80404054384E+01 -0.27619847392E+03  0.29315757068E+03  0.91201472543E+02 0.  0.
        -13    1    3    3    0    0 -0.11247392296E+02 -0.17980881458E+03  0.87502440750E+02  0.20028577276E+03  0.00000000000E+00 0.  1.
         13    1    3    3    0    0 -0.63736913024E+02 -0.56263975544E+02  0.48975931509E+02  0.98115599641E+02  0.00000000000E+00 0. -1.
        -13    1    4    4    0    0  0.16119589602E+02 -0.40422840739E+02 -0.93514076779E+02  0.10314421835E+03  0.00000000000E+00 0.  1.
         13    1    4    4    0    0  0.19565246588E+02  0.48463246177E+02 -0.18268439714E+03  0.19001335233E+03  0.00000000000E+00 0. -1.
          1    1    1    2  501    0  0.39299469130E+02  0.22803238468E+03  0.14949823009E+03  0.27548672843E+03  0.00000000000E+00 0. -1.
<scales pt_clust_5="13000.00000" pt_clust_6="13000.00000" pt_clust_7="13000.00000" pt_clust_8="13000.00000" pt_clust_9="13000.00000"></scales>
<clustering>
<clus scale="   91.201">  7  8 -1 -1</clus>
<clus scale="   95.205">  5  6 -1 -1</clus>
<clus scale="  231.394">  7  9 -1 -1</clus>
<clus scale="  265.362">  2  5  1 -1</clus>
<clus scale="  554.350">  1  5  2 -1</clus>
</clustering>
</event>
<event>
 9    1  0.3312826E-006  0.2577615E+03  0.7546771E-02  0.1141908E+00
          3   -1    0    0  502    0 -0.00000000000E+00  0.00000000000E+00  0.66641641162E+03  0.66641641162E+03  0.00000000000E+00 0. -1.
         21   -1    0    0  501  502  0.00000000000E+00 -0.00000000000E+00 -0.10193156844E+03  0.10193156844E+03  0.00000000000E+00 0. -1.
         23    2    1    2    0    0  0.37562722745E+02  0.46258713193E+02  0.48603253835E+03  0.49891194021E+03  0.95575462685E+02 0.  0.
         23    2    1    2    0    0  0.61575672767E+02  0.26243069996E+02 -0.14864660178E+02  0.11518628785E+03  0.92556256338E+02 0.  0.
        -11    1    3    3    0    0  0.35805202289E+02 -0.23496030700E+02  0.19017422023E+03  0.19493668205E+03  0.00000000000E+00 0. -1.
         11    1    3    3    0    0  0.17575204561E+01  0.69754743894E+02  0.29585831812E+03  0.30397525816E+03  0.00000000000E+00 0.  1.
        -11    1    4    4    0    0  0.67493090168E+02 -0.16705911572E+02 -0.55830710414E+00  0.69532125012E+02  0.00000000000E+00 0. -1.
         11    1    4    4    0    0 -0.59174174005E+01  0.42948981567E+02 -0.14306353074E+02  0.45654162840E+02  0.00000000000E+00 0.  1.
          3    1    1    2  501    0 -0.99138395512E+02 -0.72501783189E+02  0.93316965016E+02  0.15424975199E+03  0.00000000000E+00 0. -1.
<scales pt_clust_5="13000.00000" pt_clust_6="13000.00000" pt_clust_7="13000.00000" pt_clust_8="13000.00000" pt_clust_9="13000.00000"></scales>
<clustering>
<clus scale="   92.556">  7  8 -1 -1</clus>
<clus scale="   95.575">  5  6 -1 -1</clus>
<clus scale="  112.630">  1  5  2 -1</clus>
<clus scale="   82.521">  7  9 -1 -1</clus>
<clus scale="  257.762">  2  5  1 -1</clus>
</clustering>
</event>
<event>
 9    1  0.3312826E-006  0.9992967E+03  0.7546771E-02  0.9967348E-01
          1   -1    0    0  502    0 -0.00000000000E+00  0.00000000000E+00  0.73214922570E+03  0.73214922570E+03  0.00000000000E+00 0. -1.
         21   -1    0    0  501  502  0.00000000000E+00 -0.00000000000E+00 -0.66807809089E+03  0.66807809089E+03  0.00000000000E+00 0. -1.
         23    2    1    2    0    0 -0.32185527198E+02  0.47209934123E+02  0.34590410293E+03  0.36194807378E+03  0.89955953950E+02 0.  0.
         23    2    1    2    0    0 -0.30010167071E+03  0.23695213461E+03  0.15255002888E+03  0.42195834320E+03  0.92574322704E+02 0.  0.
        -13    1    3    3    0    0 -0.52807283581E+02  0.61005027382E+02  0.28452118219E+03  0.29574063921E+03  0.00000000000E+00 0. -1.
         13    1    3    3    0    0  0.20621756383E+02 -0.13795093259E+02  0.61382920737E+02  0.66207434572E+02  0.00000000000E+00 0.  1.
        -13    1    4    4    0    0 -0.53307639047E+02  0.25989103623E+02  0.59973986056E+02  0.84344631669E+02  0.00000000000E+00 0.  1.
         13    1    4    4    0    0 -0.24679403167E+03  0.21096303099E+03  0.92576042825E+02  0.33761371153E+03  0.00000000000E+00 0. -1.
          1    1    1    2  501    0  0.33228719791E+03 -0.28416206873E+03 -0.43438299700E+03  0.61632089960E+03  0.00000000000E+00 0. -1.
<scales pt_clust_5="13000.00000" pt_clust_6="13000.00000" pt_clust_7="13000.00000" pt_clust_8="13000.00000" pt_clust_9="13000.00000"></scales>
<clustering>
<clus scale="   89.956">  5  6 -1 -1</clus>
<clus scale="   92.574">  7  8 -1 -1</clus>
<clus scale="  106.568">  1  5  2 -1</clus>
<clus scale="  423.974">  7  9 -1 -1</clus>
<clus scale="  999.297">  2  5  1 -1</clus>
</clustering>
</event>
<event>
 9    1  0.3312826E-006  0.1738240E+03  0.7546771E-02  0.1192158E+00
         -2   -1    0    0    0  501 -0.00000000000E+00  0.00000000000E+00  0.12799526659E+03  0.12799526659E+03  0.00000000000E+00 0.  1.
         21   -1    0    0  501  502  0.00000000000E+00 -0.00000000000E+00 -0.45932959935E+03  0.45932959935E+03  0.00000000000E+00 0.  1.
         23    2    1    2    0    0  0.44434612856E+02 -0.50587611020E+02  0.80125044791E+02  0.14065541155E+03  0.93970105818E+02 0.  0.
         23    2    1    2    0    0 -0.15200427194E+02  0.24365918404E+02 -0.12527388060E+03  0.15780209132E+03  0.91559837808E+02 0.  0.
        -11    1    3    3    0    0 -0.20035093342E+02 -0.23532951338E+02  0.60660595576E+02  0.68080192564E+02  0.00000000000E+00 0.  1.
         11    1    3    3    0    0  0.64469706198E+02 -0.27054659682E+02  0.19464449215E+02  0.72575218987E+02  0.00000000000E+00 0. -1.
        -13    1    4    4    0    0  0.32126817178E+02 -0.44939706224E+01 -0.18115261060E+02  0.37154957102E+02  0.00000000000E+00 0.  1.
         13    1    4    4    0    0 -0.47327244373E+02  0.28859889026E+02 -0.10715861954E+03  0.12064713422E+03  0.00000000000E+00 0. -1.
         -2    1    1    2    0  502 -0.29234185661E+02  0.26221692616E+02 -0.28618549696E+03  0.28886736306E+03  0.00000000000E+00 0.  1.
<scales pt_clust_5="13000.00000" pt_clust_6="13000.00000" pt_clust_7="13000.00000" pt_clust_8="13000.00000" pt_clust_9="13000.00000"></scales>
<clustering>
<clus scale="   91.560">  7  8 -1 -1</clus>
<clus scale="   39.271">  7  9 -1 -1</clus>
<clus scale="   93.970">  5  6 -1 -1</clus>
<clus scale="  115.602">  1  5  2 -1</clus>
<clus scale="  173.824">  2  5  1 -1</clus>
</clustering>
</event>
<event>
 9    1  0.3312826E-006  0.2100870E+03  0.7546771E-02  0.1173246E+00
         21   -1    0    0  501  502  0.00000000000E+00  0.00000000000E+00  0.29076746841E+03  0.29076746841E+03  0.00000000000E+00 0.  1.
          1   -1    0    0  502    0 -0.00000000000E+00 -0.00000000000E+00 -0.83590893812E+02  0.83590893812E+02  0.00000000000E+00 0. -1.
         23    2    1    2    0    0 -0.25324979604E+02  0.29336379694E+02  0.85726942455E+02  0.13169283323E+03  0.92151591930E+02 0.  0.
         23    2    1    2    0    0  0.13327707018E+02  0.16054541471E+02 -0.18603342727E+02  0.94952611334E+02  0.90744354989E+02 0.  0.
        -11    1    3    3    0    0 -0.39829323221E+02  0.44982826492E+01  0.93642712197E+02  0.10186052760E+03  0.00000000000E+00 0.  1.
         11    1    3    3    0    0  0.14504343616E+02  0.24838097045E+02 -0.79157697418E+01  0.29832305629E+02  0.00000000000E+00 0. -1.
        -13    1    4    4    0    0 -0.20020184569E+02  0.44523763674E+02 -0.51539484873E+01  0.49089067080E+02  0.00000000000E+00 0. -1.
         13    1    4    4    0    0  0.33347891587E+02 -0.28469222202E+02 -0.13449394240E+02  0.45863544254E+02  0.00000000000E+00 0.  1.
          1    1    1    2  501    0  0.11997272586E+02 -0.45390921165E+02  0.14005297487E+03  0.14771291766E+03  0.00000000000E+00 0. -1.
<scales pt_clust_5="13000.00000" pt_clust_6="13000.00000" pt_clust_7="13000.00000" pt_clust_8="13000.00000" pt_clust_9="13000.00000"></scales>
<clustering>
<clus scale="   90.744">  7  8 -1 -1</clus>
<clus scale="   46.950">  7  9 -1 -1</clus>
<clus scale="   92.152">  5  6 -1 -1</clus>
<clus scale="   99.970">  2  5  1 -1</clus>
<clus scale="  210.087">  1  5  2 -1</clus>
</clustering>
</event>
<event>
 9    1  0.3312826E-006  0.1681155E+03  0.7546771E-02  0.1202028E+00
          2   -1    0    0  502    0 -0.00000000000E+00  0.00000000000E+00  0.53792562927E+03  0.53792562927E+03  0.00000000000E+00 0. -1.
         21   -1    0    0  501  502  0.00000000000E+00 -0.00000000000E+00 -0.54049525322E+02  0.54049525322E+02  0.00000000000E+00 0. -1.
         23    2    1    2    0    0 -0.45637535302E+02 -0.26151169765E+02  0.38144842143E+03  0.39511415657E+03  0.88575562110E+02 0.  0.
         23    2    1    2    0    0  0.79126762693E+02  0.24112359535E+02  0.10636018926E+03  0.16308009058E+03  0.91870428473E+02 0.  0.
        -11    1    4    4    0    0 -0.15905974394E+02  0.13584077642E+02  0.44579454574E+02  0.49242816297E+02  0.00000000000E+00 0.  1.
         11    1    4    4    0    0  0.95032737087E+02  0.10528281893E+02  0.61780734682E+02  0.11383727428E+03  0.00000000000E+00 0. -1.
        -13    1    3    3    0    0 -0.39375104922E+02  0.28117355275E+02  0.17750827686E+03  0.18398416483E+03  0.00000000000E+00 0.  1.
         13    1    3    3    0    0 -0.62624303797E+01 -0.54268525041E+02  0.20394014457E+03  0.21112999174E+03  0.00000000000E+00 0. -1.
          2    1    1    2  501    0 -0.33489227392E+02  0.20388102305E+01 -0.39325067369E+01  0.33780907443E+02  0.00000000000E+00 0. -1.
<scales pt_clust_5="13000.00000" pt_clust_6="13000.00000" pt_clust_7="13000.00000" pt_clust_8="13000.00000" pt_clust_9="13000.00000"></scales>
<clustering>
<clus scale="   88.576">  7  8 -1 -1</clus>
<clus scale="   91.870">  5  6 -1 -1</clus>
<clus scale="   33.551">  5  9 -1 -1</clus>
<clus scale="  103.016">  1  7  2 -1</clus>
<clus scale="  168.116">  2  5  1 -1</clus>
</clustering>
</event>
<event>
 9    1  0.3312826E-006  0.1790056E+03  0.7546771E-02  0.1197337E+00
         21   -1    0    0  501  502  0.00000000000E+00  0.00000000000E+00  0.53684719026E+02  0.53684719026E+02  0.00000000000E+00 0.  1.
          2   -1    0    0  502    0 -0.00000000000E+00 -0.00000000000E+00 -0.39758378687E+03  0.39758378687E+03  0.00000000000E+00 0. -1.
         23    2    1    2    0    0  0.92103405870E+01  0.45002174978E-01 -0.20141326255E+03  0.22247773932E+03  0.94043658819E+02 0.  0.
         23    2    1    2    0    0 -0.50208232833E+02 -0.30506776411E+02 -0.13995733528E+03  0.17765232684E+03  0.92307981692E+02 0.  0.
        -11    1    4    4    0    0 -0.82045506756E+01  0.26706761432E+02 -0.10182896181E+02  0.29736461333E+02  0.00000000000E+00 0. -1.
         11    1    4    4    0    0 -0.42003682157E+02 -0.57213537842E+02 -0.12977443910E+03  0.14791586551E+03  0.00000000000E+00 0.  1.
        -11    1    3    3    0    0  0.19451059444E+02  0.38549968775E+02 -0.15691869854E+03  0.16275110370E+03  0.00000000000E+00 0. -1.
         11    1    3    3    0    0 -0.10240718857E+02 -0.38504966600E+02 -0.44494564008E+02  0.59726635615E+02  0.00000000000E+00 0.  1.
          2    1    1    2  501    0  0.40997892246E+02  0.30461774236E+02 -0.25284700255E+01  0.51138439738E+02  0.00000000000E+00 0. -1.
<scales pt_clust_5="13000.00000" pt_clust_6="13000.00000" pt_clust_7="13000.00000" pt_clust_8="13000.00000" pt_clust_9="13000.00000"></scales>
<clustering>
<clus scale="   92.308">  5  6 -1 -1</clus>
<clus scale="   51.076">  5  9 -1 -1</clus>
<clus scale="   94.044">  7  8 -1 -1</clus>
<clus scale="   94.494">  2  7  1 -1</clus>
<clus scale="  179.006">  1  5  2 -1</clus>
</clustering>
</event>
<event>
 9    1  0.3312826E-006  0.5707584E+03  0.7546771E-02  0.1018693E+00
          2   -1    0    0  502    0 -0.00000000000E+00  0.00000000000E+00  0.10265218627E+04  0.10265218627E+04  0.00000000000E+00 0. -1.
         21   -1    0    0  501  502  0.00000000000E+00 -0.00000000000E+00 -0.18325686072E+03  0.18325686072E+03  0.00000000000E+00 0. -1.
         23    2    1    2    0    0  0.24363875629E+03  0.12922649951E+03  0.21175230269E+03  0.35855993558E+03  0.87560595967E+02 0.  0.
         23    2    1    2    0    0  0.10514099951E+03  0.52023498219E+02  0.30559453020E+03  0.34060980565E+03  0.94159166681E+02 0.  0.
        -11    1    3    3    0    0  0.10561152605E+03  0.10550482721E+03  0.10703738330E+03  0.18369013154E+03  0.00000000000E+00 0. -1.
         11    1    3    3    0    0  0.13802723024E+03  0.23721672301E+02  0.10471491939E+03  0.17486980405E+03  0.00000000000E+00 0.  1.
        -11    1    4    4    0    0  0.21910273554E+02 -0.26246336885E+02  0.95865251270E+02  0.10177954946E+03  0.00000000000E+00 0.  1.
         11    1    4    4    0    0  0.83230725957E+02  0.78269835104E+02  0.20972927893E+03  0.23883025619E+03  0.00000000000E+00 0. -1.
          2    1    1    2  501    0 -0.34877975580E+03 -0.18124999773E+03  0.32591816905E+03  0.51060898215E+03  0.00000000000E+00 0. -1.
<scales pt_clust_5="13000.00000" pt_clust_6="13000.00000" pt_clust_7="13000.00000" pt_clust_8="13000.00000" pt_clust_9="13000.00000"></scales>
<clustering>
<clus scale="   87.561">  5  6 -1 -1</clus>
<clus scale="   94.159">  7  8 -1 -1</clus>
<clus scale="  289.355">  1  5  2 -1</clus>
<clus scale="  237.478">  7  9 -1 -1</clus>
<clus scale="  570.758">  2  5  1 -1</clus>
</clustering>
</event>
<event>
 9    1  0.3312826E-006  0.1773013E+03  0.7546771E-02  0.1186651E+00
          1   -1    0    0  502    0 -0.00000000000E+00  0.00000000000E+00  0.57706668649E+02  0.57706668649E+02  0.00000000000E+00 0. -1.
         21   -1    0    0  501  502  0.00000000000E+00 -0.00000000000E+00 -0.39386576859E+03  0.39386576859E+03  0.00000000000E+00 0. -1.
         23    2    1    2    0    0  0.51663846472E+02  0.61867177461E+02 -0.11835246589E+03  0.17072465883E+03  0.92967210721E+02 0.  0.
         23    2    1    2    0    0  0.59265718755E+00 -0.63639902670E+02 -0.94953704629E+02  0.14733101169E+03  0.92950699452E+02 0.  0.
        -13    1    3    3    0    0  0.19193103533E+02 -0.21610753611E+02 -0.51132394872E+02  0.58736034086E+02  0.00000000000E+00 0.  1.
         13    1    3    3    0    0  0.32470742939E+02  0.83477931072E+02 -0.67220071022E+02  0.11198862474E+03  0.00000000000E+00 0. -1.
        -13    1    4    4    0    0 -0.99216788237E+01  0.23132010790E+02 -0.19035418571E+02  0.31557515651E+02  0.00000000000E+00 0.  1.
         13    1    4    4    0    0  0.10514336011E+02 -0.86771913460E+02 -0.75918286058E+02  0.11577349604E+03  0.00000000000E+00 0. -1.
          1    1    1    2  501    0 -0.52256503659E+02  0.17727252082E+01 -0.12285292942E+03  0.13351676673E+03  0.00000000000E+00 0. -1.
<scales pt_clust_5="13000.00000" pt_clust_6="13000.00000" pt_clust_7="13000.00000" pt_clust_8="13000.00000" pt_clust_9="13000.00000"></scales>
<clustering>
<clus scale="   92.951">  7  8 -1 -1</clus>
<clus scale="   52.287">  7  9 -1 -1</clus>
<clus scale="   92.967">  5  6 -1 -1</clus>
<clus scale="  123.043">  1  5  2 -1</clus>
<clus scale="  177.301">  2  5  1 -1</clus>
</clustering>
</event>
<event>
 9    1  0.3312826E-006  0.2361003E+03  0.7546771E-02  0.1160735E+00
         -2   -1    0    0    0  501 -0.00000000000E+00  0.00000000000E+00  0.39442919140E+03  0.39442919140E+03  0.00000000000E+00 0.  1.
         21   -1    0    0  501  502  0.00000000000E+00 -0.00000000000E+00 -0.72559550538E+02  0.72559550538E+02  0.00000000000E+00 0.  1.
         23    2    1    2    0    0  0.17585508009E+02 -0.33786794078E+02  0.14170497371E+03  0.16999943843E+03  0.85841201912E+02 0.  0.
         23    2    1    2    0    0  0.45203944436E+02  0.17226698766E+01  0.19927362514E+03  0.22394290952E+03  0.91619238514E+02 0.  0.
        -11    1    3    3    0    0  0.21030323169E+02 -0.61307729001E+02  0.85168483437E+02  0.10702608420E+03  0.00000000000E+00 0. -1.
         11    1    3    3    0    0 -0.34448151607E+01  0.27520934923E+02  0.56536490274E+02  0.62973354231E+02  0.00000000000E+00 0.  1.
        -13    1    4    4    0    0  0.47679391742E+01  0.37628433662E+02  0.37366245879E+02  0.53243484061E+02  0.00000000000E+00 0. -1.
         13    1    4    4    0    0  0.40436005262E+02 -0.35905763786E+02  0.16190737926E+03  0.17069942546E+03  0.00000000000E+00 0.  1.
         -2    1    1    2    0  502 -0.62789452445E+02  0.32064124202E+02 -0.19108957987E+02  0.73046393987E+02  0.00000000000E+00 0.  1.
<scales pt_clust_5="13000.00000" pt_clust_6="13000.00000" pt_clust_7="13000.00000" pt_clust_8="13000.00000" pt_clust_9="13000.00000"></scales>
<clustering>
<clus scale="   85.841">  5  6 -1 -1</clus>
<clus scale="   91.619">  7  8 -1 -1</clus>
<clus scale="   70.503">  7  9 -1 -1</clus>
<clus scale="   93.912">  1  5  2 -1</clus>
<clus scale="  236.100">  2  5  1 -1</clus>
</clustering>
</event>
<event>
 9    1  0.3312826E-006  0.2695563E+03  0.7546771E-02  0.1134580E+00
         -1   -1    0    0    0  501 -0.00000000000E+00  0.00000000000E+00  0.51484845183E+03  0.51484845183E+03  0.00000000000E+00 0.  1.
         21   -1    0    0  501  502  0.00000000000E+00 -0.00000000000E+00 -0.90714115618E+02  0.90714115618E+02  0.00000000000E+00 0. -1.
         23    2    1    2    0    0 -0.90530002945E+00  0.75219784082E+02  0.19245647253E+02  0.11915178750E+03  0.90376534791E+02 0.  0.
         23    2    1    2    0    0  0.11125278664E+02 -0.99977532023E+02  0.42920037379E+03  0.45023824802E+03  0.91554576004E+02 0.  0.
        -11    1    3    3    0    0  0.42557119937E+02  0.21679270903E+02  0.14998452552E+02  0.50060491640E+02  0.00000000000E+00 0.  1.
         11    1    3    3    0    0 -0.43462419967E+02  0.53540513180E+02  0.42471947001E+01  0.69091295861E+02  0.00000000000E+00 0. -1.
        -13    1    4    4    0    0  0.43036865251E+02 -0.18236557729E+02  0.11852797435E+03  0.12741124170E+03  0.00000000000E+00 0.  1.
         13    1    4    4    0    0 -0.31911586587E+02 -0.81740974294E+02  0.31067239944E+03  0.32282700632E+03  0.00000000000E+00 0. -1.
         -1    1    1    2    0  502 -0.10219978635E+02  0.24757747940E+02 -0.24311684831E+02  0.36172531922E+02  0.00000000000E+00 0.  1.
<scales pt_clust_5="13000.00000" pt_clust_6="13000.00000" pt_clust_7="13000.00000" pt_clust_8="13000.00000" pt_clust_9="13000.00000"></scales>
<clustering>
<clus scale="   90.377">  5  6 -1 -1</clus>
<clus scale="   91.555">  7  8 -1 -1</clus>
<clus scale="   26.784">  7  9 -1 -1</clus>
<clus scale="  117.587">  1  5  2 -1</clus>
<clus scale="  269.556">  2  5  1 -1</clus>
</clustering>
</event>
<event>
 9    1  0.3312826E-006  0.3876483E+03  0.7546771E-02  0.1095943E+00
         21   -1    0    0  501  502  0.00000000000E+00  0.00000000000E+00  0.33275999595E+03  0.33275999595E+03  0.00000000000E+00 0. -1.
          3   -1    0    0  502    0 -0.00000000000E+00 -0.00000000000E+00 -0.43395613723E+03  0.43395613723E+03  0.00000000000E+00 0. -1.
         23    2    1    2    0    0 -0.41804201640E+02  0.36259305123E+02 -0.30941479688E+03  0.32668632665E+03  0.89017475830E+02 0.  0.
         23    2    1    2    0    0  0.16613858487E+03 -0.10363087172E+03  0.20604300026E+03  0.29859890357E+03  0.91466935561E+02 0.  0.
        -11    1    3    3    0    0  0.23041711231E+02  0.27573010352E+02 -0.72684560950E+02  0.81081667205E+02  0.00000000000E+00 0.  1.
         11    1    3    3    0    0 -0.64845912871E+02  0.86862947707E+01 -0.23673023594E+03  0.24560465944E+03  0.00000000000E+00 0. -1.
        -13    1    4    4    0    0  0.10187115338E+03 -0.63019602708E+02  0.18379819259E+03  0.21938773397E+03  0.00000000000E+00 0.  1.
         13    1    4    4    0    0  0.64267431490E+02 -0.40611269007E+02  0.22244807665E+02  0.79211169596E+02  0.00000000000E+00 0. -1.
          3    1    1    2  501    0 -0.12433438323E+03  0.67371566592E+02  0.21756553377E+01  0.14143090297E+03  0.00000000000E+00 0. -1.
<scales pt_clust_5="13000.00000" pt_clust_6="13000.00000" pt_clust_7="13000.00000" pt_clust_8="13000.00000" pt_clust_9="13000.00000"></scales>
<clustering>
<clus scale="   89.017">  5  6 -1 -1</clus>
<clus scale="   91.467">  7  8 -1 -1</clus>
<clus scale="  104.816">  2  5  1 -1</clus>
<clus scale="  174.020">  7  9 -1 -1</clus>
<clus scale="  387.648">  1  5  2 -1</clus>
</clustering>
</event>
<event>
 9    1  0.3312826E-006  0.1680066E+03  0.7546771E-02  0.1202991E+00
          1   -1    0    0  502    0 -0.00000000000E+00  0.00000000000E+00  0.77275316017E+02  0.77275316017E+02  0.00000000000E+00 0. -1.
         21   -1    0    0  501  502  0.00000000000E+00 -0.00000000000E+00 -0.23574730403E+03  0.23574730403E+03  0.00000000000E+00 0.  1.
         23    2    1    2    0    0  0.93641381784E+01 -0.41328328520E+02 -0.71666463451E+02  0.12391571950E+03  0.91778569029E+02 0.  0.
         23    2    1    2    0    0 -0.41535147076E+01 -0.80603872739E+01 -0.10243997053E+03  0.13704125213E+03  0.90576684057E+02 0.  0.
        -11    1    3    3    0    0  0.26429585138E+02 -0.61763389863E+02 -0.70327460900E+02  0.97258372671E+02  0.00000000000E+00 0. -1.
         11    1    3    3    0    0 -0.17065446959E+02  0.20435061343E+02 -0.13390025510E+01  0.26657346827E+02  0.00000000000E+00 0.  1.
        -13    1    4    4    0    0 -0.47388739215E+02 -0.27371968718E+01 -0.53456313378E+02  0.71489595684E+02  0.00000000000E+00 0.  1.
         13    1    4    4    0    0  0.43235224508E+02 -0.53231904021E+01 -0.48983657156E+02  0.65551656445E+02  0.00000000000E+00 0. -1.
          1    1    1    2  501    0 -0.52106234707E+01  0.49388715794E+02  0.15634445970E+02  0.52065648421E+02  0.00000000000E+00 0. -1.
<scales pt_clust_5="13000.00000" pt_clust_6="13000.00000" pt_clust_7="13000.00000" pt_clust_8="13000.00000" pt_clust_9="13000.00000"></scales>
<clustering>
<clus scale="   90.577">  7  8 -1 -1</clus>
<clus scale="   49.663">  7  9 -1 -1</clus>
<clus scale="   91.779">  5  6 -1 -1</clus>
<clus scale="  101.089">  1  5  2 -1</clus>
<clus scale="  168.007">  2  5  1 -1</clus>
</clustering>
</event>
<event>
 9    1  0.3312826E-006  0.1526785E+03  0.7546771E-02  0.1209781E+00
          2   -1    0    0  502    0 -0.00000000000E+00  0.00000000000E+00  0.17013763349E+03  0.17013763349E+03  0.00000000000E+00 0. -1.
         21   -1    0    0  501  502  0.00000000000E+00 -0.00000000000E+00 -0.11228067845E+03  0.11228067845E+03  0.00000000000E+00 0. -1.
         23    2    1    2    0    0 -0.72480828006E+02  0.15608575427E+02  0.57275308755E+02  0.12973871202E+03  0.89747280446E+02 0.  0.
         23    2    1    2    0    0  0.65292624251E+02  0.21581749732E+02  0.67089603302E+01  0.11430858826E+03  0.91063409215E+02 0.  0.
        -11    1    3    3    0    0 -0.82364712152E+02 -0.15048908589E+02  0.36026197607E+02  0.91149889587E+02  0.00000000000E+00 0.  1.
         11    1    3    3    0    0  0.98838841463E+01  0.30657484015E+02  0.21249111148E+02  0.38588822430E+02  0.00000000000E+00 0. -1.
        -11    1    4    4    0    0  0.69433913930E+02 -0.61652613441E+01  0.31848728880E+02  0.76638243601E+02  0.00000000000E+00 0.  1.
         11    1    4    4    0    0 -0.41412896790E+01  0.27747011076E+02 -0.25139768549E+02  0.37670344657E+02  0.00000000000E+00 0. -1.
          2    1    1    2  501    0  0.71882037553E+01 -0.37190325158E+02 -0.61273140460E+01  0.38371011663E+02  0.00000000000E+00 0. -1.
<scales pt_clust_5="13000.00000" pt_clust_6="13000.00000" pt_clust_7="13000.00000" pt_clust_8="13000.00000" pt_clust_9="13000.00000"></scales>
<clustering>
<clus scale="   89.747">  5  6 -1 -1</clus>
<clus scale="   91.063">  7  8 -1 -1</clus>
<clus scale="   37.879">  7  9 -1 -1</clus>
<clus scale="  116.412">  1  5  2 -1</clus>
<clus scale="  152.678">  2  5  1 -1</clus>
</clustering>
</event>
<event>
 9    1  0.3312826E-006  0.2616868E+03  0.7546771E-02  0.1147775E+00
         21   -1    0    0  501  502  0.00000000000E+00  0.00000000000E+00  0.26923910411E+03  0.26923910411E+03  0.00000000000E+00 0.  1.
          4   -1    0    0  502    0 -0.00000000000E+00 -0.00000000000E+00 -0.12242290883E+03  0.12242290883E+03  0.00000000000E+00 0.  1.
         23    2    1    2    0    0 -0.80718508758E+00  0.26163225770E+02  0.42108722484E+01  0.93641474534E+02  0.89809957006E+02 0.  0.
         23    2    1    2    0    0 -0.32026690138E+02 -0.13782472198E+02 -0.43801788292E+02  0.10833933856E+03  0.92753168144E+02 0.  0.
        -11    1    3    3    0    0 -0.27773390577E+02 -0.22244078327E+02 -0.89435853142E+01  0.36689889112E+02  0.00000000000E+00 0.  1.
         11    1    3    3    0    0  0.26966205490E+02  0.48407304097E+02  0.13154457563E+02  0.56951585423E+02  0.00000000000E+00 0. -1.
        -13    1    4    4    0    0 -0.26879415197E+02 -0.40831228620E+02  0.81336549134E+01  0.49556518584E+02  0.00000000000E+00 0.  1.
         13    1    4    4    0    0 -0.51472749418E+01  0.27048756422E+02 -0.51935443205E+02  0.58782819975E+02  0.00000000000E+00 0. -1.
          4    1    1    2  501    0  0.32833875226E+02 -0.12380753572E+02  0.18640711133E+03  0.18968119985E+03  0.00000000000E+00 0.  1.
<scales pt_clust_5="13000.00000" pt_clust_6="13000.00000" pt_clust_7="13000.00000" pt_clust_8="13000.00000" pt_clust_9="13000.00000"></scales>
<clustering>
<clus scale="   89.810">  5  6 -1 -1</clus>
<clus scale="   92.753">  7  8 -1 -1</clus>
<clus scale="   35.091">  7  9 -1 -1</clus>
<clus scale="   93.547">  2  5  1 -1</clus>
<clus scale="  261.687">  1  5  2 -1</clus>
</clustering>
</event>
<event>
 9    1  0.3312826E-006  0.4543069E+03  0.7546771E-02  0.1045303E+00
          2   -1    0    0  502    0 -0.00000000000E+00  0.00000000000E+00  0.56518056345E+03  0.56518056345E+03  0.00000000000E+00 0. -1.
         21   -1    0    0  501  502  0.00000000000E+00 -0.00000000000E+00 -0.24188388472E+03  0.24188388472E+03  0.00000000000E+00 0. -1.
         23    2    1    2    0    0  0.24244532809E+03  0.34876989458E+02  0.21902571148E+03  0.34094516441E+03  0.90968133629E+02 0.  0.
         23    2    1    2    0    0 -0.15350396509E+03 -0.12884209381E+03  0.20520091301E+03  0.30202522282E+03  0.94594228592E+02 0.  0.
        -11    1    3    3    0    0  0.88112397517E+02 -0.27189436356E+02  0.10233492074E+03  0.13775157367E+03  0.00000000000E+00 0.  1.
         11    1    3    3    0    0  0.15433293058E+03  0.62066425814E+02  0.11669079074E+03  0.20319359074E+03  0.00000000000E+00 0. -1.
        -11    1    4    4    0    0 -0.94401766918E+02 -0.18189022003E+02  0.86744672992E+02  0.12948811687E+03  0.00000000000E+00 0.  1.
         11    1    4    4    0    0 -0.59102198167E+02 -0.11065307181E+03  0.11845624002E+03  0.17253710594E+03  0.00000000000E+00 0. -1.
          2    1    1    2  501    0 -0.88941363007E+02  0.93965104351E+02 -0.10092994576E+03  0.16409406095E+03  0.00000000000E+00 0. -1.
<scales pt_clust_5="13000.00000" pt_clust_6="13000.00000" pt_clust_7="13000.00000" pt_clust_8="13000.00000" pt_clust_9="13000.00000"></scales>
<clustering>
<clus scale="   90.968">  5  6 -1 -1</clus>
<clus scale="   94.594">  7  8 -1 -1</clus>
<clus scale="  129.383">  7  9 -1 -1</clus>
<clus scale="  261.288">  1  5  2 -1</clus>
<clus scale="  454.307">  2  5  1 -1</clus>
</clustering>
</event>
<event>
 9    1  0.3312826E-006  0.1936482E+03  0.7546771E-02  0.1185354E+00
         21   -1    0    0  501  502  0.00000000000E+00  0.00000000000E+00  0.28392069292E+03  0.28392069292E+03  0.00000000000E+00 0. -1.
          1   -1    0    0  502    0 -0.00000000000E+00 -0.00000000000E+00 -0.11541323103E+03  0.11541323103E+03  0.00000000000E+00 0. -1.
         23    2    1    2    0    0 -0.33211539979E+02  0.16631104266E+02 -0.48379851785E+02  0.10857674181E+03  0.89825936045E+02 0.  0.
         23    2    1    2    0    0 -0.32706194810E+02 -0.54055539607E+02  0.76571826753E+02  0.13127623659E+03  0.85898248530E+02 0.  0.
        -11    1    4    4    0    0 -0.57196948887E+02 -0.26894175039E+02  0.69653471445E+02  0.94055269375E+02  0.00000000000E+00 0. -1.
         11    1    4    4    0    0  0.24490754077E+02 -0.27161364568E+02  0.69183553084E+01  0.37220967218E+02  0.00000000000E+00 0.  1.
        -11    1    3    3    0    0 -0.17982689429E+02 -0.32110428961E+02 -0.43943526756E+02  0.57319196705E+02  0.00000000000E+00 0.  1.
         11    1    3    3    0    0 -0.15228850550E+02  0.48741533227E+02 -0.44363250282E+01  0.51257545104E+02  0.00000000000E+00 0. -1.
          1    1    1    2  501    0  0.65917734789E+02  0.37424435342E+02  0.14031548693E+03  0.15948094554E+03  0.00000000000E+00 0. -1.
<scales pt_clust_5="13000.00000" pt_clust_6="13000.00000" pt_clust_7="13000.00000" pt_clust_8="13000.00000" pt_clust_9="13000.00000"></scales>
<clustering>
<clus scale="   85.898">  5  6 -1 -1</clus>
<clus scale="   75.801">  5  9 -1 -1</clus>
<clus scale="   89.826">  7  8 -1 -1</clus>
<clus scale="   97.202">  2  7  1 -1</clus>
<clus scale="  193.648">  1  5  2 -1</clus>
</clustering>
</event>
<event>
 9    1  0.3312826E-006  0.2289346E+03  0.7546771E-02  0.1153409E+00
         21   -1    0    0  501  502  0.00000000000E+00  0.00000000000E+00  0.11778284064E+03  0.11778284064E+03  0.00000000000E+00 0. -1.
         -1   -1    0    0    0  501 -0.00000000000E+00 -0.00000000000E+00 -0.29785606736E+03  0.29785606736E+03  0.00000000000E+00 0.  1.
         23    2    1    2    0    0 -0.64234917738E+02 -0.46538295410E+02 -0.13530747873E+03  0.18236866466E+03  0.93049870779E+02 0.  0.
         23    2    1    2    0    0  0.87347569217E+01 -0.55012016171E+02 -0.48679711527E+02  0.11747709699E+03  0.91260813606E+02 0.  0.
        -11    1    3    3    0    0  0.20727594941E+02 -0.92824709239E+01 -0.55593976906E+02  0.60054040054E+02  0.00000000000E+00 0.  1.
         11    1    3    3    0    0 -0.84962512679E+02 -0.37255824486E+02 -0.79713501822E+02  0.12231462460E+03  0.00000000000E+00 0. -1.
        -13    1    4    4    0    0  0.32910742491E+02  0.87962324448E+01 -0.71955299644E+00  0.34073573822E+02  0.00000000000E+00 0.  1.
         13    1    4    4    0    0 -0.24175985569E+02 -0.63808248616E+02 -0.47960158531E+02  0.83403523163E+02  0.00000000000E+00 0. -1.
         -1    1    1    2    0  502  0.55500160816E+02  0.10155031158E+03  0.39139635432E+01  0.11579314636E+03  0.00000000000E+00 0.  1.
<scales pt_clust_5="13000.00000" pt_clust_6="13000.00000" pt_clust_7="13000.00000" pt_clust_8="13000.00000" pt_clust_9="13000.00000"></scales>
<clustering>
<clus scale="   91.261">  7  8 -1 -1</clus>
<clus scale="   93.050">  5  6 -1 -1</clus>
<clus scale="  115.727">  7  9 -1 -1</clus>
<clus scale="  122.271">  2  5  1 -1</clus>
<clus scale="  228.935">  1  5  2 -1</clus>
</clustering>
</event>
<event>
 9    1  0.3312826E-006  0.3058533E+03  0.7546771E-02  0.1125561E+00
          1   -1    0    0  502    0 -0.00000000000E+00  0.00000000000E+00  0.27526484782E+03  0.27526484782E+03  0.00000000000E+00 0. -1.
         21   -1    0    0  501  502  0.00000000000E+00 -0.00000000000E+00 -0.15077715380E+03  0.15077715380E+03  0.00000000000E+00 0. -1.
         23    2    1    2    0    0  0.29969290967E+02  0.16120710718E+02  0.17177263210E+02  0.10190963388E+03  0.94511794985E+02 0.  0.
         23    2    1    2    0    0 -0.93232496076E+02  0.59046105591E+02  0.15828767762E+03  0.21344829893E+03  0.91249364495E+02 0.  0.
        -11    1    4    4    0    0 -0.40616176618E+02 -0.21088116583E+02  0.66509971866E+02  0.80733876543E+02  0.00000000000E+00 0.  1.
         11    1    4    4    0    0 -0.52616319458E+02  0.80134222173E+02  0.91777705756E+02  0.13271442239E+03  0.00000000000E+00 0. -1.
        -13    1    3    3    0    0  0.52328660689E+02  0.23244153076E+02  0.39468036431E+02  0.69543549531E+02  0.00000000000E+00 0.  1.
         13    1    3    3    0    0 -0.22359369722E+02 -0.71234423583E+01 -0.22290773221E+02  0.32366084350E+02  0.00000000000E+00 0. -1.
          1    1    1    2  501    0  0.63263205109E+02 -0.75166816308E+02 -0.50977246808E+02  0.11068406880E+03  0.00000000000E+00 0. -1.
<scales pt_clust_5="13000.00000" pt_clust_6="13000.00000" pt_clust_7="13000.00000" pt_clust_8="13000.00000" pt_clust_9="13000.00000"></scales>
<clustering>
<clus scale="   91.249">  5  6 -1 -1</clus>
<clus scale="   94.512">  7  8 -1 -1</clus>
<clus scale="   98.246">  5  9 -1 -1</clus>
<clus scale="  100.452">  1  7  2 -1</clus>
<clus scale="  305.853">  2  5  1 -1</clus>
</clustering>
</event>
<event>
 9    1  0.3312826E-006  0.4394298E+03  0.7546771E-02  0.1085795E+00
         -2   -1    0    0    0  501 -0.00000000000E+00  0.00000000000E+00  0.62187294432E+03  0.62187294432E+03  0.00000000000E+00 0.  1.
         21   -1    0    0  501  502  0.00000000000E+00 -0.00000000000E+00 -0.12954768075E+03  0.12954768075E+03  0.00000000000E+00 0.  1.
         23    2    1    2    0    0 -0.34375483090E+01 -0.25242830996E+02  0.20731975718E+03  0.22765856923E+03  0.90542394334E+02 0.  0.
         23    2    1    2    0    0 -0.18355881607E+03 -0.19655892697E+02  0.60909504366E+02  0.22846127053E+03  0.12001829585E+03 0.  0.
        -11    1    3    3    0    0 -0.53842321146E+01 -0.58872873908E+02  0.11348458897E+03  0.12795998270E+03  0.00000000000E+00 0. -1.
         11    1    3    3    0    0  0.19466838056E+01  0.33630042912E+02  0.93835168214E+02  0.99698586539E+02  0.00000000000E+00 0.  1.
        -11    1    4    4    0    0 -0.19687175762E+03 -0.59800920191E+00  0.56259654201E+02  0.20475349876E+03  0.00000000000E+00 0.  1.
         11    1    4    4    0    0  0.13312941550E+02 -0.19057883495E+02  0.46498501642E+01  0.23707771776E+02  0.00000000000E+00 0. -1.
         -2    1    1    2    0  502  0.18699636438E+03  0.44898723693E+02  0.22409600201E+03  0.29530078530E+03  0.00000000000E+00 0.  1.
<scales pt_clust_5="13000.00000" pt_clust_6="13000.00000" pt_clust_7="13000.00000" pt_clust_8="13000.00000" pt_clust_9="13000.00000"></scales>
<clustering>
<clus scale="   90.542">  5  6 -1 -1</clus>
<clus scale="   94.058">  1  5  2 -1</clus>
<clus scale="  120.018">  7  8 -1 -1</clus>
<clus scale="  187.002">  7  9 -1 -1</clus>
<clus scale="  439.430">  2  5  1 -1</clus>
</clustering>
</event>
<event>
 9    1  0.3312826E-006  0.1466114E+03  0.7546771E-02  0.1220688E+00
         21   -1    0    0  501  502  0.00000000000E+00  0.00000000000E+00  0.93589787651E+02  0.93589787651E+02  0.00000000000E+00 0.  1.
          1   -1    0    0  502    0 -0.00000000000E+00 -0.00000000000E+00 -0.18782182989E+03  0.18782182989E+03  0.00000000000E+00 0. -1.
         23    2    1    2    0    0 -0.54881238207E+02 -0.22377303824E+02  0.48159392585E+01  0.10447824180E+03  0.85905853732E+02 0.  0.
         23    2    1    2    0    0  0.61934939766E+02 -0.90160342540E+01 -0.59125397188E+02  0.12565853669E+03  0.91526114379E+02 0.  0.
        -11    1    3    3    0    0  0.41138802815E+01 -0.36409022012E+02 -0.16521030161E+02  0.40193100557E+02  0.00000000000E+00 0. -1.
         11    1    3    3    0    0 -0.58995118489E+02  0.14031718188E+02  0.21336969419E+02  0.64285141244E+02  0.00000000000E+00 0.  1.
        -13    1    4    4    0    0  0.35360836892E+02  0.11411679000E+02 -0.78566822523E+02  0.86910073091E+02  0.00000000000E+00 0. -1.
         13    1    4    4    0    0  0.26574102874E+02 -0.20427713254E+02  0.19441425335E+02  0.38748463601E+02  0.00000000000E+00 0.  1.
          1    1    1    2  501    0 -0.70537015590E+01  0.31393338078E+02 -0.39922584305E+02  0.51274839044E+02  0.00000000000E+00 0. -1.
<scales pt_clust_5="13000.00000" pt_clust_6="13000.00000" pt_clust_7="13000.00000" pt_clust_8="13000.00000" pt_clust_9="13000.00000"></scales>
<clustering>
<clus scale="   85.906">  5  6 -1 -1</clus>
<clus scale="   91.526">  7  8 -1 -1</clus>
<clus scale="   32.176">  7  9 -1 -1</clus>
<clus scale="  104.367">  2  5  1 -1</clus>
<clus scale="  146.611">  1  5  2 -1</clus>
</clustering>
</event>
<event>
 9    1  0.3312826E-006  0.2259244E+03  0.7546771E-02  0.1154006E+00
         21   -1    0    0  501  502  0.00000000000E+00  0.00000000000E+00  0.25316716881E+03  0.25316716881E+03  0.00000000000E+00 0. -1.
          1   -1    0    0  502    0 -0.00000000000E+00 -0.00000000000E+00 -0.13842681530E+03  0.13842681530E+03  0.00000000000E+00 0. -1.
         23    2    1    2    0    0 -0.70850068222E+02 -0.50204112446E+02 -0.22214025627E+02  0.12740021414E+03  0.90538204945E+02 0.  0.
         23    2    1    2    0    0 -0.39571739313E+02  0.15469568789E+02  0.90309028338E+02  0.13939291720E+03  0.97311020212E+02 0.  0.
        -11    1    3    3    0    0 -0.83864231505E+02 -0.16746058263E+02 -0.30067029419E+02  0.90651343351E+02  0.00000000000E+00 0. -1.
         11    1    3    3    0    0  0.13014163283E+02 -0.33458054183E+02  0.78530037917E+01  0.36748870788E+02  0.00000000000E+00 0.  1.
        -13    1    4    4    0    0 -0.20809269026E+02  0.22763213666E+02 -0.13488074708E+02  0.33661814169E+02  0.00000000000E+00 0.  1.
         13    1    4    4    0    0 -0.18762470288E+02 -0.72936448771E+01  0.10379710305E+03  0.10573110303E+03  0.00000000000E+00 0. -1.
          1    1    1    2  501    0  0.11042180754E+03  0.34734543656E+02  0.46645350796E+02  0.12480085277E+03  0.00000000000E+00 0. -1.
<scales pt_clust_5="13000.00000" pt_clust_6="13000.00000" pt_clust_7="13000.00000" pt_clust_8="13000.00000" pt_clust_9="13000.00000"></scales>
<clustering>
<clus scale="   90.538">  5  6 -1 -1</clus>
<clus scale="   97.311">  7  8 -1 -1</clus>
<clus scale="  115.756">  7  9 -1 -1</clus>
<clus scale="  125.449">  2  5  1 -1</clus>
<clus scale="  225.924">  1  5  2 -1</clus>
</clustering>
</event>
<event>
 9    1  0.3312826E-006  0.7023976E+03  0.7546771E-02  0.9967744E-01
         21   -1    0    0  501  502  0.00000000000E+00  0.00000000000E+00  0.25594957720E+03  0.25594957720E+03  0.00000000000E+00 0. -1.
          2   -1    0    0  502    0 -0.00000000000E+00 -0.00000000000E+00 -0.10390069946E+04  0.10390069946E+04  0.00000000000E+00 0. -1.
         23    2    1    2    0    0  0.29289065640E+03  0.19484038019E+01 -0.12034415399E+03  0.32926962842E+03  0.90260954541E+02 0.  0.
         23    2    1    2    0    0 -0.25021239584E+03  0.17730641697E+03 -0.70690453874E+03  0.77619659141E+03  0.93398678159E+02 0.  0.
        -11    1    3    3    0    0  0.22542529597E+03  0.35438584945E+02 -0.10972759983E+03  0.25320466728E+03  0.00000000000E+00 0. -1.
         11    1    3    3    0    0  0.67465360436E+02 -0.33490181143E+02 -0.10616554155E+02  0.76064961145E+02  0.00000000000E+00 0.  1.
        -13    1    4    4    0    0 -0.11683875855E+03  0.27775040009E+02 -0.27473978974E+03  0.29984112528E+03  0.00000000000E+00 0. -1.
         13    1    4    4    0    0 -0.13337363730E+03  0.14953137696E+03 -0.43216474901E+03  0.47635546612E+03  0.00000000000E+00 0.  1.
          2    1    1    2  501    0 -0.42678260560E+02 -0.17925482077E+03  0.44191275299E+02  0.18949035201E+03  0.00000000000E+00 0. -1.
<scales pt_clust_5="13000.00000" pt_clust_6="13000.00000" pt_clust_7="13000.00000" pt_clust_8="13000.00000" pt_clust_9="13000.00000"></scales>
<clustering>
<clus scale="   90.261">  5  6 -1 -1</clus>
<clus scale="   93.399">  7  8 -1 -1</clus>
<clus scale="  184.265">  7  9 -1 -1</clus>
<clus scale="  306.490">  2  5  1 -1</clus>
<clus scale="  702.398">  1  5  2 -1</clus>
</clustering>
</event>
<event>
 9    1  0.3312826E-006  0.2834875E+03  0.7546771E-02  0.1104022E+00
          1   -1    0    0  502    0 -0.00000000000E+00  0.00000000000E+00  0.64382695576E+03  0.64382695576E+03  0.00000000000E+00 0. -1.
         21   -1    0    0  501  502  0.00000000000E+00 -0.00000000000E+00 -0.10063382046E+03  0.10063382046E+03  0.00000000000E+00 0.  1.
         23    2    1    2    0    0  0.12070796150E+03 -0.15735225810E+03  0.17061840128E+03  0.27629722286E+03  0.88878407983E+02 0.  0.
         23    2    1    2    0    0 -0.10006984596E+03  0.80785741421E+02  0.35180757649E+03  0.38619015450E+03  0.93989118873E+02 0.  0.
        -13    1    3    3    0    0  0.81802527133E+02 -0.13196236885E+03  0.16945189951E+03  0.22982529557E+03  0.00000000000E+00 0.  1.
         13    1    3    3    0    0  0.38905434370E+02 -0.25389889251E+02  0.11665017739E+01  0.46471927290E+02  0.00000000000E+00 0. -1.
        -13    1    4    4    0    0 -0.91734116332E+02  0.16699090240E+02  0.18187024959E+03  0.20437904834E+03  0.00000000000E+00 0.  1.
         13    1    4    4    0    0 -0.83357296274E+01  0.64086651181E+02  0.16993732690E+03  0.18181110616E+03  0.00000000000E+00 0. -1.
          1    1    1    2  501    0 -0.20638115544E+02  0.76566516677E+02  0.20767157532E+02  0.81973398864E+02  0.00000000000E+00 0. -1.
<scales pt_clust_5="13000.00000" pt_clust_6="13000.00000" pt_clust_7="13000.00000" pt_clust_8="13000.00000" pt_clust_9="13000.00000"></scales>
<clustering>
<clus scale="   88.878">  5  6 -1 -1</clus>
<clus scale="   93.989">  7  8 -1 -1</clus>
<clus scale="   79.299">  7  9 -1 -1</clus>
<clus scale="  217.324">  1  5  2 -1</clus>
<clus scale="  283.488">  2  5  1 -1</clus>
</clustering>
</event>
<event>
 9    1  0.3312826E-006  0.7958541E+03  0.7546771E-02  0.9930135E-01
         -1   -1    0    0    0  501 -0.00000000000E+00  0.00000000000E+00  0.14817064262E+04  0.14817064262E+04  0.00000000000E+00 0.  1.
         21   -1    0    0  501  502  0.00000000000E+00 -0.00000000000E+00 -0.25164945989E+03  0.25164945989E+03  0.00000000000E+00 0. -1.
         23    2    1    2    0    0  0.21989898877E+03  0.83410818810E+01  0.78790787706E+03  0.82292762578E+03  0.89363950435E+02 0.  0.
         23    2    1    2    0    0 -0.38879488008E+03 -0.79604056358E+02 -0.25107043430E+02  0.40849945345E+03  0.93504947860E+02 0.  0.
        -11    1    3    3    0    0  0.40730093385E+02 -0.21436395912E+02  0.82062074892E+02  0.94088488735E+02  0.00000000000E+00 0.  1.
         11    1    3    3    0    0  0.17916889538E+03  0.29777477793E+02  0.70584580217E+03  0.72883913705E+03  0.00000000000E+00 0. -1.
        -13    1    4    4    0    0 -0.34074818310E+03 -0.73474514842E+02 -0.53030981450E+02  0.35259057505E+03  0.00000000000E+00 0. -1.
         13    1    4    4    0    0 -0.48046696975E+02 -0.61295415157E+01  0.27923938020E+02  0.55908878400E+02  0.00000000000E+00 0.  1.
         -1    1    1    2    0  502  0.16889589131E+03  0.71262974477E+02  0.46725613267E+03  0.50192880686E+03  0.00000000000E+00 0.  1.
<scales pt_clust_5="13000.00000" pt_clust_6="13000.00000" pt_clust_7="13000.00000" pt_clust_8="13000.00000" pt_clust_9="13000.00000"></scales>
<clustering>
<clus scale="   89.364">  5  6 -1 -1</clus>
<clus scale="   93.505">  7  8 -1 -1</clus>
<clus scale="  183.315">  7  9 -1 -1</clus>
<clus scale="  237.510">  1  5  2 -1</clus>
<clus scale="  795.854">  2  5  1 -1</clus>
</clustering>
</event>
<event>
 9    1  0.3312826E-006  0.2715373E+03  0.7546771E-02  0.1114008E+00
         -1   -1    0    0    0  501 -0.00000000000E+00  0.00000000000E+00  0.12415564272E+04  0.12415564272E+04  0.00000000000E+00 0.  1.
         21   -1    0    0  501  502  0.00000000000E+00 -0.00000000000E+00 -0.75932763157E+02  0.75932763157E+02  0.00000000000E+00 0.  1.
         23    2    1    2    0    0 -0.14429764283E+03  0.86680076041E+02  0.95444408659E+03  0.97349889298E+03  0.91658796123E+02 0.  0.
         23    2    1    2    0    0  0.46952377169E+02  0.38221251078E+02  0.88426069754E+02  0.14362845988E+03  0.95627270798E+02 0.  0.
        -11    1    4    4    0    0  0.31485115768E+01  0.57946810643E+02  0.22919490571E+02  0.62394302920E+02  0.00000000000E+00 0.  1.
         11    1    4    4    0    0  0.43803865592E+02 -0.19725559566E+02  0.65506579183E+02  0.81234156962E+02  0.00000000000E+00 0. -1.
        -13    1    3    3    0    0 -0.39131253199E+02 -0.71580190877E+01  0.10202884530E+03  0.10950971412E+03  0.00000000000E+00 0. -1.
         13    1    3    3    0    0 -0.10516638963E+03  0.93838095128E+02  0.85241524129E+03  0.86398917886E+03  0.00000000000E+00 0.  1.
         -1    1    1    2    0  502  0.97345265664E+02 -0.12490132712E+03  0.12275350765E+03  0.20036183744E+03  0.00000000000E+00 0.  1.
<scales pt_clust_5="13000.00000" pt_clust_6="13000.00000" pt_clust_7="13000.00000" pt_clust_8="13000.00000" pt_clust_9="13000.00000"></scales>
<clustering>
<clus scale="   91.659">  7  8 -1 -1</clus>
<clus scale="   95.627">  5  6 -1 -1</clus>
<clus scale="  158.356">  5  9 -1 -1</clus>
<clus scale="  191.668">  1  7  2 -1</clus>
<clus scale="  271.537">  2  5  1 -1</clus>
</clustering>
</event>
<event>
 9    1  0.3312826E-006  0.3402263E+03  0.7546771E-02  0.1091146E+00
         -1   -1    0    0    0  501 -0.00000000000E+00  0.00000000000E+00  0.22613030403E+03  0.22613030403E+03  0.00000000000E+00 0.  1.
         21   -1    0    0  501  502  0.00000000000E+00 -0.00000000000E+00 -0.29632656509E+03  0.29632656509E+03  0.00000000000E+00 0.  1.
         23    2    1    2    0    0  0.75501946320E+02  0.13068616644E+03 -0.43680781383E+02  0.18119885571E+03  0.90252959226E+02 0.  0.
         23    2    1    2    0    0  0.60635654139E+02 -0.14794239111E+02  0.76674154234E+02  0.13483009470E+03  0.91677022444E+02 0.  0.
        -11    1    4    4    0    0 -0.19011877370E+02 -0.24113704105E+02  0.21977967667E+02  0.37761796429E+02  0.00000000000E+00 0. -1.
         11    1    4    4    0    0  0.79647531509E+02  0.93194649941E+01  0.54696186567E+02  0.97068298266E+02  0.00000000000E+00 0.  1.
        -11    1    3    3    0    0  0.27786673678E+02  0.10781081197E+03 -0.59146524992E+02  0.12606974986E+03  0.00000000000E+00 0. -1.
         11    1    3    3    0    0  0.47715272642E+02  0.22875354471E+02  0.15465743609E+02  0.55129105841E+02  0.00000000000E+00 0.  1.
         -1    1    1    2    0  502 -0.13613760046E+03 -0.11589192733E+03 -0.10318963392E+03  0.20642791872E+03  0.00000000000E+00 0.  1.
<scales pt_clust_5="13000.00000" pt_clust_6="13000.00000" pt_clust_7="13000.00000" pt_clust_8="13000.00000" pt_clust_9="13000.00000"></scales>
<clustering>
<clus scale="   90.253">  7  8 -1 -1</clus>
<clus scale="   91.677">  5  6 -1 -1</clus>
<clus scale="  175.855">  1  7  2 -1</clus>
<clus scale="  133.179">  5  9 -1 -1</clus>
<clus scale="  340.226">  2  5  1 -1</clus>
</clustering>
</event>
<event>
 9    1  0.3312826E-006  0.3932344E+03  0.7546771E-02  0.1079252E+00
          2   -1    0    0  502    0 -0.00000000000E+00  0.00000000000E+00  0.32386906657E+03  0.32386906657E+03  0.00000000000E+00 0. -1.
         21   -1    0    0  501  502  0.00000000000E+00 -0.00000000000E+00 -0.23578255327E+03  0.23578255327E+03  0.00000000000E+00 0. -1.
         23    2    1    2    0    0  0.25471954145E+02 -0.10097253969E+03 -0.11185897649E+01  0.15642606575E+03  0.11672012931E+03 0.  0.
         23    2    1    2    0    0  0.59926486431E+02  0.10067016572E+03  0.20672294428E+03  0.25795536413E+03  0.10040382537E+03 0.  0.
        -13    1    4    4    0    0 -0.21308643775E+02  0.20627102494E+02  0.90030152963E+02  0.94789050525E+02  0.00000000000E+00 0.  1.
         13    1    4    4    0    0  0.81235130205E+02  0.80043063225E+02  0.11669279132E+03  0.16316631361E+03  0.00000000000E+00 0. -1.
        -13    1    3    3    0    0 -0.87909326494E+01  0.21141275363E+02 -0.17122982906E+02  0.28590742635E+02  0.00000000000E+00 0.  1.
         13    1    3    3    0    0  0.34262886795E+02 -0.12211381505E+03  0.16004393141E+02  0.12783532312E+03  0.00000000000E+00 0. -1.
          2    1    1    2  501    0 -0.85398440576E+02  0.30237396710E+00 -0.11751784123E+03  0.14527018995E+03  0.00000000000E+00 0. -1.
<scales pt_clust_5="13000.00000" pt_clust_6="13000.00000" pt_clust_7="13000.00000" pt_clust_8="13000.00000" pt_clust_9="13000.00000"></scales>
<clustering>
<clus scale="  100.404">  5  6 -1 -1</clus>
<clus scale="   85.399">  5  9 -1 -1</clus>
<clus scale="  116.720">  7  8 -1 -1</clus>
<clus scale="  156.422">  1  7  2 -1</clus>
<clus scale="  393.234">  2  5  1 -1</clus>
</clustering>
</event>
<event>
 9    1  0.3312826E-006  0.1691519E+03  0.7546771E-02  0.1205010E+00
         21   -1    0    0  501  502  0.00000000000E+00  0.00000000000E+00  0.41318109169E+02  0.41318109169E+02  0.00000000000E+00 0. -1.
          1   -1    0    0  502    0 -0.00000000000E+00 -0.00000000000E+00 -0.46599476726E+03  0.46599476726E+03  0.00000000000E+00 0. -1.
         23    2    1    2    0    0 -0.62296075820E+00 -0.23149972169E+02 -0.23364235928E+03  0.25215318170E+03  0.91957412427E+02 0.  0.
         23    2    1    2    0    0 -0.26181926603E+02  0.21660005655E+02 -0.20208526979E+03  0.22612788552E+03  0.95607087700E+02 0.  0.
        -11    1    4    4    0    0 -0.22339758488E+02  0.57075391989E+02 -0.93063990015E+02  0.11143415732E+03  0.00000000000E+00 0.  1.
         11    1    4    4    0    0 -0.38421681153E+01 -0.35415386334E+02 -0.10902127977E+03  0.11469372820E+03  0.00000000000E+00 0. -1.
        -13    1    3    3    0    0  0.44035514509E+02 -0.28428624692E+01 -0.87517182423E+02  0.98012578908E+02  0.00000000000E+00 0.  1.
         13    1    3    3    0    0 -0.44658475267E+02 -0.20307109700E+02 -0.14612517686E+03  0.15414060279E+03  0.00000000000E+00 0. -1.
          1    1    1    2  501    0  0.26804887361E+02  0.14899665148E+01  0.11050970974E+02  0.29031809212E+02  0.00000000000E+00 0. -1.
<scales pt_clust_5="13000.00000" pt_clust_6="13000.00000" pt_clust_7="13000.00000" pt_clust_8="13000.00000" pt_clust_9="13000.00000"></scales>
<clustering>
<clus scale="   91.957">  7  8 -1 -1</clus>
<clus scale="   94.829">  2  7  1 -1</clus>
<clus scale="   95.607">  5  6 -1 -1</clus>
<clus scale="   26.786">  5  9 -1 -1</clus>
<clus scale="  169.152">  1  5  2 -1</clus>
</clustering>
</event>
<event>
 9    1  0.3312826E-006  0.3136957E+03  0.7546771E-02  0.1111084E+00
         21   -1    0    0  501  502  0.00000000000E+00  0.00000000000E+00  0.23769203528E+03  0.23769203528E+03  0.00000000000E+00 0.  1.
          2   -1    0    0  502    0 -0.00000000000E+00 -0.00000000000E+00 -0.21362756365E+03  0.21362756365E+03  0.00000000000E+00 0. -1.
         23    2    1    2    0    0  0.64406749854E+02 -0.69858714582E+02 -0.16982630593E+02  0.13494979109E+03  0.94311011779E+02 0.  0.
         23    2    1    2    0    0  0.70410112843E+02 -0.19602276103E+02 -0.50993466661E+02  0.13022383919E+03  0.94953048571E+02 0.  0.
        -11    1    4    4    0    0  0.37739087311E+02  0.19328682139E+02 -0.64908187414E+02  0.77530055189E+02  0.00000000000E+00 0. -1.
         11    1    4    4    0    0  0.32671025532E+02 -0.38930958242E+02  0.13914720752E+02  0.52693784003E+02  0.00000000000E+00 0.  1.
        -13    1    3    3    0    0  0.87499427216E+02 -0.63456189110E+02 -0.51144660264E+01  0.10820811181E+03  0.00000000000E+00 0.  1.
         13    1    3    3    0    0 -0.23092677362E+02 -0.64025254715E+01 -0.11868164567E+02  0.26741679273E+02  0.00000000000E+00 0. -1.
          2    1    1    2  501    0 -0.13481686270E+03  0.89460990685E+02  0.92040568888E+02  0.18614596865E+03  0.00000000000E+00 0. -1.
<scales pt_clust_5="13000.00000" pt_clust_6="13000.00000" pt_clust_7="13000.00000" pt_clust_8="13000.00000" pt_clust_9="13000.00000"></scales>
<clustering>
<clus scale="   94.311">  7  8 -1 -1</clus>
<clus scale="   94.953">  5  6 -1 -1</clus>
<clus scale="  133.877">  2  7  1 -1</clus>
<clus scale="  130.482">  5  9 -1 -1</clus>
<clus scale="  313.696">  1  5  2 -1</clus>
</clustering>
</event>
<event>
 9    1  0.3312826E-006  0.1748896E+03  0.7546771E-02  0.1198459E+00
          4   -1    0    0  502    0 -0.00000000000E+00  0.00000000000E+00  0.57828648404E+03  0.57828648404E+03  0.00000000000E+00 0. -1.
         21   -1    0    0  501  502  0.00000000000E+00 -0.00000000000E+00 -0.45095781167E+02  0.45095781167E+02  0.00000000000E+00 0.  1.
         23    2    1    2    0    0 -0.32831101359E+02  0.23892554882E+02  0.37414278147E+03  0.38698719486E+03  0.90152829499E+02 0.  0.
         23    2    1    2    0    0 -0.16298108160E+02 -0.55570359711E+02  0.66046631099E+02  0.12654789221E+03  0.91096203732E+02 0.  0.
        -11    1    4    4    0    0 -0.33788017996E+02  0.13394661793E+02  0.16951766232E+02  0.40104981025E+02  0.00000000000E+00 0.  1.
         11    1    4    4    0    0  0.17489909836E+02 -0.68965021504E+02  0.49094864867E+02  0.86442911181E+02  0.00000000000E+00 0. -1.
        -11    1    3    3    0    0  0.22654273143E+02 -0.16747850071E+02  0.77098308280E+02  0.82084442577E+02  0.00000000000E+00 0.  1.
         11    1    3    3    0    0 -0.55485374503E+02  0.40640404954E+02  0.29704447319E+03  0.30490275228E+03  0.00000000000E+00 0. -1.
          4    1    1    2  501    0  0.49129209519E+02  0.31677804829E+02  0.93001290308E+02  0.10984717814E+03  0.00000000000E+00 0. -1.
<scales pt_clust_5="13000.00000" pt_clust_6="13000.00000" pt_clust_7="13000.00000" pt_clust_8="13000.00000" pt_clust_9="13000.00000"></scales>
<clustering>
<clus scale="   90.153">  7  8 -1 -1</clus>
<clus scale="   91.096">  5  6 -1 -1</clus>
<clus scale="   58.457">  5  9 -1 -1</clus>
<clus scale="   98.875">  1  7  2 -1</clus>
<clus scale="  174.890">  2  5  1 -1</clus>
</clustering>
</event>
<event>
 9    1  0.3312826E-006  0.1922598E+03  0.7546771E-02  0.1184440E+00
          1   -1    0    0  502    0 -0.00000000000E+00  0.00000000000E+00  0.35623548176E+03  0.35623548176E+03  0.00000000000E+00 0. -1.
         21   -1    0    0  501  502  0.00000000000E+00 -0.00000000000E+00 -0.60547941543E+02  0.60547941543E+02  0.00000000000E+00 0.  1.
         23    2    1    2    0    0 -0.20631211313E+01  0.36948004653E+02  0.96876194420E+02  0.14021553271E+03  0.94371537294E+02 0.  0.
         23    2    1    2    0    0  0.68081456589E+01  0.35919336965E+02  0.54056930043E+02  0.11443829548E+03  0.94007564434E+02 0.  0.
        -13    1    3    3    0    0 -0.46985475203E+02  0.19178111942E+02  0.34701182558E+02  0.61478507860E+02  0.00000000000E+00 0. -1.
         13    1    3    3    0    0  0.44922354071E+02  0.17769892710E+02  0.62175011861E+02  0.78737024850E+02  0.00000000000E+00 0.  1.
        -13    1    4    4    0    0  0.32012955675E+02 -0.38076215473E+01  0.58895963654E+02  0.67142101901E+02  0.00000000000E+00 0. -1.
         13    1    4    4    0    0 -0.25204810016E+02  0.39726958512E+02 -0.48390336111E+01  0.47296193577E+02  0.00000000000E+00 0.  1.
          1    1    1    2  501    0 -0.47450245276E+01 -0.72867341618E+02  0.14475441576E+03  0.16212959512E+03  0.00000000000E+00 0. -1.
<scales pt_clust_5="13000.00000" pt_clust_6="13000.00000" pt_clust_7="13000.00000" pt_clust_8="13000.00000" pt_clust_9="13000.00000"></scales>
<clustering>
<clus scale="   94.008">  7  8 -1 -1</clus>
<clus scale="   73.022">  7  9 -1 -1</clus>
<clus scale="   94.372">  5  6 -1 -1</clus>
<clus scale="  101.368">  1  5  2 -1</clus>
<clus scale="  192.260">  2  5  1 -1</clus>
</clustering>
</event>
<event>
 9    1  0.3312826E-006  0.1737586E+03  0.7546771E-02  0.1191407E+00
         21   -1    0    0  501  502  0.00000000000E+00  0.00000000000E+00  0.15062038691E+03  0.15062038691E+03  0.00000000000E+00 0. -1.
          3   -1    0    0  502    0 -0.00000000000E+00 -0.00000000000E+00 -0.16115613127E+03  0.16115613127E+03  0.00000000000E+00 0. -1.
         23    2    1    2    0    0 -0.74730164099E+02  0.39143837626E+02 -0.58662260262E+02  0.13147621909E+03  0.82023764588E+02 0.  0.
         23    2    1    2    0    0  0.25478058470E+02 -0.55889945984E+02  0.41946851050E+01  0.11221059493E+03  0.93812604200E+02 0.  0.
        -11    1    3    3    0    0  0.10455156719E+02  0.30260014646E+02 -0.16209883782E+02  0.35885082146E+02  0.00000000000E+00 0.  1.
         11    1    3    3    0    0 -0.85185320819E+02  0.88838229800E+01 -0.42452376480E+02  0.95591136946E+02  0.00000000000E+00 0. -1.
        -13    1    4    4    0    0 -0.23681654244E+02  0.10087974977E+01  0.24737920637E+02  0.34260810521E+02  0.00000000000E+00 0.  1.
         13    1    4    4    0    0  0.49159712714E+02 -0.56898743482E+02 -0.20543235532E+02  0.77949784413E+02  0.00000000000E+00 0. -1.
          3    1    1    2  501    0  0.49252105629E+02  0.16746108359E+02  0.43931830796E+02  0.68089704150E+02  0.00000000000E+00 0. -1.
<scales pt_clust_5="13000.00000" pt_clust_6="13000.00000" pt_clust_7="13000.00000" pt_clust_8="13000.00000" pt_clust_9="13000.00000"></scales>
<clustering>
<clus scale="   82.024">  5  6 -1 -1</clus>
<clus scale="   93.813">  7  8 -1 -1</clus>
<clus scale="   52.021">  7  9 -1 -1</clus>
<clus scale="  117.664">  2  5  1 -1</clus>
<clus scale="  173.759">  1  5  2 -1</clus>
</clustering>
</event>
<event>
 9    1  0.3312826E-006  0.5126136E+03  0.7546771E-02  0.1066481E+00
         -1   -1    0    0    0  501 -0.00000000000E+00  0.00000000000E+00  0.37964918475E+03  0.37964918475E+03  0.00000000000E+00 0.  1.
         21   -1    0    0  501  502  0.00000000000E+00 -0.00000000000E+00 -0.26714639775E+03  0.26714639775E+03  0.00000000000E+00 0.  1.
         23    2    1    2    0    0  0.40522093128E+02 -0.38813656169E+01  0.88544910299E+02  0.13362241717E+03  0.91420152047E+02 0.  0.
         23    2    1    2    0    0 -0.42701213848E+02  0.20955472322E+03  0.14500136996E+03  0.27451481987E+03  0.92716845029E+02 0.  0.
        -11    1    3    3    0    0 -0.23674174322E+02 -0.99951936887E+01  0.21128482638E+01  0.25784385866E+02  0.00000000000E+00 0. -1.
         11    1    3    3    0    0  0.64196267450E+02  0.61138280718E+01  0.86432062035E+02  0.10783803131E+03  0.00000000000E+00 0.  1.
        -13    1    4    4    0    0 -0.57929965974E+02  0.78948815383E+02  0.86268731645E+02  0.13050322014E+03  0.00000000000E+00 0. -1.
         13    1    4    4    0    0  0.15228752126E+02  0.13060590784E+03  0.58732638311E+02  0.14401159973E+03  0.00000000000E+00 0.  1.
         -1    1    1    2    0  502  0.21791207198E+01 -0.20567335761E+03 -0.12104349325E+03  0.23865834545E+03  0.00000000000E+00 0.  1.
<scales pt_clust_5="13000.00000" pt_clust_6="13000.00000" pt_clust_7="13000.00000" pt_clust_8="13000.00000" pt_clust_9="13000.00000"></scales>
<clustering>
<clus scale="   91.420">  5  6 -1 -1</clus>
<clus scale="   92.717">  7  8 -1 -1</clus>
<clus scale="  100.074">  1  5  2 -1</clus>
<clus scale="  206.819">  7  9 -1 -1</clus>
<clus scale="  512.614">  2  5  1 -1</clus>
</clustering>
</event>
<event>
 9    1  0.3312826E-006  0.1910059E+03  0.7546771E-02  0.1186307E+00
         21   -1    0    0  501  502  0.00000000000E+00  0.00000000000E+00  0.64123298151E+02  0.64123298151E+02  0.00000000000E+00 0.  1.
          1   -1    0    0  502    0 -0.00000000000E+00 -0.00000000000E+00 -0.61443771579E+03  0.61443771579E+03  0.00000000000E+00 0. -1.
         23    2    1    2    0    0 -0.29291831255E+02 -0.28597211027E+02 -0.45388839062E+03  0.46459554344E+03  0.90324614555E+02 0.  0.
         23    2    1    2    0    0 -0.36150801102E+02 -0.19718055131E+02 -0.84833033941E+02  0.13179795524E+03  0.92078093162E+02 0.  0.
        -11    1    4    4    0    0 -0.12311085493E+02 -0.50459765216E+02 -0.18953916604E+02  0.55290159037E+02  0.00000000000E+00 0.  1.
         11    1    4    4    0    0 -0.23839715609E+02  0.30741710086E+02 -0.65879117337E+02  0.76507796207E+02  0.00000000000E+00 0. -1.
        -13    1    3    3    0    0  0.28327828913E+02 -0.28396831150E+02 -0.22624968774E+03  0.22977764711E+03  0.00000000000E+00 0.  1.
         13    1    3    3    0    0 -0.57619660168E+02 -0.20037987693E+00 -0.22763870288E+03  0.23481789633E+03  0.00000000000E+00 0. -1.
          1    1    1    2  501    0  0.65442632357E+02  0.48315266157E+02 -0.11592993077E+02  0.82167515249E+02  0.00000000000E+00 0. -1.
<scales pt_clust_5="13000.00000" pt_clust_6="13000.00000" pt_clust_7="13000.00000" pt_clust_8="13000.00000" pt_clust_9="13000.00000"></scales>
<clustering>
<clus scale="   90.325">  7  8 -1 -1</clus>
<clus scale="   92.078">  5  6 -1 -1</clus>
<clus scale="   81.346">  5  9 -1 -1</clus>
<clus scale="   99.168">  2  7  1 -1</clus>
<clus scale="  191.006">  1  5  2 -1</clus>
</clustering>
</event>
<event>
 9    1  0.3312826E-006  0.3466466E+03  0.7546771E-02  0.1106390E+00
          1   -1    0    0  502    0 -0.00000000000E+00  0.00000000000E+00  0.14443282227E+03  0.14443282227E+03  0.00000000000E+00 0. -1.
         21   -1    0    0  501  502  0.00000000000E+00 -0.00000000000E+00 -0.45964539152E+03  0.45964539152E+03  0.00000000000E+00 0.  1.
         23    2    1    2    0    0 -0.42294256989E+02 -0.40028337257E+02 -0.21644631623E+03  0.24363594499E+03  0.95490281826E+02 0.  0.
         23    2    1    2    0    0  0.39280642858E+02  0.17160936760E+03 -0.11280081262E+03  0.22808057390E+03  0.91126181269E+02 0.  0.
        -11    1    3    3    0    0 -0.16702701660E+02  0.26385680298E+02 -0.11859479670E+03  0.12263731150E+03  0.00000000000E+00 0.  1.
         11    1    3    3    0    0 -0.25591555329E+02 -0.66414017556E+02 -0.97851519533E+02  0.12099863349E+03  0.00000000000E+00 0. -1.
        -13    1    4    4    0    0 -0.22380769008E+02  0.17859207392E+02 -0.34555737538E+02  0.44877044319E+02  0.00000000000E+00 0. -1.
         13    1    4    4    0    0  0.61661411866E+02  0.15375016021E+03 -0.78245075080E+02  0.18320352958E+03  0.00000000000E+00 0.  1.
          1    1    1    2  501    0  0.30136141306E+01 -0.13158103034E+03  0.14034559594E+02  0.13236169491E+03  0.00000000000E+00 0. -1.
<scales pt_clust_5="13000.00000" pt_clust_6="13000.00000" pt_clust_7="13000.00000" pt_clust_8="13000.00000" pt_clust_9="13000.00000"></scales>
<clustering>
<clus scale="   91.126">  7  8 -1 -1</clus>
<clus scale="   95.490">  5  6 -1 -1</clus>
<clus scale="  111.846">  1  5  2 -1</clus>
<clus scale="  155.354">  7  9 -1 -1</clus>
<clus scale="  346.647">  2  5  1 -1</clus>
</clustering>
</event>
<event>
 9    1  0.3312826E-006  0.2729487E+03  0.7546771E-02  0.1141717E+00
          4   -1    0    0  502    0 -0.00000000000E+00  0.00000000000E+00  0.17341066887E+03  0.17341066887E+03  0.00000000000E+00 0. -1.
         21   -1    0    0  501  502  0.00000000000E+00 -0.00000000000E+00 -0.31366323363E+03  0.31366323363E+03  0.00000000000E+00 0.  1.
         23    2    1    2    0    0  0.12240989788E+02 -0.22373412274E+02  0.89174987047E+02  0.13050973257E+03  0.91816123709E+02 0.  0.
         23    2    1    2    0    0 -0.11884149406E+03 -0.84519939864E+01 -0.79523461006E+02  0.17005650354E+03  0.91654223214E+02 0.  0.
        -11    1    3    3    0    0 -0.39257521237E+02 -0.29212415880E+00  0.37000444557E+02  0.53946929547E+02  0.00000000000E+00 0.  1.
         11    1    3    3    0    0  0.51498511025E+02 -0.22081288115E+02  0.52174542491E+02  0.76562803023E+02  0.00000000000E+00 0. -1.
        -11    1    4    4    0    0  0.16220280897E+01 -0.26897788631E+02 -0.24204161349E+02  0.36221035807E+02  0.00000000000E+00 0.  1.
         11    1    4    4    0    0 -0.12046352215E+03  0.18445794644E+02 -0.55319299657E+02  0.13383546773E+03  0.00000000000E+00 0. -1.
          4    1    1    2  501    0  0.10660050427E+03  0.30825406260E+02 -0.14990409081E+03  0.18650766639E+03  0.00000000000E+00 0. -1.
<scales pt_clust_5="13000.00000" pt_clust_6="13000.00000" pt_clust_7="13000.00000" pt_clust_8="13000.00000" pt_clust_9="13000.00000"></scales>
<clustering>
<clus scale="   91.654">  7  8 -1 -1</clus>
<clus scale="   91.816">  5  6 -1 -1</clus>
<clus scale="   95.292">  1  5  2 -1</clus>
<clus scale="  112.792">  7  9 -1 -1</clus>
<clus scale="  272.949">  2  5  1 -1</clus>
</clustering>
</event>
<event>
 9    1  0.3312826E-006  0.1735098E+03  0.7546771E-02  0.1186226E+00
         21   -1    0    0  501  502  0.00000000000E+00  0.00000000000E+00  0.30463840515E+03  0.30463840515E+03  0.00000000000E+00 0. -1.
          2   -1    0    0  502    0 -0.00000000000E+00 -0.00000000000E+00 -0.79013686926E+02  0.79013686926E+02  0.00000000000E+00 0. -1.
         23    2    1    2    0    0  0.48247900338E+02  0.85036849020E+02  0.66743257684E+02  0.14838844635E+03  0.89472582315E+02 0.  0.
         23    2    1    2    0    0  0.74975559372E-01 -0.49495137784E+02  0.57442065907E+02  0.11741516522E+03  0.89649070287E+02 0.  0.
        -13    1    4    4    0    0 -0.15273483439E+02 -0.70895480325E+02  0.27554432742E+02  0.77580250003E+02  0.00000000000E+00 0.  1.
         13    1    4    4    0    0  0.15348458998E+02  0.21400342540E+02  0.29887633164E+02  0.39834915221E+02  0.00000000000E+00 0. -1.
        -13    1    3    3    0    0 -0.15603932116E+02  0.41363941722E+02  0.54323105291E+02  0.70038975869E+02  0.00000000000E+00 0.  1.
         13    1    3    3    0    0  0.63851832454E+02  0.43672907298E+02  0.12420152393E+02  0.78349470483E+02  0.00000000000E+00 0. -1.
          2    1    1    2  501    0 -0.48322875898E+02 -0.35541711236E+02  0.10143939463E+03  0.11784848050E+03  0.00000000000E+00 0. -1.
<scales pt_clust_5="13000.00000" pt_clust_6="13000.00000" pt_clust_7="13000.00000" pt_clust_8="13000.00000" pt_clust_9="13000.00000"></scales>
<clustering>
<clus scale="   89.473">  7  8 -1 -1</clus>
<clus scale="   89.649">  5  6 -1 -1</clus>
<clus scale="   59.986">  5  9 -1 -1</clus>
<clus scale="  132.531">  2  7  1 -1</clus>
<clus scale="  173.510">  1  5  2 -1</clus>
</clustering>
</event>
<event>
 9    1  0.3312826E-006  0.2360307E+03  0.7546771E-02  0.1147143E+00
          2   -1    0    0  502    0 -0.00000000000E+00  0.00000000000E+00  0.34409365098E+03  0.34409365098E+03  0.00000000000E+00 0. -1.
         21   -1    0    0  501  502  0.00000000000E+00 -0.00000000000E+00 -0.37882839523E+03  0.37882839523E+03  0.00000000000E+00 0. -1.
         23    2    1    2    0    0 -0.61227694566E+02 -0.67441213006E+02  0.29226418408E+03  0.31963705303E+03  0.91936633510E+02 0.  0.
         23    2    1    2    0    0  0.27056214486E+01 -0.87026966838E+01 -0.56070991097E+02  0.11583991112E+03  0.10095480003E+03 0.  0.
        -11    1    3    3    0    0 -0.17671533488E+02 -0.19795202330E+02  0.73972840002E+01  0.27547285559E+02  0.00000000000E+00 0.  1.
         11    1    3    3    0    0 -0.43556161078E+02 -0.47646010676E+02  0.28486690008E+03  0.29208976747E+03  0.00000000000E+00 0. -1.
        -13    1    4    4    0    0 -0.45719808523E+02 -0.19757353295E+02 -0.16945505432E+02  0.52609923540E+02  0.00000000000E+00 0.  1.
         13    1    4    4    0    0  0.48425429971E+02  0.11054656611E+02 -0.39125485665E+02  0.63229987579E+02  0.00000000000E+00 0. -1.
          2    1    1    2  501    0  0.58522073117E+02  0.76143909690E+02 -0.27092793724E+03  0.28744508206E+03  0.00000000000E+00 0. -1.
<scales pt_clust_5="13000.00000" pt_clust_6="13000.00000" pt_clust_7="13000.00000" pt_clust_8="13000.00000" pt_clust_9="13000.00000"></scales>
<clustering>
<clus scale="   91.937">  5  6 -1 -1</clus>
<clus scale="  100.955">  7  8 -1 -1</clus>
<clus scale="   96.035">  7  9 -1 -1</clus>
<clus scale="  129.420">  1  5  2 -1</clus>
<clus scale="  236.031">  2  5  1 -1</clus>
</clustering>
</event>
<event>
 9    1  0.3312826E-006  0.2656224E+03  0.7546771E-02  0.1122229E+00
          2   -1    0    0  502    0 -0.00000000000E+00  0.00000000000E+00  0.85624534755E+03  0.85624534755E+03  0.00000000000E+00 0. -1.
         21   -1    0    0  501  502  0.00000000000E+00 -0.00000000000E+00 -0.55844855852E+02  0.55844855852E+02  0.00000000000E+00 0.  1.
         23    2    1    2    0    0 -0.13659735970E+03  0.24042132812E+02  0.37849949589E+03  0.41353660441E+03  0.92270211704E+02 0.  0.
         23    2    1    2    0    0  0.17073069451E+03  0.36169305739E+02  0.30723781695E+03  0.36462023323E+03  0.89975827842E+02 0.  0.
        -11    1    3    3    0    0 -0.68353122241E+02  0.16314727017E+02  0.30480118211E+03  0.31279718709E+03  0.00000000000E+00 0.  1.
         11    1    3    3    0    0 -0.68244237458E+02  0.77274057957E+01  0.73698313780E+02  0.10073941731E+03  0.00000000000E+00 0. -1.
        -13    1    4    4    0    0  0.12844581743E+03 -0.50601882961E+01  0.25588335582E+03  0.28635681467E+03  0.00000000000E+00 0.  1.
         13    1    4    4    0    0  0.42284877078E+02  0.41229494035E+02  0.51354461126E+02  0.78263418565E+02  0.00000000000E+00 0. -1.
          2    1    1    2  501    0 -0.34133334810E+02 -0.60211438551E+02  0.11466317886E+03  0.13393336576E+03  0.00000000000E+00 0. -1.
<scales pt_clust_5="13000.00000" pt_clust_6="13000.00000" pt_clust_7="13000.00000" pt_clust_8="13000.00000" pt_clust_9="13000.00000"></scales>
<clustering>
<clus scale="   89.976">  7  8 -1 -1</clus>
<clus scale="   69.213">  7  9 -1 -1</clus>
<clus scale="   92.270">  5  6 -1 -1</clus>
<clus scale="  166.585">  1  5  2 -1</clus>
<clus scale="  265.622">  2  5  1 -1</clus>
</clustering>
</event>
<event>
 9    1  0.3312826E-006  0.2339103E+03  0.7546771E-02  0.1148773E+00
          1   -1    0    0  502    0 -0.00000000000E+00  0.00000000000E+00  0.47726146892E+03  0.47726146892E+03  0.00000000000E+00 0. -1.
         21   -1    0    0  501  502  0.00000000000E+00 -0.00000000000E+00 -0.92832507373E+02  0.92832507373E+02  0.00000000000E+00 0. -1.
         23    2    1    2    0    0  0.79590454710E+00 -0.91664210716E+02  0.29162568157E+03  0.31844644142E+03  0.89216797249E+02 0.  0.
         23    2    1    2    0    0 -0.16619718114E+02  0.68731361215E+01  0.12713291338E+03  0.15881196445E+03  0.93461261278E+02 0.  0.
        -11    1    3    3    0    0 -0.12188298449E+02 -0.33679811034E+02  0.21310817097E+02  0.41677754447E+02  0.00000000000E+00 0.  1.
         11    1    3    3    0    0  0.12984202997E+02 -0.57984399682E+02  0.27031486447E+03  0.27676868697E+03  0.00000000000E+00 0. -1.
        -13    1    4    4    0    0 -0.29623910369E+02  0.30815585543E+02  0.12426964146E+03  0.13141582921E+03  0.00000000000E+00 0.  1.
         13    1    4    4    0    0  0.13004192254E+02 -0.23942449421E+02  0.28632719194E+01  0.27396135248E+02  0.00000000000E+00 0. -1.
          1    1    1    2  501    0  0.15823813567E+02  0.84791074594E+02 -0.34329633396E+02  0.92835570423E+02  0.00000000000E+00 0. -1.
<scales pt_clust_5="13000.00000" pt_clust_6="13000.00000" pt_clust_7="13000.00000" pt_clust_8="13000.00000" pt_clust_9="13000.00000"></scales>
<clustering>
<clus scale="   89.217">  5  6 -1 -1</clus>
<clus scale="   93.461">  7  8 -1 -1</clus>
<clus scale="   86.255">  7  9 -1 -1</clus>
<clus scale="  127.916">  1  5  2 -1</clus>
<clus scale="  233.910">  2  5  1 -1</clus>
</clustering>
</event>
<event>
 9    1  0.3312826E-006  0.2027233E+03  0.7546771E-02  0.1167762E+00
         21   -1    0    0  501  502  0.00000000000E+00  0.00000000000E+00  0.16510629900E+03  0.16510629900E+03  0.00000000000E+00 0. -1.
          2   -1    0    0  502    0 -0.00000000000E+00 -0.00000000000E+00 -0.20714955346E+03  0.20714955346E+03  0.00000000000E+00 0. -1.
         23    2    1    2    0    0 -0.70188837295E+02 -0.51502039246E+02 -0.10050595550E+03  0.16127096917E+03  0.91257577657E+02 0.  0.
         23    2    1    2    0    0  0.83016623031E+01 -0.23681862900E+02 -0.85777469212E+01  0.92760252885E+02  0.88888348762E+02 0.  0.
        -11    1    4    4    0    0  0.42362951592E+02  0.99652490664E+01 -0.10770022595E+02  0.44832122895E+02  0.00000000000E+00 0.  1.
         11    1    4    4    0    0 -0.34061289289E+02 -0.33647111967E+02  0.21922756741E+01  0.47928129990E+02  0.00000000000E+00 0. -1.
        -13    1    3    3    0    0 -0.39638134679E+02  0.21839350781E+02 -0.25183455465E+02  0.51791364073E+02  0.00000000000E+00 0.  1.
         13    1    3    3    0    0 -0.30550702616E+02 -0.73341390028E+02 -0.75322500033E+02  0.10947960510E+03  0.00000000000E+00 0. -1.
          2    1    1    2  501    0  0.61887174992E+02  0.75183902147E+02  0.67040447962E+02  0.11822463040E+03  0.00000000000E+00 0. -1.
<scales pt_clust_5="13000.00000" pt_clust_6="13000.00000" pt_clust_7="13000.00000" pt_clust_8="13000.00000" pt_clust_9="13000.00000"></scales>
<clustering>
<clus scale="   88.888">  5  6 -1 -1</clus>
<clus scale="   91.258">  7  8 -1 -1</clus>
<clus scale="   97.379">  5  9 -1 -1</clus>
<clus scale="  126.122">  2  7  1 -1</clus>
<clus scale="  202.723">  1  5  2 -1</clus>
</clustering>
</event>
<event>
 9    1  0.3312826E-006  0.1627141E+03  0.7546771E-02  0.1208586E+00
          3   -1    0    0  502    0 -0.00000000000E+00  0.00000000000E+00  0.10741083770E+03  0.10741083770E+03  0.00000000000E+00 0. -1.
         21   -1    0    0  501  502  0.00000000000E+00 -0.00000000000E+00 -0.21116881234E+03  0.21116881234E+03  0.00000000000E+00 0. -1.
         23    2    1    2    0    0 -0.36192918434E+02 -0.17570605578E+02  0.35049284521E+02  0.10470274492E+03  0.90086396991E+02 0.  0.
         23    2    1    2    0    0 -0.24043075777E+02 -0.71229653135E+00 -0.58186844198E+02  0.11159156493E+03  0.92132468039E+02 0.  0.
        -11    1    4    4    0    0  0.73606693743E+01 -0.40739819116E+02 -0.39988080705E+02  0.57558308816E+02  0.00000000000E+00 0.  1.
         11    1    4    4    0    0 -0.31403745151E+02  0.40027522585E+02 -0.18198763492E+02  0.54033256115E+02  0.00000000000E+00 0. -1.
        -13    1    3    3    0    0 -0.25791879904E+02  0.35402413835E+02  0.88069484997E+01  0.44677895163E+02  0.00000000000E+00 0.  1.
         13    1    3    3    0    0 -0.10401038529E+02 -0.52973019413E+02  0.26242336021E+02  0.60024849755E+02  0.00000000000E+00 0. -1.
          3    1    1    2  501    0  0.60235994211E+02  0.18282902110E+02 -0.80620414970E+02  0.10228534019E+03  0.00000000000E+00 0. -1.
<scales pt_clust_5="13000.00000" pt_clust_6="13000.00000" pt_clust_7="13000.00000" pt_clust_8="13000.00000" pt_clust_9="13000.00000"></scales>
<clustering>
<clus scale="   90.086">  7  8 -1 -1</clus>
<clus scale="   92.132">  5  6 -1 -1</clus>
<clus scale="   62.950">  5  9 -1 -1</clus>
<clus scale="   98.662">  1  7  2 -1</clus>
<clus scale="  162.714">  2  5  1 -1</clus>
</clustering>
</event>
<event>
 9    1  0.3312826E-006  0.3052604E+03  0.7546771E-02  0.1104144E+00
         21   -1    0    0  501  502  0.00000000000E+00  0.00000000000E+00  0.15431289897E+03  0.15431289897E+03  0.00000000000E+00 0. -1.
          2   -1    0    0  502    0 -0.00000000000E+00 -0.00000000000E+00 -0.37805282937E+03  0.37805282937E+03  0.00000000000E+00 0. -1.
         23    2    1    2    0    0 -0.37336958364E+02  0.14273332546E+03 -0.11570985238E+03  0.20855345121E+03  0.91317694968E+02 0.  0.
         23    2    1    2    0    0  0.10656949492E+03 -0.11498609424E+03 -0.15266150549E+03  0.23689267476E+03  0.90739985546E+02 0.  0.
        -11    1    4    4    0    0 -0.15620852740E+02 -0.23064425407E+02 -0.29300306147E+02  0.40428785536E+02  0.00000000000E+00 0.  1.
         11    1    4    4    0    0  0.12219034766E+03 -0.91921668836E+02 -0.12336119934E+03  0.19646388922E+03  0.00000000000E+00 0. -1.
        -13    1    3    3    0    0  0.22500302358E+02  0.92018036873E+02 -0.69801067768E+02  0.11766805759E+03  0.00000000000E+00 0. -1.
         13    1    3    3    0    0 -0.59837260722E+02  0.50715288590E+02 -0.45908784615E+02  0.90885393614E+02  0.00000000000E+00 0.  1.
          2    1    1    2  501    0 -0.69232536558E+02 -0.27747231219E+02  0.44631427472E+02  0.86919602373E+02  0.00000000000E+00 0. -1.
<scales pt_clust_5="13000.00000" pt_clust_6="13000.00000" pt_clust_7="13000.00000" pt_clust_8="13000.00000" pt_clust_9="13000.00000"></scales>
<clustering>
<clus scale="   90.740">  5  6 -1 -1</clus>
<clus scale="   74.586">  5  9 -1 -1</clus>
<clus scale="   91.318">  7  8 -1 -1</clus>
<clus scale="  173.510">  2  7  1 -1</clus>
<clus scale="  305.260">  1  5  2 -1</clus>
</clustering>
</event>
<event>
 9    1  0.3312826E-006  0.3995126E+03  0.7546771E-02  0.1068970E+00
         21   -1    0    0  501  502  0.00000000000E+00  0.00000000000E+00  0.54233389440E+03  0.54233389440E+03  0.00000000000E+00 0. -1.
          1   -1    0    0  502    0 -0.00000000000E+00 -0.00000000000E+00 -0.16861324050E+03  0.16861324050E+03  0.00000000000E+00 0. -1.
         23    2    1    2    0    0  0.14270306577E+03 -0.99612314080E+02  0.17922106097E+03  0.26660444934E+03  0.93118019817E+02 0.  0.
         23    2    1    2    0    0 -0.14799363166E+02 -0.30064265626E+01 -0.81155060479E+02  0.12360065367E+03  0.91994119348E+02 0.  0.
        -11    1    3    3    0    0  0.64040514608E+02 -0.99945188418E+02  0.10920493171E+03  0.16129459169E+03  0.00000000000E+00 0. -1.
         11    1    3    3    0    0  0.78662551166E+02  0.33287433801E+00  0.70016129255E+02  0.10530985764E+03  0.00000000000E+00 0.  1.
        -13    1    4    4    0    0  0.25437104587E+02 -0.33926033758E+02 -0.39465839880E+02  0.57927321480E+02  0.00000000000E+00 0. -1.
         13    1    4    4    0    0 -0.40236467753E+02  0.30919607196E+02 -0.41689220599E+02  0.65673332187E+02  0.00000000000E+00 0.  1.
          1    1    1    2  501    0 -0.12790370261E+03  0.10261874064E+03  0.27565465341E+03  0.32074203189E+03  0.00000000000E+00 0. -1.
<scales pt_clust_5="13000.00000" pt_clust_6="13000.00000" pt_clust_7="13000.00000" pt_clust_8="13000.00000" pt_clust_9="13000.00000"></scales>
<clustering>
<clus scale="   91.994">  7  8 -1 -1</clus>
<clus scale="   93.118">  5  6 -1 -1</clus>
<clus scale="  163.982">  7  9 -1 -1</clus>
<clus scale="  197.377">  2  5  1 -1</clus>
<clus scale="  399.513">  1  5  2 -1</clus>
</clustering>
</event>
<event>
 9    1  0.3312826E-006  0.2676606E+03  0.7546771E-02  0.1145582E+00
         21   -1    0    0  501  502  0.00000000000E+00  0.00000000000E+00  0.16414315124E+03  0.16414315124E+03  0.00000000000E+00 0. -1.
          4   -1    0    0  502    0 -0.00000000000E+00 -0.00000000000E+00 -0.20961327258E+03  0.20961327258E+03  0.00000000000E+00 0. -1.
         23    2    1    2    0    0 -0.25327853769E+02 -0.13278449604E+02 -0.52460828175E+02  0.10600452603E+03  0.87561427840E+02 0.  0.
         23    2    1    2    0    0 -0.76833174270E+02  0.17935582477E+02 -0.70305702497E+02  0.13955946653E+03  0.91153338432E+02 0.  0.
        -11    1    3    3    0    0 -0.23119078781E+02 -0.50063754781E+02 -0.28810592043E+02  0.62216730550E+02  0.00000000000E+00 0.  1.
         11    1    3    3    0    0 -0.22087749878E+01  0.36785305176E+02 -0.23650236132E+02  0.43787795480E+02  0.00000000000E+00 0. -1.
        -11    1    4    4    0    0 -0.49566660906E+02  0.18421919683E+02 -0.91052587656E+02  0.10529384938E+03  0.00000000000E+00 0. -1.
         11    1    4    4    0    0 -0.27266513365E+02 -0.48633720533E+00  0.20746885159E+02  0.34265617151E+02  0.00000000000E+00 0.  1.
          4    1    1    2  501    0  0.10216102804E+03 -0.46571328730E+01  0.77296409332E+02  0.12819243126E+03  0.00000000000E+00 0. -1.
<scales pt_clust_5="13000.00000" pt_clust_6="13000.00000" pt_clust_7="13000.00000" pt_clust_8="13000.00000" pt_clust_9="13000.00000"></scales>
<clustering>
<clus scale="   87.561">  5  6 -1 -1</clus>
<clus scale="   91.153">  7  8 -1 -1</clus>
<clus scale="   92.113">  2  5  1 -1</clus>
<clus scale="   97.487">  7  9 -1 -1</clus>
<clus scale="  267.661">  1  5  2 -1</clus>
</clustering>
</event>
<event>
 9    1  0.3312826E-006  0.5020840E+03  0.7546771E-02  0.1019617E+00
          3   -1    0    0  502    0 -0.00000000000E+00  0.00000000000E+00  0.71202080604E+03  0.71202080604E+03  0.00000000000E+00 0. -1.
         21   -1    0    0  501  502  0.00000000000E+00 -0.00000000000E+00 -0.29791094794E+03  0.29791094794E+03  0.00000000000E+00 0. -1.
         23    2    1    2    0    0 -0.32030238704E+03 -0.24450955722E+03  0.24315105201E+03  0.47954012602E+03  0.91966057054E+02 0.  0.
         23    2    1    2    0    0  0.17718917583E+03  0.35549247702E+02  0.17763771919E+03  0.27703336372E+03  0.11194897181E+03 0.  0.
        -11    1    4    4    0    0  0.17052290774E+03  0.60582961475E+02  0.17368342787E+03  0.25082721224E+03  0.00000000000E+00 0.  1.
         11    1    4    4    0    0  0.66662680954E+01 -0.25033713773E+02  0.39542913254E+01  0.26206151482E+02  0.00000000000E+00 0. -1.
        -13    1    3    3    0    0 -0.16620382218E+02 -0.13012657709E+02 -0.79126841402E+01  0.22542780131E+02  0.00000000000E+00 0.  1.
         13    1    3    3    0    0 -0.30368200483E+03 -0.23149689951E+03  0.25106373615E+03  0.45699734589E+03  0.00000000000E+00 0. -1.
          3    1    1    2  501    0  0.14311321121E+03  0.20896030952E+03 -0.66789131023E+01  0.25335826424E+03  0.00000000000E+00 0. -1.
<scales pt_clust_5="13000.00000" pt_clust_6="13000.00000" pt_clust_7="13000.00000" pt_clust_8="13000.00000" pt_clust_9="13000.00000"></scales>
<clustering>
<clus scale="   91.966">  7  8 -1 -1</clus>
<clus scale="  111.949">  5  6 -1 -1</clus>
<clus scale="  253.270">  5  9 -1 -1</clus>
<clus scale="  413.323">  1  7  2 -1</clus>
<clus scale="  502.084">  2  5  1 -1</clus>
</clustering>
</event>
<event>
 9    1  0.3312826E-006  0.1754766E+03  0.7546771E-02  0.1191553E+00
          1   -1    0    0  502    0 -0.00000000000E+00  0.00000000000E+00  0.73878607371E+03  0.73878607371E+03  0.00000000000E+00 0. -1.
         21   -1    0    0  501  502  0.00000000000E+00 -0.00000000000E+00 -0.28623698737E+02  0.28623698737E+02  0.00000000000E+00 0. -1.
         23    2    1    2    0    0  0.37303562133E+02  0.56073124737E+02  0.31815678533E+03  0.33792120231E+03  0.91821826685E+02 0.  0.
         23    2    1    2    0    0 -0.22758743892E+02 -0.17994501234E+02  0.36963890346E+03  0.38299338805E+03  0.95964857342E+02 0.  0.
        -11    1    4    4    0    0 -0.12615917916E+02  0.36164589870E+02  0.87371053141E+02  0.95397798047E+02  0.00000000000E+00 0. -1.
         11    1    4    4    0    0 -0.10142825976E+02 -0.54159091104E+02  0.28226785032E+03  0.28759559001E+03  0.00000000000E+00 0.  1.
        -13    1    3    3    0    0  0.25594602370E+02  0.44624495626E+01  0.14632856636E+02  0.29818075389E+02  0.00000000000E+00 0.  1.
         13    1    3    3    0    0  0.11708959763E+02  0.51610675175E+02  0.30352392869E+03  0.30810312692E+03  0.00000000000E+00 0. -1.
          1    1    1    2  501    0 -0.14544818241E+02 -0.38078623503E+02  0.22366686182E+02  0.46495182077E+02  0.00000000000E+00 0. -1.
<scales pt_clust_5="13000.00000" pt_clust_6="13000.00000" pt_clust_7="13000.00000" pt_clust_8="13000.00000" pt_clust_9="13000.00000"></scales>
<clustering>
<clus scale="   91.822">  7  8 -1 -1</clus>
<clus scale="   95.965">  5  6 -1 -1</clus>
<clus scale="   40.762">  5  9 -1 -1</clus>
<clus scale="  113.873">  1  7  2 -1</clus>
<clus scale="  175.477">  2  5  1 -1</clus>
</clustering>
</event>
<event>
 9    1  0.3312826E-006  0.2626260E+03  0.7546771E-02  0.1132916E+00
         -3   -1    0    0    0  501 -0.00000000000E+00  0.00000000000E+00  0.51842693249E+03  0.51842693249E+03  0.00000000000E+00 0.  1.
         21   -1    0    0  501  502  0.00000000000E+00 -0.00000000000E+00 -0.90137589787E+02  0.90137589787E+02  0.00000000000E+00 0.  1.
         23    2    1    2    0    0  0.35851744271E+02 -0.86900269670E+02  0.27311587743E+03  0.30352151019E+03  0.93252454173E+02 0.  0.
         23    2    1    2    0    0  0.34558705059E+02 -0.38477266744E+02  0.11677647078E+03  0.15620925517E+03  0.89943221654E+02 0.  0.
        -11    1    3    3    0    0  0.62161266474E+02 -0.42567155830E+02  0.20272731059E+03  0.21627378081E+03  0.00000000000E+00 0.  1.
         11    1    3    3    0    0 -0.26309522203E+02 -0.44333113839E+02  0.70388566837E+02  0.87247729383E+02  0.00000000000E+00 0. -1.
        -13    1    4    4    0    0  0.82199542723E+01 -0.64750729441E+02  0.62215924377E+02  0.90172312033E+02  0.00000000000E+00 0.  1.
         13    1    4    4    0    0  0.26338750786E+02  0.26273462697E+02  0.54560546400E+02  0.66036943135E+02  0.00000000000E+00 0. -1.
         -3    1    1    2    0  502 -0.70410449329E+02  0.12537753641E+03  0.38396994498E+02  0.14883375692E+03  0.00000000000E+00 0.  1.
<scales pt_clust_5="13000.00000" pt_clust_6="13000.00000" pt_clust_7="13000.00000" pt_clust_8="13000.00000" pt_clust_9="13000.00000"></scales>
<clustering>
<clus scale="   89.943">  7  8 -1 -1</clus>
<clus scale="   93.252">  5  6 -1 -1</clus>
<clus scale="  132.412">  1  5  2 -1</clus>
<clus scale="  105.928">  7  9 -1 -1</clus>
<clus scale="  262.626">  2  5  1 -1</clus>
</clustering>
</event>
<event>
 9    1  0.3312826E-006  0.5036488E+03  0.7546771E-02  0.1068940E+00
         -1   -1    0    0    0  501 -0.00000000000E+00  0.00000000000E+00  0.85840963964E+03  0.85840963964E+03  0.00000000000E+00 0.  1.
         21   -1    0    0  501  502  0.00000000000E+00 -0.00000000000E+00 -0.10568388041E+03  0.10568388041E+03  0.00000000000E+00 0.  1.
         23    2    1    2    0    0 -0.49856951961E+01  0.39281325535E+02  0.11537920476E+03  0.15176800651E+03  0.90295554799E+02 0.  0.
         23    2    1    2    0    0  0.20295583725E+03 -0.49624062032E+02  0.55030592050E+03  0.59581865151E+03  0.92247709710E+02 0.  0.
        -11    1    3    3    0    0  0.21625136136E+02  0.11257382184E+02 -0.53880754726E+01  0.24968110137E+02  0.00000000000E+00 0.  1.
         11    1    3    3    0    0 -0.26610831332E+02  0.28023943351E+02  0.12076728024E+03  0.12679989637E+03  0.00000000000E+00 0. -1.
        -11    1    4    4    0    0  0.11176718430E+03 -0.27077335341E+02  0.17855862973E+03  0.21238707548E+03  0.00000000000E+00 0. -1.
         11    1    4    4    0    0  0.91188652943E+02 -0.22546726691E+02  0.37174729077E+03  0.38343157604E+03  0.00000000000E+00 0.  1.
         -1    1    1    2    0  502 -0.19797014205E+03  0.10342736497E+02  0.87040633962E+02  0.21650686202E+03  0.00000000000E+00 0.  1.
<scales pt_clust_5="13000.00000" pt_clust_6="13000.00000" pt_clust_7="13000.00000" pt_clust_8="13000.00000" pt_clust_9="13000.00000"></scales>
<clustering>
<clus scale="   90.296">  5  6 -1 -1</clus>
<clus scale="   92.248">  7  8 -1 -1</clus>
<clus scale="   98.596">  1  5  2 -1</clus>
<clus scale="  199.879">  7  9 -1 -1</clus>
<clus scale="  503.649">  2  5  1 -1</clus>
</clustering>
</event>
<event>
 9    1  0.3312826E-006  0.1130629E+03  0.7546771E-02  0.1263316E+00
          1   -1    0    0  502    0 -0.00000000000E+00  0.00000000000E+00  0.42187389904E+03  0.42187389904E+03  0.00000000000E+00 0. -1.
         21   -1    0    0  501  502  0.00000000000E+00 -0.00000000000E+00 -0.37857889816E+02  0.37857889816E+02  0.00000000000E+00 0. -1.
         23    2    1    2    0    0 -0.44098737042E+01  0.25153281010E+02  0.31018068801E+03  0.32469525701E+03  0.92535486075E+02 0.  0.
         23    2    1    2    0    0  0.14889443974E+02 -0.53211350099E+01  0.60257165094E+02  0.10881627761E+03  0.89219091618E+02 0.  0.
        -11    1    4    4    0    0 -0.16845721734E+01 -0.45339164198E+02  0.19646597986E+02  0.49441545344E+02  0.00000000000E+00 0.  1.
         11    1    4    4    0    0  0.16574016147E+02  0.40018029188E+02  0.40610567108E+02  0.59374732271E+02  0.00000000000E+00 0. -1.
        -13    1    3    3    0    0 -0.10000233114E+02 -0.23161120477E+02  0.25430091349E+02  0.35820827881E+02  0.00000000000E+00 0.  1.
         13    1    3    3    0    0  0.55903594093E+01  0.48314401487E+02  0.28475059666E+03  0.28887442913E+03  0.00000000000E+00 0. -1.
          1    1    1    2  501    0 -0.10479570270E+02 -0.19832146000E+02  0.13578156120E+02  0.26220254225E+02  0.00000000000E+00 0. -1.
<scales pt_clust_5="13000.00000" pt_clust_6="13000.00000" pt_clust_7="13000.00000" pt_clust_8="13000.00000" pt_clust_9="13000.00000"></scales>
<clustering>
<clus scale="   89.219">  5  6 -1 -1</clus>
<clus scale="   22.431">  5  9 -1 -1</clus>
<clus scale="   92.535">  7  8 -1 -1</clus>
<clus scale="   95.995">  1  7  2 -1</clus>
<clus scale="  113.063">  2  5  1 -1</clus>
</clustering>
</event>
<event>
 9    1  0.3312826E-006  0.1989397E+03  0.7546771E-02  0.1176860E+00
         -4   -1    0    0    0  501 -0.00000000000E+00  0.00000000000E+00  0.95841854408E+02  0.95841854408E+02  0.00000000000E+00 0.  1.
         21   -1    0    0  501  502  0.00000000000E+00 -0.00000000000E+00 -0.25455324653E+03  0.25455324653E+03  0.00000000000E+00 0.  1.
         23    2    1    2    0    0  0.53485289178E+02 -0.24113676250E+02 -0.86557323608E+02  0.13877470013E+03  0.91236514535E+02 0.  0.
         23    2    1    2    0    0 -0.89488087344E+01  0.21548648180E+02  0.28119632305E+02  0.10187117514E+03  0.95092571674E+02 0.  0.
        -11    1    3    3    0    0 -0.18068946679E+02 -0.28076643403E+02 -0.12314509224E+02  0.35586962167E+02  0.00000000000E+00 0. -1.
         11    1    3    3    0    0  0.71554235857E+02  0.39629671527E+01 -0.74242814384E+02  0.10318773796E+03  0.00000000000E+00 0.  1.
        -13    1    4    4    0    0 -0.12295815571E+02 -0.26547581472E+02  0.42466710688E+02  0.51569202817E+02  0.00000000000E+00 0. -1.
         13    1    4    4    0    0  0.33470068368E+01  0.48096229652E+02 -0.14347078384E+02  0.50301972324E+02  0.00000000000E+00 0.  1.
         -4    1    1    2    0  502 -0.44536480444E+02  0.25650280694E+01 -0.10027370082E+03  0.10974922567E+03  0.00000000000E+00 0.  1.
<scales pt_clust_5="13000.00000" pt_clust_6="13000.00000" pt_clust_7="13000.00000" pt_clust_8="13000.00000" pt_clust_9="13000.00000"></scales>
<clustering>
<clus scale="   91.237">  5  6 -1 -1</clus>
<clus scale="   95.093">  7  8 -1 -1</clus>
<clus scale="   44.610">  7  9 -1 -1</clus>
<clus scale="  108.472">  1  5  2 -1</clus>
<clus scale="  198.940">  2  5  1 -1</clus>
</clustering>
</event>
<event>
 9    1  0.3312826E-006  0.1961734E+03  0.7546771E-02  0.1178642E+00
         -3   -1    0    0    0  501 -0.00000000000E+00  0.00000000000E+00  0.19595484766E+03  0.19595484766E+03  0.00000000000E+00 0.  1.
         21   -1    0    0  501  502  0.00000000000E+00 -0.00000000000E+00 -0.16373742397E+03  0.16373742397E+03  0.00000000000E+00 0.  1.
         23    2    1    2    0    0  0.44323011943E+02  0.36115781955E+02 -0.78848462930E+02  0.13426018761E+03  0.92411248114E+02 0.  0.
         23    2    1    2    0    0  0.15652324709E+02 -0.23047335909E+02  0.13140456877E+03  0.16076766351E+03  0.88334058981E+02 0.  0.
        -11    1    4    4    0    0  0.18563892663E+02 -0.54273107495E+02  0.10552519436E+03  0.12010726436E+03  0.00000000000E+00 0.  1.
         11    1    4    4    0    0 -0.29115679543E+01  0.31225771586E+02  0.25879374407E+02  0.40660399147E+02  0.00000000000E+00 0. -1.
        -11    1    3    3    0    0  0.71553498285E+02  0.13796779853E+02 -0.59555732491E+02  0.94112377101E+02  0.00000000000E+00 0.  1.
         11    1    3    3    0    0 -0.27230486342E+02  0.22319002101E+02 -0.19292730439E+02  0.40147810513E+02  0.00000000000E+00 0. -1.
         -3    1    1    2    0  502 -0.59975336652E+02 -0.13068446046E+02 -0.20338682148E+02  0.64664420512E+02  0.00000000000E+00 0.  1.
<scales pt_clust_5="13000.00000" pt_clust_6="13000.00000" pt_clust_7="13000.00000" pt_clust_8="13000.00000" pt_clust_9="13000.00000"></scales>
<clustering>
<clus scale="   88.334">  5  6 -1 -1</clus>
<clus scale="   61.383">  5  9 -1 -1</clus>
<clus scale="   92.411">  7  8 -1 -1</clus>
<clus scale="  108.668">  1  7  2 -1</clus>
<clus scale="  196.173">  2  5  1 -1</clus>
</clustering>
</event>
<event>
 9    1  0.3312826E-006  0.3113151E+03  0.7546771E-02  0.1114344E+00
          2   -1    0    0  502    0 -0.00000000000E+00  0.00000000000E+00  0.57897712991E+03  0.57897712991E+03  0.00000000000E+00 0. -1.
         21   -1    0    0  501  502  0.00000000000E+00 -0.00000000000E+00 -0.84284983450E+02  0.84284983450E+02  0.00000000000E+00 0. -1.
         23    2    1    2    0    0  0.86193182822E+02 -0.66309284502E+01  0.18701578632E+03  0.22556147291E+03  0.91814158761E+02 0.  0.
         23    2    1    2    0    0 -0.12795018956E+03  0.85981321334E+02  0.29411131938E+03  0.34701358077E+03  0.10076169128E+03 0.  0.
        -13    1    4    4    0    0 -0.31359672077E+02  0.80885862777E+02  0.12415532685E+03  0.15146120631E+03  0.00000000000E+00 0.  1.
         13    1    4    4    0    0 -0.96590517478E+02  0.50954585569E+01  0.16995599253E+03  0.19555237447E+03  0.00000000000E+00 0. -1.
        -13    1    3    3    0    0  0.57640781682E+02 -0.46837667976E+02  0.13364481366E+03  0.15289592235E+03  0.00000000000E+00 0.  1.
         13    1    3    3    0    0  0.28552401140E+02  0.40206739526E+02  0.53370972666E+02  0.72665550555E+02  0.00000000000E+00 0. -1.
          2    1    1    2  501    0  0.41757006733E+02 -0.79350392884E+02  0.13565040759E+02  0.90687059678E+02  0.00000000000E+00 0. -1.
<scales pt_clust_5="13000.00000" pt_clust_6="13000.00000" pt_clust_7="13000.00000" pt_clust_8="13000.00000" pt_clust_9="13000.00000"></scales>
<clustering>
<clus scale="   91.814">  7  8 -1 -1</clus>
<clus scale="  100.762">  5  6 -1 -1</clus>
<clus scale="   89.667">  5  9 -1 -1</clus>
<clus scale="  126.107">  1  7  2 -1</clus>
<clus scale="  311.315">  2  5  1 -1</clus>
</clustering>
</event>
<event>
 9    1  0.3312826E-006  0.1989515E+03  0.7546771E-02  0.1180981E+00
          1   -1    0    0  502    0 -0.00000000000E+00  0.00000000000E+00  0.27895873542E+03  0.27895873542E+03  0.00000000000E+00 0. -1.
         21   -1    0    0  501  502  0.00000000000E+00 -0.00000000000E+00 -0.44500354336E+03  0.44500354336E+03  0.00000000000E+00 0. -1.
         23    2    1    2    0    0  0.19078667653E+01  0.27962886211E+02  0.24670359515E+03  0.26576698858E+03  0.94783254826E+02 0.  0.
         23    2    1    2    0    0  0.46011368121E+02 -0.40310056518E+02 -0.12033501489E+03  0.16162439601E+03  0.88881848105E+02 0.  0.
        -11    1    3    3    0    0 -0.44015258610E+02  0.23277007959E+02  0.95884953071E+02  0.10804205809E+03  0.00000000000E+00 0.  1.
         11    1    3    3    0    0  0.45923125375E+02  0.46858782521E+01  0.15081864208E+03  0.15772493049E+03  0.00000000000E+00 0. -1.
        -13    1    4    4    0    0 -0.61215114328E+01  0.23172225591E+02 -0.15932525683E+02  0.28779685817E+02  0.00000000000E+00 0.  1.
         13    1    4    4    0    0  0.52132879553E+02 -0.63482282109E+02 -0.10440248921E+03  0.13284471019E+03  0.00000000000E+00 0. -1.
          1    1    1    2  501    0 -0.47919234886E+02  0.12347170307E+02 -0.29241338820E+03  0.29657089420E+03  0.00000000000E+00 0. -1.
<scales pt_clust_5="13000.00000" pt_clust_6="13000.00000" pt_clust_7="13000.00000" pt_clust_8="13000.00000" pt_clust_9="13000.00000"></scales>
<clustering>
<clus scale="   88.882">  7  8 -1 -1</clus>
<clus scale="   49.484">  7  9 -1 -1</clus>
<clus scale="   94.783">  5  6 -1 -1</clus>
<clus scale="   98.840">  1  5  2 -1</clus>
<clus scale="  198.951">  2  5  1 -1</clus>
</clustering>
</event>
<event>
 9    1  0.3312826E-006  0.3258499E+03  0.7546771E-02  0.1094801E+00
          2   -1    0    0  502    0 -0.00000000000E+00  0.00000000000E+00  0.11912782851E+04  0.11912782851E+04  0.00000000000E+00 0. -1.
         21   -1    0    0  501  502  0.00000000000E+00 -0.00000000000E+00 -0.54354702510E+02  0.54354702510E+02  0.00000000000E+00 0. -1.
         23    2    1    2    0    0 -0.17342224249E+02  0.15720155778E+03  0.36625824578E+03  0.40891127151E+03  0.89723145625E+02 0.  0.
         23    2    1    2    0    0  0.13450558096E+03 -0.80080836666E+02  0.50285943790E+03  0.53440589238E+03  0.90649610113E+02 0.  0.
        -11    1    4    4    0    0  0.61497788793E+02 -0.75887234849E+02  0.37081525062E+03  0.38346421024E+03  0.00000000000E+00 0. -1.
         11    1    4    4    0    0  0.73007792171E+02 -0.41936018177E+01  0.13204418727E+03  0.15094168214E+03  0.00000000000E+00 0.  1.
        -13    1    3    3    0    0 -0.20223777979E+02  0.34703736719E+02  0.19029950883E+03  0.19449229702E+03  0.00000000000E+00 0.  1.
         13    1    3    3    0    0  0.28815537293E+01  0.12249782106E+03  0.17595873695E+03  0.21441897450E+03  0.00000000000E+00 0. -1.
          2    1    1    2  501    0 -0.11716335671E+03 -0.77120721110E+02  0.26780589896E+03  0.30231582376E+03  0.00000000000E+00 0. -1.
<scales pt_clust_5="13000.00000" pt_clust_6="13000.00000" pt_clust_7="13000.00000" pt_clust_8="13000.00000" pt_clust_9="13000.00000"></scales>
<clustering>
<clus scale="   89.723">  7  8 -1 -1</clus>
<clus scale="   90.650">  5  6 -1 -1</clus>
<clus scale="  140.267">  5  9 -1 -1</clus>
<clus scale="  181.833">  1  7  2 -1</clus>
<clus scale="  325.850">  2  5  1 -1</clus>
</clustering>
</event>
<event>
 9    1  0.3312826E-006  0.2140823E+03  0.7546771E-02  0.1155721E+00
         21   -1    0    0  501  502  0.00000000000E+00  0.00000000000E+00  0.68921841712E+02  0.68921841712E+02  0.00000000000E+00 0. -1.
          2   -1    0    0  502    0 -0.00000000000E+00 -0.00000000000E+00 -0.60238999147E+03  0.60238999147E+03  0.00000000000E+00 0. -1.
         23    2    1    2    0    0 -0.10008055626E+03  0.21417719431E+02 -0.38652346515E+03  0.41165056207E+03  0.97882376825E+02 0.  0.
         23    2    1    2    0    0  0.58710961015E+02  0.45341746516E+01 -0.17226083708E+03  0.20465352808E+03  0.93497245322E+02 0.  0.
        -11    1    3    3    0    0 -0.32228734340E+02  0.27040808314E+02 -0.38492509473E+02  0.57022538675E+02  0.00000000000E+00 0.  1.
         11    1    3    3    0    0 -0.67851821918E+02 -0.56230888833E+01 -0.34803095568E+03  0.35462802339E+03  0.00000000000E+00 0. -1.
        -13    1    4    4    0    0  0.79072194628E+02  0.22913179655E+02 -0.13890248992E+03  0.16146618058E+03  0.00000000000E+00 0.  1.
         13    1    4    4    0    0 -0.20361233613E+02 -0.18379005003E+02 -0.33358347156E+02  0.43187347501E+02  0.00000000000E+00 0. -1.
          2    1    1    2  501    0  0.41369595243E+02 -0.25951894082E+02  0.25316152473E+02  0.55007743028E+02  0.00000000000E+00 0. -1.
<scales pt_clust_5="13000.00000" pt_clust_6="13000.00000" pt_clust_7="13000.00000" pt_clust_8="13000.00000" pt_clust_9="13000.00000"></scales>
<clustering>
<clus scale="   93.497">  7  8 -1 -1</clus>
<clus scale="   48.836">  7  9 -1 -1</clus>
<clus scale="   97.882">  5  6 -1 -1</clus>
<clus scale="  141.618">  2  5  1 -1</clus>
<clus scale="  214.082">  1  5  2 -1</clus>
</clustering>
</event>
<event>
 9    1  0.3312826E-006  0.1656507E+03  0.7546771E-02  0.1203257E+00
         -3   -1    0    0    0  501 -0.00000000000E+00  0.00000000000E+00  0.37569528847E+03  0.37569528847E+03  0.00000000000E+00 0.  1.
         21   -1    0    0  501  502  0.00000000000E+00 -0.00000000000E+00 -0.50136611930E+02  0.50136611930E+02  0.00000000000E+00 0. -1.
         23    2    1    2    0    0 -0.46945140184E+02  0.20246414316E+02  0.16247133067E+03  0.19337194222E+03  0.91553324718E+02 0.  0.
         23    2    1    2    0    0  0.80768185239E+01  0.31070592795E+01  0.16323939701E+03  0.18711512080E+03  0.91049870297E+02 0.  0.
        -13    1    4    4    0    0  0.43412727757E+02 -0.10367415324E+02  0.46725637265E+02  0.64617593654E+02  0.00000000000E+00 0. -1.
         13    1    4    4    0    0 -0.35335909233E+02  0.13474474604E+02  0.11651375974E+03  0.12249752714E+03  0.00000000000E+00 0.  1.
        -13    1    3    3    0    0  0.26884467321E+02  0.58546244535E+01  0.62282115653E+02  0.68089008958E+02  0.00000000000E+00 0. -1.
         13    1    3    3    0    0 -0.73829607506E+02  0.14391789863E+02  0.10018921502E+03  0.12528293326E+03  0.00000000000E+00 0.  1.
         -3    1    1    2    0  502  0.38868321660E+02 -0.23353473596E+02 -0.15205114200E+00  0.45344837382E+02  0.00000000000E+00 0.  1.
<scales pt_clust_5="13000.00000" pt_clust_6="13000.00000" pt_clust_7="13000.00000" pt_clust_8="13000.00000" pt_clust_9="13000.00000"></scales>
<clustering>
<clus scale="   91.050">  5  6 -1 -1</clus>
<clus scale="   45.345">  5  9 -1 -1</clus>
<clus scale="   91.553">  7  8 -1 -1</clus>
<clus scale="  104.861">  1  7  2 -1</clus>
<clus scale="  165.651">  2  5  1 -1</clus>
</clustering>
</event>
<event>
 9    1  0.3312826E-006  0.1380561E+03  0.7546771E-02  0.1233152E+00
         21   -1    0    0  501  502  0.00000000000E+00  0.00000000000E+00  0.55188891465E+03  0.55188891465E+03  0.00000000000E+00 0.  1.
         -3   -1    0    0    0  501 -0.00000000000E+00 -0.00000000000E+00 -0.25515008280E+02  0.25515008280E+02  0.00000000000E+00 0.  1.
         23    2    1    2    0    0  0.23983600250E+02  0.24344020353E+02  0.17435648264E+03  0.19928257131E+03  0.90252511222E+02 0.  0.
         23    2    1    2    0    0 -0.14963671799E+02  0.23437381177E+02  0.25395838403E+03  0.26866818031E+03  0.83153520579E+02 0.  0.
        -11    1    3    3    0    0  0.41969802061E+01  0.56823900659E+02  0.86898756505E+02  0.10391325330E+03  0.00000000000E+00 0.  1.
         11    1    3    3    0    0  0.19786620044E+02 -0.32479880306E+02  0.87457726138E+02  0.95369318016E+02  0.00000000000E+00 0. -1.
        -13    1    4    4    0    0 -0.81110015182E+01 -0.23966959822E+02  0.28210557653E+02  0.37895106173E+02  0.00000000000E+00 0. -1.
         13    1    4    4    0    0 -0.68526702809E+01  0.47404340999E+02  0.22574782637E+03  0.23077307414E+03  0.00000000000E+00 0.  1.
         -3    1    1    2    0  502 -0.90199284506E+01 -0.47781401531E+02  0.98059039696E+02  0.10945317130E+03  0.00000000000E+00 0.  1.
<scales pt_clust_5="13000.00000" pt_clust_6="13000.00000" pt_clust_7="13000.00000" pt_clust_8="13000.00000" pt_clust_9="13000.00000"></scales>
<clustering>
<clus scale="   83.154">  7  8 -1 -1</clus>
<clus scale="   48.625">  7  9 -1 -1</clus>
<clus scale="   90.253">  5  6 -1 -1</clus>
<clus scale="   96.506">  2  5  1 -1</clus>
<clus scale="  138.056">  1  5  2 -1</clus>
</clustering>
</event>
<event>
 9    1  0.3312826E-006  0.1555388E+03  0.7546771E-02  0.1209385E+00
         21   -1    0    0  501  502  0.00000000000E+00  0.00000000000E+00  0.49356547873E+03  0.49356547873E+03  0.00000000000E+00 0. -1.
         -4   -1    0    0    0  501 -0.00000000000E+00 -0.00000000000E+00 -0.88238810631E+02  0.88238810631E+02  0.00000000000E+00 0.  1.
         23    2    1    2    0    0 -0.45242026007E+02  0.45152783176E+02 -0.33696709634E+02  0.11604272197E+03  0.90801048095E+02 0.  0.
         23    2    1    2    0    0  0.69807204003E+02 -0.26577946701E+02  0.29135577301E+03  0.31491663376E+03  0.93299875504E+02 0.  0.
        -11    1    3    3    0    0 -0.64537542499E+02  0.57723031964E+02 -0.33973909142E+02  0.93012199808E+02  0.00000000000E+00 0.  1.
         11    1    3    3    0    0  0.19295516491E+02 -0.12570248788E+02  0.27719950739E+00  0.23030522157E+02  0.00000000000E+00 0. -1.
        -13    1    4    4    0    0  0.12381070408E+02  0.16703229418E+02  0.75142239543E+01  0.22107743871E+02  0.00000000000E+00 0.  1.
         13    1    4    4    0    0  0.57426133594E+02 -0.43281176119E+02  0.28384154905E+03  0.29280888988E+03  0.00000000000E+00 0. -1.
         -4    1    1    2    0  502 -0.24565177995E+02 -0.18574836474E+02  0.14766760472E+03  0.15084493364E+03  0.00000000000E+00 0.  1.
<scales pt_clust_5="13000.00000" pt_clust_6="13000.00000" pt_clust_7="13000.00000" pt_clust_8="13000.00000" pt_clust_9="13000.00000"></scales>
<clustering>
<clus scale="   90.801">  5  6 -1 -1</clus>
<clus scale="   93.300">  7  8 -1 -1</clus>
<clus scale="   30.797">  7  9 -1 -1</clus>
<clus scale="  111.043">  2  5  1 -1</clus>
<clus scale="  155.539">  1  5  2 -1</clus>
</clustering>
</event>
<event>
 9    1  0.3312826E-006  0.2288062E+03  0.7546771E-02  0.1159275E+00
         21   -1    0    0  501  502  0.00000000000E+00  0.00000000000E+00  0.18637256685E+03  0.18637256685E+03  0.00000000000E+00 0.  1.
          2   -1    0    0  502    0 -0.00000000000E+00 -0.00000000000E+00 -0.15147634125E+03  0.15147634125E+03  0.00000000000E+00 0. -1.
         23    2    1    2    0    0  0.26108668032E+02 -0.49761286224E+02  0.26643913930E+01  0.10678357716E+03  0.90762245550E+02 0.  0.
         23    2    1    2    0    0  0.45381934947E+02 -0.24891856182E+01 -0.46852933658E+02  0.11234120268E+03  0.91431025161E+02 0.  0.
        -11    1    3    3    0    0  0.33151381983E+02  0.17362098178E+02  0.10423448051E+02  0.38847198738E+02  0.00000000000E+00 0. -1.
         11    1    3    3    0    0 -0.70427139508E+01 -0.67123384402E+02 -0.77590566581E+01  0.67936378425E+02  0.00000000000E+00 0.  1.
        -11    1    4    4    0    0  0.69140258885E+02  0.39409083652E+01 -0.12961101630E+02  0.70454923979E+02  0.00000000000E+00 0.  1.
         11    1    4    4    0    0 -0.23758323938E+02 -0.64300939834E+01 -0.33891832029E+02  0.41886278699E+02  0.00000000000E+00 0. -1.
          2    1    1    2  501    0 -0.71490602979E+02  0.52250471842E+02  0.79084767867E+02  0.11872412826E+03  0.00000000000E+00 0. -1.
<scales pt_clust_5="13000.00000" pt_clust_6="13000.00000" pt_clust_7="13000.00000" pt_clust_8="13000.00000" pt_clust_9="13000.00000"></scales>
<clustering>
<clus scale="   90.762">  5  6 -1 -1</clus>
<clus scale="   91.431">  7  8 -1 -1</clus>
<clus scale="   88.550">  7  9 -1 -1</clus>
<clus scale="  106.750">  2  5  1 -1</clus>
<clus scale="  228.806">  1  5  2 -1</clus>
</clustering>
</event>
<event>
 9    1  0.3312826E-006  0.2693170E+03  0.7546771E-02  0.1142111E+00
         -3   -1    0    0    0  501 -0.00000000000E+00  0.00000000000E+00  0.10260639331E+03  0.10260639331E+03  0.00000000000E+00 0.  1.
         21   -1    0    0  501  502  0.00000000000E+00 -0.00000000000E+00 -0.50179402931E+03  0.50179402931E+03  0.00000000000E+00 0.  1.
         23    2    1    2    0    0  0.34453263892E+02 -0.85835446944E+01  0.25497856477E+02  0.10151928832E+03  0.91625982031E+02 0.  0.
         23    2    1    2    0    0 -0.34308460132E+02  0.12024137127E+03 -0.20930829932E+03  0.26028099717E+03  0.91110787085E+02 0.  0.
        -11    1    4    4    0    0 -0.64626789920E+02  0.83842626543E+02 -0.12719991426E+03  0.16548723875E+03  0.00000000000E+00 0.  1.
         11    1    4    4    0    0  0.30318329787E+02  0.36398744723E+02 -0.82108385059E+02  0.94793758421E+02  0.00000000000E+00 0. -1.
        -11    1    3    3    0    0  0.63592696201E+02 -0.10128816870E+02  0.26335266009E+01  0.64448114042E+02  0.00000000000E+00 0.  1.
         11    1    3    3    0    0 -0.29139432309E+02  0.15452721755E+01  0.22864329877E+02  0.37071174274E+02  0.00000000000E+00 0. -1.
         -3    1    1    2    0  502 -0.14480375953E+00 -0.11165782657E+03 -0.21537719317E+03  0.24260013714E+03  0.00000000000E+00 0.  1.
<scales pt_clust_5="13000.00000" pt_clust_6="13000.00000" pt_clust_7="13000.00000" pt_clust_8="13000.00000" pt_clust_9="13000.00000"></scales>
<clustering>
<clus scale="   91.111">  5  6 -1 -1</clus>
<clus scale="   91.626">  7  8 -1 -1</clus>
<clus scale="   98.265">  1  7  2 -1</clus>
<clus scale="  115.257">  5  9 -1 -1</clus>
<clus scale="  269.317">  2  5  1 -1</clus>
</clustering>
</event>
<event>
 9    1  0.3312826E-006  0.1316566E+03  0.7546771E-02  0.1235306E+00
         21   -1    0    0  501  502  0.00000000000E+00  0.00000000000E+00  0.15123457272E+03  0.15123457272E+03  0.00000000000E+00 0. -1.
         -3   -1    0    0    0  501 -0.00000000000E+00 -0.00000000000E+00 -0.11514287439E+03  0.11514287439E+03  0.00000000000E+00 0.  1.
         23    2    1    2    0    0  0.22192739687E+02  0.47117368951E+02 -0.40680082231E+02  0.11397216891E+03  0.92855920894E+02 0.  0.
         23    2    1    2    0    0 -0.77288227797E+01 -0.18889928770E+01  0.44474955967E+02  0.94977969586E+02  0.83543342062E+02 0.  0.
        -13    1    4    4    0    0  0.37037139360E+02  0.51099154168E+01  0.12125231438E+02  0.39304989060E+02  0.00000000000E+00 0.  1.
         13    1    4    4    0    0 -0.44765962140E+02 -0.69989082939E+01  0.32349724529E+02  0.55672980527E+02  0.00000000000E+00 0. -1.
        -13    1    3    3    0    0 -0.17440583541E+02  0.61634990422E+02 -0.27934696682E+02  0.69881279878E+02  0.00000000000E+00 0.  1.
         13    1    3    3    0    0  0.39633323228E+02 -0.14517621471E+02 -0.12745385549E+02  0.44090889037E+02  0.00000000000E+00 0. -1.
         -3    1    1    2    0  502 -0.14463916907E+02 -0.45228376074E+02  0.32296824594E+02  0.57427308603E+02  0.00000000000E+00 0.  1.
<scales pt_clust_5="13000.00000" pt_clust_6="13000.00000" pt_clust_7="13000.00000" pt_clust_8="13000.00000" pt_clust_9="13000.00000"></scales>
<clustering>
<clus scale="   83.543">  5  6 -1 -1</clus>
<clus scale="   47.485">  5  9 -1 -1</clus>
<clus scale="   92.856">  7  8 -1 -1</clus>
<clus scale="  106.465">  2  7  1 -1</clus>
<clus scale="  131.657">  1  5  2 -1</clus>
</clustering>
</event>
<event>
 9    1  0.3312826E-006  0.3863855E+03  0.7546771E-02  0.1101006E+00
         21   -1    0    0  501  502  0.00000000000E+00  0.00000000000E+00  0.41735112674E+03  0.41735112674E+03  0.00000000000E+00 0. -1.
          1   -1    0    0  502    0 -0.00000000000E+00 -0.00000000000E+00 -0.29331826744E+03  0.29331826744E+03  0.00000000000E+00 0. -1.
         23    2    1    2    0    0 -0.83301465884E+00 -0.13948520049E+00 -0.19086168202E+03  0.21221949057E+03  0.92780478262E+02 0.  0.
         23    2    1    2    0    0 -0.12082397171E+02 -0.10324235356E+03 -0.27386019440E+02  0.14066422095E+03  0.90727399957E+02 0.  0.
        -11    1    4    4    0    0 -0.21443426132E+02  0.88705200633E+01  0.46962937285E+01  0.23676186882E+02  0.00000000000E+00 0.  1.
         11    1    4    4    0    0  0.93610289610E+01 -0.11211287363E+03 -0.32082313169E+02  0.11698803407E+03  0.00000000000E+00 0. -1.
        -13    1    3    3    0    0  0.43133363461E+02  0.69560361771E+01 -0.12745374638E+03  0.13473429759E+03  0.00000000000E+00 0.  1.
         13    1    3    3    0    0 -0.43966378120E+02 -0.70955213776E+01 -0.63407935642E+02  0.77485192978E+02  0.00000000000E+00 0. -1.
          1    1    1    2  501    0  0.12915411830E+02  0.10338183876E+03  0.34228056075E+03  0.35778568266E+03  0.00000000000E+00 0. -1.
<scales pt_clust_5="13000.00000" pt_clust_6="13000.00000" pt_clust_7="13000.00000" pt_clust_8="13000.00000" pt_clust_9="13000.00000"></scales>
<clustering>
<clus scale="   90.727">  5  6 -1 -1</clus>
<clus scale="   92.780">  7  8 -1 -1</clus>
<clus scale="   92.784">  2  7  1 -1</clus>
<clus scale="  104.165">  5  9 -1 -1</clus>
<clus scale="  386.385">  1  5  2 -1</clus>
</clustering>
</event>
<event>
 9    1  0.3312826E-006  0.1602014E+03  0.7546771E-02  0.1210203E+00
         21   -1    0    0  501  502  0.00000000000E+00  0.00000000000E+00  0.34441724464E+03  0.34441724464E+03  0.00000000000E+00 0. -1.
         -1   -1    0    0    0  501 -0.00000000000E+00 -0.00000000000E+00 -0.13371997324E+03  0.13371997324E+03  0.00000000000E+00 0.  1.
         23    2    1    2    0    0 -0.30001546693E+02 -0.26872214148E+02 -0.91921520301E+02  0.13573011279E+03  0.91383198276E+02 0.  0.
         23    2    1    2    0    0  0.11995766968E+02  0.61660221228E+02  0.17285391528E+03  0.20685882331E+03  0.94690102163E+02 0.  0.
        -11    1    3    3    0    0 -0.46827034330E+01 -0.53578125204E+02 -0.81207127136E+02  0.97401954342E+02  0.00000000000E+00 0.  1.
         11    1    3    3    0    0 -0.25318843260E+02  0.26705911057E+02 -0.10714393165E+02  0.38328158452E+02  0.00000000000E+00 0. -1.
        -13    1    4    4    0    0 -0.40055058587E+02  0.18863286338E+02  0.87932982731E+02  0.98450194219E+02  0.00000000000E+00 0. -1.
         13    1    4    4    0    0  0.52050825554E+02  0.42796934890E+02  0.84920932551E+02  0.10840862909E+03  0.00000000000E+00 0.  1.
         -1    1    1    2    0  502  0.18005779725E+02 -0.34788007081E+02  0.12976487642E+03  0.13554828178E+03  0.00000000000E+00 0.  1.
<scales pt_clust_5="13000.00000" pt_clust_6="13000.00000" pt_clust_7="13000.00000" pt_clust_8="13000.00000" pt_clust_9="13000.00000"></scales>
<clustering>
<clus scale="   91.383">  5  6 -1 -1</clus>
<clus scale="   94.690">  7  8 -1 -1</clus>
<clus scale="   39.172">  7  9 -1 -1</clus>
<clus scale="   99.865">  2  5  1 -1</clus>
<clus scale="  160.201">  1  5  2 -1</clus>
</clustering>
</event>
<event>
 9    1  0.3312826E-006  0.2750043E+03  0.7546771E-02  0.1127491E+00
         21   -1    0    0  501  502  0.00000000000E+00  0.00000000000E+00  0.42372664388E+03  0.42372664388E+03  0.00000000000E+00 0.  1.
         -1   -1    0    0    0  501 -0.00000000000E+00 -0.00000000000E+00 -0.10860579363E+03  0.10860579363E+03  0.00000000000E+00 0.  1.
         23    2    1    2    0    0 -0.61740988117E+02  0.73222561722E+02  0.18749129057E+03  0.22915477533E+03  0.90473387574E+02 0.  0.
         23    2    1    2    0    0  0.90838799409E+01 -0.31775568449E+02 -0.69467840874E+02  0.94999830512E+02  0.55740319848E+02 0.  0.
        -11    1    3    3    0    0 -0.34415086568E+02 -0.15499837105E+02  0.68757798699E+02  0.78436458459E+02  0.00000000000E+00 0. -1.
         11    1    3    3    0    0 -0.27325901549E+02  0.88722398826E+02  0.11873349187E+03  0.15071831687E+03  0.00000000000E+00 0.  1.
        -11    1    4    4    0    0  0.32743462665E+02 -0.19561135306E+02 -0.42398956718E+02  0.57030201582E+02  0.00000000000E+00 0.  1.
         11    1    4    4    0    0 -0.23659582724E+02 -0.12214433143E+02 -0.27068884156E+02  0.37969628931E+02  0.00000000000E+00 0. -1.
         -1    1    1    2    0  502  0.52657108176E+02 -0.41446993273E+02  0.19709740055E+03  0.20817783166E+03  0.00000000000E+00 0.  1.
<scales pt_clust_5="13000.00000" pt_clust_6="13000.00000" pt_clust_7="13000.00000" pt_clust_8="13000.00000" pt_clust_9="13000.00000"></scales>
<clustering>
<clus scale="   55.740">  7  8 -1 -1</clus>
<clus scale="   67.012">  7  9 -1 -1</clus>
<clus scale="   90.473">  5  6 -1 -1</clus>
<clus scale="  131.753">  2  5  1 -1</clus>
<clus scale="  275.004">  1  5  2 -1</clus>
</clustering>
</event>
<event>
 9    1  0.3312826E-006  0.1332407E+03  0.7546771E-02  0.1244175E+00
         -4   -1    0    0    0  501 -0.00000000000E+00  0.00000000000E+00  0.11187499673E+03  0.11187499673E+03  0.00000000000E+00 0.  1.
         21   -1    0    0  501  502  0.00000000000E+00 -0.00000000000E+00 -0.11283609676E+03  0.11283609676E+03  0.00000000000E+00 0.  1.
         23    2    1    2    0    0  0.13614718806E+02  0.92531640280E+01  0.24182862175E+02  0.89118693095E+02  0.84180455115E+02 0.  0.
         23    2    1    2    0    0  0.13312274323E+02 -0.30281079301E+02 -0.48300047420E+01  0.95844531927E+02  0.89825858989E+02 0.  0.
        -11    1    3    3    0    0  0.41792079149E+02  0.14908382184E+02 -0.89427664959E+01  0.45263791395E+02  0.00000000000E+00 0.  1.
         11    1    3    3    0    0 -0.28177360343E+02 -0.56552181556E+01  0.33125628671E+02  0.43854901700E+02  0.00000000000E+00 0. -1.
        -13    1    4    4    0    0  0.55473730299E+01 -0.57871974059E+02  0.16132784387E+02  0.60334115234E+02  0.00000000000E+00 0. -1.
         13    1    4    4    0    0  0.77649012929E+01  0.27590894758E+02 -0.20962789129E+02  0.35510416692E+02  0.00000000000E+00 0.  1.
         -4    1    1    2    0  502 -0.26926993129E+02  0.21027915273E+02 -0.20313957465E+02  0.39747868466E+02  0.00000000000E+00 0.  1.
<scales pt_clust_5="13000.00000" pt_clust_6="13000.00000" pt_clust_7="13000.00000" pt_clust_8="13000.00000" pt_clust_9="13000.00000"></scales>
<clustering>
<clus scale="   84.180">  5  6 -1 -1</clus>
<clus scale="   85.775">  1  5  2 -1</clus>
<clus scale="   89.826">  7  8 -1 -1</clus>
<clus scale="   33.393">  7  9 -1 -1</clus>
<clus scale="  133.241">  2  5  1 -1</clus>
</clustering>
</event>
<event>
 9    1  0.3312826E-006  0.1728909E+03  0.7546771E-02  0.1183265E+00
         21   -1    0    0  501  502  0.00000000000E+00  0.00000000000E+00  0.14007577539E+03  0.14007577539E+03  0.00000000000E+00 0.  1.
          4   -1    0    0  502    0 -0.00000000000E+00 -0.00000000000E+00 -0.18042518509E+03  0.18042518509E+03  0.00000000000E+00 0. -1.
         23    2    1    2    0    0 -0.10067937018E+03  0.45856140513E+02 -0.60937582725E+00  0.14310162248E+03  0.90766633814E+02 0.  0.
         23    2    1    2    0    0  0.65208290992E+02 -0.55261441464E+02 -0.56910692543E+02  0.13688404873E+03  0.90512251909E+02 0.  0.
        -11    1    4    4    0    0  0.27914472485E+02 -0.26082648756E+02 -0.76602442190E+02  0.85600563607E+02  0.00000000000E+00 0. -1.
         11    1    4    4    0    0  0.37293818507E+02 -0.29178792707E+02  0.19691749648E+02  0.51283485128E+02  0.00000000000E+00 0.  1.
        -11    1    3    3    0    0 -0.11135882774E+03  0.26810353951E+02  0.16018867930E+02  0.11565546993E+03  0.00000000000E+00 0.  1.
         11    1    3    3    0    0  0.10679457556E+02  0.19045786562E+02 -0.16628243757E+02  0.27446152552E+02  0.00000000000E+00 0. -1.
          4    1    1    2  501    0  0.35471079190E+02  0.94053009505E+01  0.17170658671E+02  0.40515289263E+02  0.00000000000E+00 0. -1.
<scales pt_clust_5="13000.00000" pt_clust_6="13000.00000" pt_clust_7="13000.00000" pt_clust_8="13000.00000" pt_clust_9="13000.00000"></scales>
<clustering>
<clus scale="   90.512">  5  6 -1 -1</clus>
<clus scale="   36.697">  5  9 -1 -1</clus>
<clus scale="   90.767">  7  8 -1 -1</clus>
<clus scale="  143.100">  2  7  1 -1</clus>
<clus scale="  172.891">  1  5  2 -1</clus>
</clustering>
</event>
<event>
 9    1  0.3312826E-006  0.3015753E+03  0.7546771E-02  0.1107314E+00
         21   -1    0    0  501  502  0.00000000000E+00  0.00000000000E+00  0.15474517687E+03  0.15474517687E+03  0.00000000000E+00 0. -1.
          1   -1    0    0  502    0 -0.00000000000E+00 -0.00000000000E+00 -0.39430476905E+03  0.39430476905E+03  0.00000000000E+00 0. -1.
         23    2    1    2    0    0 -0.28323390239E+02  0.13555544418E+03 -0.17405215201E+03  0.24044195801E+03  0.91327381836E+02 0.  0.
         23    2    1    2    0    0  0.45403954868E+02 -0.12933180126E+02  0.70544735570E+02  0.12465647296E+03  0.91290143319E+02 0.  0.
        -11    1    4    4    0    0  0.42485614969E+02 -0.41603565184E+02  0.13845820896E+02  0.61053999636E+02  0.00000000000E+00 0.  1.
         11    1    4    4    0    0  0.29183398990E+01  0.28670385058E+02  0.56698914674E+02  0.63602473319E+02  0.00000000000E+00 0. -1.
        -13    1    3    3    0    0  0.25690504088E+02  0.83967847947E+02 -0.11785407316E+03  0.14697001072E+03  0.00000000000E+00 0. -1.
         13    1    3    3    0    0 -0.54013894326E+02  0.51587596233E+02 -0.56198078846E+02  0.93471947296E+02  0.00000000000E+00 0.  1.
          1    1    1    2  501    0 -0.17080564630E+02 -0.12262226405E+03 -0.13605217573E+03  0.18395151495E+03  0.00000000000E+00 0. -1.
<scales pt_clust_5="13000.00000" pt_clust_6="13000.00000" pt_clust_7="13000.00000" pt_clust_8="13000.00000" pt_clust_9="13000.00000"></scales>
<clustering>
<clus scale="   91.290">  5  6 -1 -1</clus>
<clus scale="   91.327">  7  8 -1 -1</clus>
<clus scale="  123.806">  5  9 -1 -1</clus>
<clus scale="  165.886">  2  7  1 -1</clus>
<clus scale="  301.575">  1  5  2 -1</clus>
</clustering>
</event>
<event>
 9    1  0.3312826E-006  0.3295134E+03  0.7546771E-02  0.1118931E+00
         21   -1    0    0  501  502  0.00000000000E+00  0.00000000000E+00  0.35207793584E+03  0.35207793584E+03  0.00000000000E+00 0.  1.
         -1   -1    0    0    0  501 -0.00000000000E+00 -0.00000000000E+00 -0.18731784200E+03  0.18731784200E+03  0.00000000000E+00 0.  1.
         23    2    1    2    0    0  0.17856410067E+02  0.17625710687E+02 -0.83921058403E+02  0.12657450067E+03  0.91372004015E+02 0.  0.
         23    2    1    2    0    0 -0.11458268866E+03  0.85019053007E+02  0.65459626987E+02  0.18160266243E+03  0.91307898456E+02 0.  0.
        -13    1    4    4    0    0 -0.17013461368E+02  0.66266154217E+02  0.14475805557E+02  0.69930036529E+02  0.00000000000E+00 0. -1.
         13    1    4    4    0    0 -0.97569227293E+02  0.18752898790E+02  0.50983821430E+02  0.11167262590E+03  0.00000000000E+00 0.  1.
        -13    1    3    3    0    0  0.31310888618E+02 -0.31079224598E+02 -0.36106170603E+02  0.57008293284E+02  0.00000000000E+00 0. -1.
         13    1    3    3    0    0 -0.13454478551E+02  0.48704935285E+02 -0.47814887800E+02  0.69566207382E+02  0.00000000000E+00 0.  1.
         -1    1    1    2    0  502  0.96726278594E+02 -0.10264476369E+03  0.18322152526E+03  0.23121861474E+03  0.00000000000E+00 0.  1.
<scales pt_clust_5="13000.00000" pt_clust_6="13000.00000" pt_clust_7="13000.00000" pt_clust_8="13000.00000" pt_clust_9="13000.00000"></scales>
<clustering>
<clus scale="   91.308">  5  6 -1 -1</clus>
<clus scale="   91.372">  7  8 -1 -1</clus>
<clus scale="   94.754">  2  7  1 -1</clus>
<clus scale="  141.060">  5  9 -1 -1</clus>
<clus scale="  329.513">  1  5  2 -1</clus>
</clustering>
</event>
<event>
 9    1  0.3312826E-006  0.1954577E+03  0.7546771E-02  0.1182806E+00
          1   -1    0    0  502    0 -0.00000000000E+00  0.00000000000E+00  0.19612811501E+03  0.19612811501E+03  0.00000000000E+00 0. -1.
         21   -1    0    0  501  502  0.00000000000E+00 -0.00000000000E+00 -0.19509033382E+03  0.19509033382E+03  0.00000000000E+00 0. -1.
         23    2    1    2    0    0 -0.29293175084E+02 -0.42528526773E+02 -0.12388698770E+03  0.15924884001E+03  0.85705551917E+02 0.  0.
         23    2    1    2    0    0 -0.66489885988E+01  0.63098796929E+02  0.14641856588E+03  0.18531172144E+03  0.94214491710E+02 0.  0.
        -11    1    4    4    0    0 -0.20349102507E+02 -0.18206707405E+02  0.18006486210E+02  0.32707853996E+02  0.00000000000E+00 0.  1.
         11    1    4    4    0    0  0.13700113908E+02  0.81305504335E+02  0.12841207967E+03  0.15260386745E+03  0.00000000000E+00 0. -1.
        -11    1    3    3    0    0  0.18587113100E+02 -0.45340888437E+02 -0.42916734559E+02  0.65139258845E+02  0.00000000000E+00 0.  1.
         11    1    3    3    0    0 -0.47880288185E+02  0.28123616633E+01 -0.80970253137E+02  0.94109581169E+02  0.00000000000E+00 0. -1.
          1    1    1    2  501    0  0.35942163683E+02 -0.20570270156E+02 -0.21493796993E+02  0.46657887369E+02  0.00000000000E+00 0. -1.
<scales pt_clust_5="13000.00000" pt_clust_6="13000.00000" pt_clust_7="13000.00000" pt_clust_8="13000.00000" pt_clust_9="13000.00000"></scales>
<clustering>
<clus scale="   85.706">  7  8 -1 -1</clus>
<clus scale="   94.214">  5  6 -1 -1</clus>
<clus scale="   41.412">  5  9 -1 -1</clus>
<clus scale="  100.061">  1  7  2 -1</clus>
<clus scale="  195.458">  2  5  1 -1</clus>
</clustering>
</event>
<event>
 9    1  0.3312826E-006  0.3383805E+03  0.7546771E-02  0.1116057E+00
         -2   -1    0    0    0  501 -0.00000000000E+00  0.00000000000E+00  0.79178222777E+02  0.79178222777E+02  0.00000000000E+00 0.  1.
         21   -1    0    0  501  502  0.00000000000E+00 -0.00000000000E+00 -0.75683702670E+03  0.75683702670E+03  0.00000000000E+00 0.  1.
         23    2    1    2    0    0  0.21089160025E+02  0.22883729121E+01 -0.35933400439E+03  0.37143801343E+03  0.91625770340E+02 0.  0.
         23    2    1    2    0    0 -0.11934376527E+03  0.84964795010E+02 -0.72989126812E+02  0.18626684265E+03  0.88915540474E+02 0.  0.
        -13    1    4    4    0    0 -0.84701261123E+02  0.89529444781E+02 -0.84551430293E+02  0.14946159869E+03  0.00000000000E+00 0.  1.
         13    1    4    4    0    0 -0.34642504143E+02 -0.45646497716E+01  0.11562303481E+02  0.36805243956E+02  0.00000000000E+00 0. -1.
        -13    1    3    3    0    0  0.39512518983E+02  0.34311603943E+02 -0.26519829853E+03  0.27031215819E+03  0.00000000000E+00 0.  1.
         13    1    3    3    0    0 -0.18423358958E+02 -0.32023231030E+02 -0.94135705855E+02  0.10112585524E+03  0.00000000000E+00 0. -1.
         -2    1    1    2    0  502  0.98254605241E+02 -0.87253167922E+02 -0.24533567272E+03  0.27831039340E+03  0.00000000000E+00 0.  1.
<scales pt_clust_5="13000.00000" pt_clust_6="13000.00000" pt_clust_7="13000.00000" pt_clust_8="13000.00000" pt_clust_9="13000.00000"></scales>
<clustering>
<clus scale="   88.916">  5  6 -1 -1</clus>
<clus scale="   91.626">  7  8 -1 -1</clus>
<clus scale="   94.049">  1  7  2 -1</clus>
<clus scale="  134.664">  5  9 -1 -1</clus>
<clus scale="  338.380">  2  5  1 -1</clus>
</clustering>
</event>
<event>
 9    1  0.3312826E-006  0.2494599E+03  0.7546771E-02  0.1148247E+00
         21   -1    0    0  501  502  0.00000000000E+00  0.00000000000E+00  0.45983784086E+03  0.45983784086E+03  0.00000000000E+00 0. -1.
          2   -1    0    0  502    0 -0.00000000000E+00 -0.00000000000E+00 -0.10516709484E+03  0.10516709484E+03  0.00000000000E+00 0. -1.
         23    2    1    2    0    0  0.54992289535E+02 -0.16571664950E+02 -0.25978695944E+02  0.10989587840E+03  0.90019106074E+02 0.  0.
         23    2    1    2    0    0 -0.18892797495E+02 -0.52538171512E+02  0.38430196126E+02  0.10411994772E+03  0.79037246137E+02 0.  0.
        -11    1    3    3    0    0 -0.15544730883E+02 -0.26249928853E+02  0.72019856167E+01  0.31345909140E+02  0.00000000000E+00 0.  1.
         11    1    3    3    0    0  0.70537020418E+02  0.96782639027E+01 -0.33180681561E+02  0.78549969258E+02  0.00000000000E+00 0. -1.
        -11    1    4    4    0    0 -0.48549004309E+02 -0.38517911811E+02  0.34907966964E+02  0.71128064132E+02  0.00000000000E+00 0.  1.
         11    1    4    4    0    0  0.29656206814E+02 -0.14020259701E+02  0.35222291616E+01  0.32991883592E+02  0.00000000000E+00 0. -1.
          2    1    1    2  501    0 -0.36099492040E+02  0.69109836462E+02  0.34221924584E+03  0.35098910958E+03  0.00000000000E+00 0. -1.
<scales pt_clust_5="13000.00000" pt_clust_6="13000.00000" pt_clust_7="13000.00000" pt_clust_8="13000.00000" pt_clust_9="13000.00000"></scales>
<clustering>
<clus scale="   79.037">  7  8 -1 -1</clus>
<clus scale="   77.970">  7  9 -1 -1</clus>
<clus scale="   90.019">  5  6 -1 -1</clus>
<clus scale="  106.781">  2  5  1 -1</clus>
<clus scale="  249.460">  1  5  2 -1</clus>
</clustering>
</event>
<event>
 9    1  0.3312826E-006  0.2983863E+03  0.7546771E-02  0.1126838E+00
          1   -1    0    0  502    0 -0.00000000000E+00  0.00000000000E+00  0.19907339435E+03  0.19907339435E+03  0.00000000000E+00 0. -1.
         21   -1    0    0  501  502  0.00000000000E+00 -0.00000000000E+00 -0.20970314195E+03  0.20970314195E+03  0.00000000000E+00 0.  1.
         23    2    1    2    0    0  0.15422344240E+02  0.45857452281E+02  0.26417430188E+02  0.10809912413E+03  0.92988092719E+02 0.  0.
         23    2    1    2    0    0  0.85713841668E+02  0.61800331755E+02  0.24262285670E+02  0.14074749980E+03  0.89749966765E+02 0.  0.
        -13    1    4    4    0    0  0.65434197365E+02  0.82149321723E+00 -0.12631540223E+02  0.66647316858E+02  0.00000000000E+00 0.  1.
         13    1    4    4    0    0  0.20279644303E+02  0.60978838538E+02  0.36893825893E+02  0.74100182938E+02  0.00000000000E+00 0. -1.
        -13    1    3    3    0    0 -0.18724502966E+02  0.63147822297E+02  0.22597827989E+02  0.69634160453E+02  0.00000000000E+00 0. -1.
         13    1    3    3    0    0  0.34146847206E+02 -0.17290370016E+02  0.38196021989E+01  0.38464963673E+02  0.00000000000E+00 0.  1.
          1    1    1    2  501    0 -0.10113618591E+03 -0.10765778404E+03 -0.61309463456E+02  0.15992991238E+03  0.00000000000E+00 0. -1.
<scales pt_clust_5="13000.00000" pt_clust_6="13000.00000" pt_clust_7="13000.00000" pt_clust_8="13000.00000" pt_clust_9="13000.00000"></scales>
<clustering>
<clus scale="   89.750">  5  6 -1 -1</clus>
<clus scale="   92.988">  7  8 -1 -1</clus>
<clus scale="  104.821">  1  7  2 -1</clus>
<clus scale="  131.475">  5  9 -1 -1</clus>
<clus scale="  298.386">  2  5  1 -1</clus>
</clustering>
</event>
<event>
 9    1  0.3312826E-006  0.3150869E+03  0.7546771E-02  0.1117081E+00
         21   -1    0    0  501  502  0.00000000000E+00  0.00000000000E+00  0.69625180065E+03  0.69625180065E+03  0.00000000000E+00 0. -1.
         -2   -1    0    0    0  501 -0.00000000000E+00 -0.00000000000E+00 -0.66976646630E+02  0.66976646630E+02  0.00000000000E+00 0.  1.
         23    2    1    2    0    0 -0.19060250142E+02  0.68423903614E+02  0.12740746921E+03  0.17064857819E+03  0.88561562232E+02 0.  0.
         23    2    1    2    0    0 -0.30574387360E+02 -0.29540810968E+02  0.20990893802E+02  0.10758710599E+03  0.96575954968E+02 0.  0.
        -11    1    4    4    0    0 -0.12929350828E+02  0.35678813947E+02  0.80945392421E+01  0.38802930856E+02  0.00000000000E+00 0. -1.
         11    1    4    4    0    0 -0.17645036532E+02 -0.65219624914E+02  0.12896354560E+02  0.68784175136E+02  0.00000000000E+00 0.  1.
        -13    1    3    3    0    0 -0.23234286973E+02 -0.16385701445E+02  0.27857593666E+02  0.39804130789E+02  0.00000000000E+00 0.  1.
         13    1    3    3    0    0  0.41740368317E+01  0.84809605059E+02  0.99549875547E+02  0.13084444740E+03  0.00000000000E+00 0. -1.
         -2    1    1    2    0  502  0.49634637501E+02 -0.38883092647E+02  0.48087679100E+03  0.48499276310E+03  0.00000000000E+00 0.  1.
<scales pt_clust_5="13000.00000" pt_clust_6="13000.00000" pt_clust_7="13000.00000" pt_clust_8="13000.00000" pt_clust_9="13000.00000"></scales>
<clustering>
<clus scale="   88.562">  7  8 -1 -1</clus>
<clus scale="   96.576">  5  6 -1 -1</clus>
<clus scale="   63.052">  5  9 -1 -1</clus>
<clus scale="  113.527">  2  7  1 -1</clus>
<clus scale="  315.087">  1  5  2 -1</clus>
</clustering>
</event>
<event>
 9    1  0.3312826E-006  0.2984230E+03  0.7546771E-02  0.1089567E+00
          2   -1    0    0  502    0 -0.00000000000E+00  0.00000000000E+00  0.23065410884E+04  0.23065410884E+04  0.00000000000E+00 0. -1.
         21   -1    0    0  501  502  0.00000000000E+00 -0.00000000000E+00 -0.36009382751E+02  0.36009382751E+02  0.00000000000E+00 0.  1.
         23    2    1    2    0    0 -0.96814013766E+02 -0.23710526010E+03  0.91101695979E+03  0.95066806939E+03  0.90697406243E+02 0.  0.
         23    2    1    2    0    0  0.11295058517E+02  0.94666698261E+02  0.62742587206E+03  0.64117849558E+03  0.91418139154E+02 0.  0.
        -11    1    3    3    0    0 -0.96093082538E+02 -0.19688070119E+03  0.84848749163E+03  0.87631439248E+03  0.00000000000E+00 0.  1.
         11    1    3    3    0    0 -0.72093122826E+00 -0.40224558914E+02  0.62529468162E+02  0.74353676912E+02  0.00000000000E+00 0. -1.
        -13    1    4    4    0    0  0.14541605513E+02 -0.15771644770E+02  0.11366921207E+03  0.11567580923E+03  0.00000000000E+00 0.  1.
         13    1    4    4    0    0 -0.32465469954E+01  0.11043834303E+03  0.51375665999E+03  0.52550268635E+03  0.00000000000E+00 0. -1.
          2    1    1    2  501    0  0.85518955249E+02  0.14243856184E+03  0.73208887375E+03  0.75070390613E+03  0.00000000000E+00 0. -1.
<scales pt_clust_5="13000.00000" pt_clust_6="13000.00000" pt_clust_7="13000.00000" pt_clust_8="13000.00000" pt_clust_9="13000.00000"></scales>
<clustering>
<clus scale="   90.697">  5  6 -1 -1</clus>
<clus scale="   91.418">  7  8 -1 -1</clus>
<clus scale="  166.139">  7  9 -1 -1</clus>
<clus scale="  271.695">  1  5  2 -1</clus>
<clus scale="  298.423">  2  5  1 -1</clus>
</clustering>
</event>
<event>
 9    1  0.3312826E-006  0.3623868E+03  0.7546771E-02  0.1062133E+00
         -1   -1    0    0    0  501 -0.00000000000E+00  0.00000000000E+00  0.17454526173E+03  0.17454526173E+03  0.00000000000E+00 0.  1.
         21   -1    0    0  501  502  0.00000000000E+00 -0.00000000000E+00 -0.68954232935E+03  0.68954232935E+03  0.00000000000E+00 0.  1.
         23    2    1    2    0    0 -0.30171068900E+03  0.52619661919E+02 -0.32134072214E+03  0.45320195439E+03  0.91290651684E+02 0.  0.
         23    2    1    2    0    0  0.10666079548E+03  0.24891041334E+02 -0.30414887464E+02  0.14499065048E+03  0.90006300417E+02 0.  0.
        -11    1    4    4    0    0 -0.25279300117E+01 -0.22436847488E+02 -0.75629906562E+01  0.23811790840E+02  0.00000000000E+00 0.  1.
         11    1    4    4    0    0  0.10918872549E+03  0.47327888821E+02 -0.22851896808E+02  0.12117885964E+03  0.00000000000E+00 0. -1.
        -11    1    3    3    0    0 -0.18890070886E+03 -0.10435646307E+02 -0.20961695363E+03  0.28236792978E+03  0.00000000000E+00 0.  1.
         11    1    3    3    0    0 -0.11280998015E+03  0.63055308226E+02 -0.11172376851E+03  0.17083402461E+03  0.00000000000E+00 0. -1.
         -1    1    1    2    0  502  0.19504989352E+03 -0.77510703253E+02 -0.16324145802E+03  0.26589498622E+03  0.00000000000E+00 0.  1.
<scales pt_clust_5="13000.00000" pt_clust_6="13000.00000" pt_clust_7="13000.00000" pt_clust_8="13000.00000" pt_clust_9="13000.00000"></scales>
<clustering>
<clus scale="   90.006">  5  6 -1 -1</clus>
<clus scale="   91.291">  7  8 -1 -1</clus>
<clus scale="  209.887">  5  9 -1 -1</clus>
<clus scale="  319.581">  1  7  2 -1</clus>
<clus scale="  362.387">  2  5  1 -1</clus>
</clustering>
</event>
<event>
 9    1  0.3312826E-006  0.1911240E+03  0.7546771E-02  0.1187332E+00
          2   -1    0    0  502    0 -0.00000000000E+00  0.00000000000E+00  0.38309577271E+03  0.38309577271E+03  0.00000000000E+00 0. -1.
         21   -1    0    0  501  502  0.00000000000E+00 -0.00000000000E+00 -0.66924208098E+02  0.66924208098E+02  0.00000000000E+00 0. -1.
         23    2    1    2    0    0 -0.25773534297E+01 -0.28059858211E+02  0.21039809080E+03  0.23157915157E+03  0.92561052463E+02 0.  0.
         23    2    1    2    0    0  0.11997141159E+02 -0.12736580285E+02  0.13702682706E+03  0.16619282561E+03  0.92398874865E+02 0.  0.
        -11    1    3    3    0    0 -0.41368392028E+02 -0.34463925188E+02  0.89489153885E+02  0.10443856884E+03  0.00000000000E+00 0.  1.
         11    1    3    3    0    0  0.38791038598E+02  0.64040669773E+01  0.12090893692E+03  0.12714058273E+03  0.00000000000E+00 0. -1.
        -13    1    4    4    0    0  0.50905789838E+01 -0.47431084360E+02  0.11504782090E+03  0.12454566573E+03  0.00000000000E+00 0.  1.
         13    1    4    4    0    0  0.69065621748E+01  0.34694504075E+02  0.21979006154E+02  0.41647159874E+02  0.00000000000E+00 0. -1.
          2    1    1    2  501    0 -0.94197877289E+01  0.40796438495E+02 -0.31253353247E+02  0.52248003636E+02  0.00000000000E+00 0. -1.
<scales pt_clust_5="13000.00000" pt_clust_6="13000.00000" pt_clust_7="13000.00000" pt_clust_8="13000.00000" pt_clust_9="13000.00000"></scales>
<clustering>
<clus scale="   92.399">  7  8 -1 -1</clus>
<clus scale="   41.870">  7  9 -1 -1</clus>
<clus scale="   92.561">  5  6 -1 -1</clus>
<clus scale="   96.755">  1  5  2 -1</clus>
<clus scale="  191.124">  2  5  1 -1</clus>
</clustering>
</event>
<event>
 9    1  0.3312826E-006  0.2521345E+03  0.7546771E-02  0.1151959E+00
          1   -1    0    0  502    0 -0.00000000000E+00  0.00000000000E+00  0.11641240567E+03  0.11641240567E+03  0.00000000000E+00 0. -1.
         21   -1    0    0  501  502  0.00000000000E+00 -0.00000000000E+00 -0.27354876911E+03  0.27354876911E+03  0.00000000000E+00 0. -1.
         23    2    1    2    0    0  0.16177349685E+02  0.18624520874E+02 -0.36525364153E+01  0.94784810919E+02  0.91445283848E+02 0.  0.
         23    2    1    2    0    0  0.97016239220E+02 -0.31623823067E+02 -0.59370247062E+02  0.14739566025E+03  0.88252125001E+02 0.  0.
        -11    1    4    4    0    0  0.18093008165E+02 -0.12660135753E+02  0.22907663206E+02  0.31818186864E+02  0.00000000000E+00 0.  1.
         11    1    4    4    0    0  0.78923231056E+02 -0.18963687314E+02 -0.82277910269E+02  0.11557747339E+03  0.00000000000E+00 0. -1.
        -13    1    3    3    0    0 -0.36685521989E+02 -0.31592896382E+01 -0.71242568618E+01  0.37504182039E+02  0.00000000000E+00 0.  1.
         13    1    3    3    0    0  0.52862871673E+02  0.21783810512E+02  0.34717204465E+01  0.57280628879E+02  0.00000000000E+00 0. -1.
          1    1    1    2  501    0 -0.11319358891E+03  0.12999302193E+02 -0.94113579960E+02  0.14778070361E+03  0.00000000000E+00 0. -1.
<scales pt_clust_5="13000.00000" pt_clust_6="13000.00000" pt_clust_7="13000.00000" pt_clust_8="13000.00000" pt_clust_9="13000.00000"></scales>
<clustering>
<clus scale="   88.252">  5  6 -1 -1</clus>
<clus scale="   91.445">  7  8 -1 -1</clus>
<clus scale="   94.714">  1  7  2 -1</clus>
<clus scale="  108.928">  5  9 -1 -1</clus>
<clus scale="  252.134">  2  5  1 -1</clus>
</clustering>
</event>
<event>
 9    1  0.3312826E-006  0.2489574E+03  0.7546771E-02  0.1136316E+00
         -3   -1    0    0    0  501 -0.00000000000E+00  0.00000000000E+00  0.55170847740E+02  0.55170847740E+02  0.00000000000E+00 0.  1.
         21   -1    0    0  501  502  0.00000000000E+00 -0.00000000000E+00 -0.71838374087E+03  0.71838374087E+03  0.00000000000E+00 0.  1.
         23    2    1    2    0    0  0.10781120057E+03 -0.36070789124E+01 -0.30991175637E+03  0.34134924734E+03  0.94009286422E+02 0.  0.
         23    2    1    2    0    0 -0.18311620748E+02  0.56030577821E+02 -0.73452623439E+02  0.13375335446E+03  0.94973316428E+02 0.  0.
        -13    1    3    3    0    0  0.88831738469E+02  0.27715814224E+02 -0.27662901411E+03  0.29186102097E+03  0.00000000000E+00 0.  1.
         13    1    3    3    0    0  0.18979462104E+02 -0.31322893136E+02 -0.33282742268E+02  0.49488226368E+02  0.00000000000E+00 0. -1.
        -13    1    4    4    0    0  0.23181569952E+02  0.60822297333E+02 -0.24859842091E+02  0.69676027349E+02  0.00000000000E+00 0.  1.
         13    1    4    4    0    0 -0.41493190700E+02 -0.47917195119E+01 -0.48592781348E+02  0.64077327109E+02  0.00000000000E+00 0. -1.
         -3    1    1    2    0  502 -0.89499579825E+02 -0.52423498909E+02 -0.27984851332E+03  0.29845198681E+03  0.00000000000E+00 0.  1.
<scales pt_clust_5="13000.00000" pt_clust_6="13000.00000" pt_clust_7="13000.00000" pt_clust_8="13000.00000" pt_clust_9="13000.00000"></scales>
<clustering>
<clus scale="   94.009">  5  6 -1 -1</clus>
<clus scale="   94.973">  7  8 -1 -1</clus>
<clus scale="  103.723">  7  9 -1 -1</clus>
<clus scale="  143.087">  1  5  2 -1</clus>
<clus scale="  248.957">  2  5  1 -1</clus>
</clustering>
</event>
<event>
 9    1  0.3312826E-006  0.1408412E+03  0.7546771E-02  0.1227971E+00
         21   -1    0    0  501  502  0.00000000000E+00  0.00000000000E+00  0.71628112825E+02  0.71628112825E+02  0.00000000000E+00 0.  1.
          2   -1    0    0  502    0 -0.00000000000E+00 -0.00000000000E+00 -0.22650305868E+03  0.22650305868E+03  0.00000000000E+00 0. -1.
         23    2    1    2    0    0  0.26941682027E+02 -0.31314153391E+02 -0.11199337029E+03  0.15090657930E+03  0.92324700124E+02 0.  0.
         23    2    1    2    0    0 -0.41855154228E+02  0.12579308534E+01 -0.55911357034E+02  0.11123065701E+03  0.86560631277E+02 0.  0.
        -13    1    4    4    0    0  0.12654887850E+02 -0.24913845370E+02  0.13184170524E+01  0.27974704666E+02  0.00000000000E+00 0. -1.
         13    1    4    4    0    0 -0.54510042078E+02  0.26171776223E+02 -0.57229774087E+02  0.83255952340E+02  0.00000000000E+00 0.  1.
        -13    1    3    3    0    0  0.32293197079E+02  0.14774873674E+02 -0.71084769182E+01  0.36217094220E+02  0.00000000000E+00 0. -1.
         13    1    3    3    0    0 -0.53515150514E+01 -0.46089027066E+02 -0.10488489338E+03  0.11468948508E+03  0.00000000000E+00 0.  1.
          2    1    1    2  501    0  0.14913472201E+02  0.30056222538E+02  0.13029781469E+02  0.35993935204E+02  0.00000000000E+00 0. -1.
<scales pt_clust_5="13000.00000" pt_clust_6="13000.00000" pt_clust_7="13000.00000" pt_clust_8="13000.00000" pt_clust_9="13000.00000"></scales>
<clustering>
<clus scale="   86.561">  5  6 -1 -1</clus>
<clus scale="   33.553">  5  9 -1 -1</clus>
<clus scale="   92.325">  7  8 -1 -1</clus>
<clus scale="  101.145">  2  7  1 -1</clus>
<clus scale="  140.841">  1  5  2 -1</clus>
</clustering>
</event>
<event>
 9    1  0.3312826E-006  0.3363574E+03  0.7546771E-02  0.1117450E+00
         21   -1    0    0  501  502  0.00000000000E+00  0.00000000000E+00  0.16020658595E+03  0.16020658595E+03  0.00000000000E+00 0.  1.
         -3   -1    0    0    0  501 -0.00000000000E+00 -0.00000000000E+00 -0.28898341524E+03  0.28898341524E+03  0.00000000000E+00 0.  1.
         23    2    1    2    0    0  0.69232946980E+00  0.11595240391E+02 -0.43546919331E+02  0.10220232585E+03  0.91728143483E+02 0.  0.
         23    2    1    2    0    0 -0.42282184174E+02  0.35229335530E+02 -0.19187590240E+03  0.22331219422E+03  0.10011535839E+03 0.  0.
        -11    1    4    4    0    0 -0.65661849492E+02  0.99381084169E+01 -0.16999789314E+03  0.18250898101E+03  0.00000000000E+00 0.  1.
         11    1    4    4    0    0  0.23379665318E+02  0.25291227113E+02 -0.21878009267E+02  0.40803213216E+02  0.00000000000E+00 0. -1.
        -13    1    3    3    0    0 -0.44640290551E+02  0.12570092613E+02 -0.28472254382E+02  0.54419041138E+02  0.00000000000E+00 0.  1.
         13    1    3    3    0    0  0.45332620021E+02 -0.97485222212E+00 -0.15074664950E+02  0.47783284715E+02  0.00000000000E+00 0. -1.
         -3    1    1    2    0  502  0.41589854704E+02 -0.46824575920E+02  0.10664599244E+03  0.12367548111E+03  0.00000000000E+00 0.  1.
<scales pt_clust_5="13000.00000" pt_clust_6="13000.00000" pt_clust_7="13000.00000" pt_clust_8="13000.00000" pt_clust_9="13000.00000"></scales>
<clustering>
<clus scale="   91.728">  7  8 -1 -1</clus>
<clus scale="   92.461">  2  7  1 -1</clus>
<clus scale="  100.115">  5  6 -1 -1</clus>
<clus scale="   62.305">  5  9 -1 -1</clus>
<clus scale="  336.357">  1  5  2 -1</clus>
</clustering>
</event>
<event>
 9    1  0.3487179E-006  0.2599546E+03  0.7546771E-02  0.1121455E+00
          1   -1    0    0  502    0 -0.00000000000E+00  0.00000000000E+00  0.47443520418E+03  0.47443520418E+03  0.00000000000E+00 0. -1.
         21   -1    0    0  501  502  0.00000000000E+00 -0.00000000000E+00 -0.11822741920E+03  0.11822741920E+03  0.00000000000E+00 0. -1.
         23    2    1    2    0    0 -0.76200423481E+02 -0.14845482495E+03  0.44097214788E+02  0.18647374547E+03  0.70587207110E+02 0.  0.
         23    2    1    2    0    0  0.27324633156E+02 -0.64997174792E+01  0.13945239038E+03  0.16910113011E+03  0.91429432455E+02 0.  0.
        -11    1    4    4    0    0  0.29710313144E+02  0.27432039975E+02  0.12632661368E+03  0.13264099233E+03  0.00000000000E+00 0. -1.
         11    1    4    4    0    0 -0.23856799876E+01 -0.33931757454E+02  0.13125776702E+02  0.36460137781E+02  0.00000000000E+00 0.  1.
        -13    1    3    3    0    0 -0.46423775284E+02 -0.41758558341E+02  0.42783425909E+02  0.75692573208E+02  0.00000000000E+00 0.  1.
         13    1    3    3    0    0 -0.29776648196E+02 -0.10669626661E+03  0.13137888790E+01  0.11078117226E+03  0.00000000000E+00 0. -1.
          1    1    1    2  501    0  0.48875790325E+02  0.15495454243E+03  0.17265817982E+03  0.23708774780E+03  0.00000000000E+00 0. -1.
<scales pt_clust_5="13000.00000" pt_clust_6="13000.00000" pt_clust_7="13000.00000" pt_clust_8="13000.00000" pt_clust_9="13000.00000"></scales>
<clustering>
<clus scale="   70.587">  7  8 -1 -1</clus>
<clus scale="   91.429">  5  6 -1 -1</clus>
<clus scale="  162.480">  5  9 -1 -1</clus>
<clus scale="  181.185">  1  7  2 -1</clus>
<clus scale="  259.955">  2  5  1 -1</clus>
</clustering>
</event>
<event>
 9    1  0.3312826E-006  0.1610199E+03  0.7546771E-02  0.1205405E+00
         21   -1    0    0  501  502  0.00000000000E+00  0.00000000000E+00  0.42560513694E+02  0.42560513694E+02  0.00000000000E+00 0.  1.
          2   -1    0    0  502    0 -0.00000000000E+00 -0.00000000000E+00 -0.53387494077E+03  0.53387494077E+03  0.00000000000E+00 0. -1.
         23    2    1    2    0    0 -0.33948810117E+02 -0.38579759522E+02 -0.33394967610E+03  0.35128869638E+03  0.96127220304E+02 0.  0.
         23    2    1    2    0    0 -0.13258783409E+02  0.45800895519E+02 -0.62653852663E+02  0.11907670599E+03  0.89332185064E+02 0.  0.
        -11    1    4    4    0    0  0.37886072310E+02  0.17259846837E+02 -0.34608783145E+02  0.54138938470E+02  0.00000000000E+00 0. -1.
         11    1    4    4    0    0 -0.51144855719E+02  0.28541048683E+02 -0.28045069519E+02  0.64937767522E+02  0.00000000000E+00 0.  1.
        -13    1    3    3    0    0 -0.55582483315E+02 -0.56188464866E+02 -0.21372342577E+03  0.22786895084E+03  0.00000000000E+00 0.  1.
         13    1    3    3    0    0  0.21633673198E+02  0.17608705343E+02 -0.12022625033E+03  0.12341974554E+03  0.00000000000E+00 0. -1.
          2    1    1    2  501    0  0.47207593527E+02 -0.72211359969E+01 -0.94710898310E+02  0.10607005209E+03  0.00000000000E+00 0. -1.
<scales pt_clust_5="13000.00000" pt_clust_6="13000.00000" pt_clust_7="13000.00000" pt_clust_8="13000.00000" pt_clust_9="13000.00000"></scales>
<clustering>
<clus scale="   89.332">  5  6 -1 -1</clus>
<clus scale="   47.757">  5  9 -1 -1</clus>
<clus scale="   96.127">  7  8 -1 -1</clus>
<clus scale="  109.002">  2  7  1 -1</clus>
<clus scale="  161.020">  1  5  2 -1</clus>
</clustering>
</event>
<event>
 9    1  0.3312826E-006  0.1587606E+03  0.7546771E-02  0.1217373E+00
         21   -1    0    0  501  502  0.00000000000E+00  0.00000000000E+00  0.15191644921E+03  0.15191644921E+03  0.00000000000E+00 0.  1.
          3   -1    0    0  502    0 -0.00000000000E+00 -0.00000000000E+00 -0.11544303666E+03  0.11544303666E+03  0.00000000000E+00 0. -1.
         23    2    1    2    0    0  0.15878600502E+02  0.10524178296E+02 -0.32945002768E+02  0.94085630778E+02  0.86045595057E+02 0.  0.
         23    2    1    2    0    0 -0.31047066591E+02 -0.50988485821E+02  0.73031856718E+02  0.12990912857E+03  0.89325156374E+02 0.  0.
        -11    1    3    3    0    0  0.49361667389E+02  0.14951291575E+02 -0.31172344656E+02  0.60264669571E+02  0.00000000000E+00 0. -1.
         11    1    3    3    0    0 -0.33483066887E+02 -0.44271132788E+01 -0.17726581126E+01  0.33820961207E+02  0.00000000000E+00 0.  1.
        -13    1    4    4    0    0  0.64788175029E+01  0.20995782159E+02  0.32352500369E+02  0.39108595281E+02  0.00000000000E+00 0.  1.
         13    1    4    4    0    0 -0.37525884093E+02 -0.71984267979E+02  0.40679356348E+02  0.90800533293E+02  0.00000000000E+00 0. -1.
          3    1    1    2  501    0  0.15168466088E+02  0.40464307524E+02 -0.36134413987E+01  0.43364726514E+02  0.00000000000E+00 0. -1.
<scales pt_clust_5="13000.00000" pt_clust_6="13000.00000" pt_clust_7="13000.00000" pt_clust_8="13000.00000" pt_clust_9="13000.00000"></scales>
<clustering>
<clus scale="   86.046">  5  6 -1 -1</clus>
<clus scale="   88.129">  2  5  1 -1</clus>
<clus scale="   89.325">  7  8 -1 -1</clus>
<clus scale="   50.447">  7  9 -1 -1</clus>
<clus scale="  158.761">  1  5  2 -1</clus>
</clustering>
</event>
<event>
 9    1  0.3312826E-006  0.2972316E+03  0.7546771E-02  0.1116867E+00
          1   -1    0    0  502    0 -0.00000000000E+00  0.00000000000E+00  0.39501660863E+03  0.39501660863E+03  0.00000000000E+00 0. -1.
         21   -1    0    0  501  502  0.00000000000E+00 -0.00000000000E+00 -0.33693688780E+03  0.33693688780E+03  0.00000000000E+00 0. -1.
         23    2    1    2    0    0  0.10052033080E+03  0.35436926104E+01  0.31243967672E+03  0.34074303470E+03  0.91489723139E+02 0.  0.
         23    2    1    2    0    0 -0.31174357886E+02  0.72754849439E+01  0.28433477344E+02  0.99837771792E+02  0.90190602458E+02 0.  0.
        -11    1    3    3    0    0  0.86999954776E+02  0.21843158493E+02  0.30319266851E+03  0.31618334861E+03  0.00000000000E+00 0. -1.
         11    1    3    3    0    0  0.13520376027E+02 -0.18299465882E+02  0.92470082174E+01  0.24559686082E+02  0.00000000000E+00 0.  1.
        -11    1    4    4    0    0  0.10164051755E+02 -0.19816036618E+02 -0.20512836355E+02  0.30278040073E+02  0.00000000000E+00 0.  1.
         11    1    4    4    0    0 -0.41338409640E+02  0.27091521562E+02  0.48946313699E+02  0.69559731719E+02  0.00000000000E+00 0. -1.
          1    1    1    2  501    0 -0.69345972917E+02 -0.10819177554E+02 -0.28279343324E+03  0.29137268994E+03  0.00000000000E+00 0. -1.
<scales pt_clust_5="13000.00000" pt_clust_6="13000.00000" pt_clust_7="13000.00000" pt_clust_8="13000.00000" pt_clust_9="13000.00000"></scales>
<clustering>
<clus scale="   90.191">  7  8 -1 -1</clus>
<clus scale="   70.185">  7  9 -1 -1</clus>
<clus scale="   91.490">  5  6 -1 -1</clus>
<clus scale="  135.968">  1  5  2 -1</clus>
<clus scale="  297.232">  2  5  1 -1</clus>
</clustering>
</event>
<event>
 9    1  0.3312826E-006  0.2537157E+03  0.7546771E-02  0.1152862E+00
         21   -1    0    0  501  502  0.00000000000E+00  0.00000000000E+00  0.59142975698E+02  0.59142975698E+02  0.00000000000E+00 0. -1.
          1   -1    0    0  502    0 -0.00000000000E+00 -0.00000000000E+00 -0.60704404487E+03  0.60704404487E+03  0.00000000000E+00 0. -1.
         23    2    1    2    0    0  0.42501799960E+01  0.60553886355E+01 -0.29192009181E+03  0.30577350462E+03  0.90693794518E+02 0.  0.
         23    2    1    2    0    0  0.43684607950E+02 -0.28747535944E+02 -0.28232229472E+03  0.30119745018E+03  0.90990439623E+02 0.  0.
        -11    1    4    4    0    0  0.71002432744E+02 -0.20318369799E+02 -0.17107130937E+03  0.18633189340E+03  0.00000000000E+00 0.  1.
         11    1    4    4    0    0 -0.27317824794E+02 -0.84291661452E+01 -0.11125098535E+03  0.11486555678E+03  0.00000000000E+00 0. -1.
        -11    1    3    3    0    0 -0.15252101677E+02  0.43813209569E+02 -0.11939107210E+03  0.12808767324E+03  0.00000000000E+00 0.  1.
         11    1    3    3    0    0  0.19502281673E+02 -0.37757820934E+02 -0.17252901971E+03  0.17768583138E+03  0.00000000000E+00 0. -1.
          1    1    1    2  501    0 -0.47934787946E+02  0.22692147308E+02  0.26341317360E+02  0.59216065769E+02  0.00000000000E+00 0. -1.
<scales pt_clust_5="13000.00000" pt_clust_6="13000.00000" pt_clust_7="13000.00000" pt_clust_8="13000.00000" pt_clust_9="13000.00000"></scales>
<clustering>
<clus scale="   90.694">  7  8 -1 -1</clus>
<clus scale="   90.990">  5  6 -1 -1</clus>
<clus scale="   53.035">  5  9 -1 -1</clus>
<clus scale="   90.995">  2  7  1 -1</clus>
<clus scale="  253.716">  1  5  2 -1</clus>
</clustering>
</event>
<event>
 9    1  0.3312826E-006  0.1747230E+03  0.7546771E-02  0.1200040E+00
         -1   -1    0    0    0  501 -0.00000000000E+00  0.00000000000E+00  0.39198412636E+03  0.39198412636E+03  0.00000000000E+00 0.  1.
         21   -1    0    0  501  502  0.00000000000E+00 -0.00000000000E+00 -0.12529532751E+03  0.12529532751E+03  0.00000000000E+00 0.  1.
         23    2    1    2    0    0 -0.29112599771E+02 -0.53753785028E+01  0.32045572707E+03  0.33447075660E+03  0.91117374023E+02 0.  0.
         23    2    1    2    0    0 -0.18481130363E+01 -0.27495524169E+02  0.18587238199E+02  0.97519850540E+02  0.91679967573E+02 0.  0.
        -11    1    4    4    0    0  0.30765212905E+02  0.20470549850E+02  0.12238407023E+01  0.36973497566E+02  0.00000000000E+00 0. -1.
         11    1    4    4    0    0 -0.32613325941E+02 -0.47966074019E+02  0.17363397497E+02  0.60546352973E+02  0.00000000000E+00 0.  1.
        -13    1    3    3    0    0  0.23183057001E+02  0.22370243449E+02  0.69150767616E+02  0.76287027638E+02  0.00000000000E+00 0. -1.
         13    1    3    3    0    0 -0.52295656772E+02 -0.27745621952E+02  0.25130495945E+03  0.25818372896E+03  0.00000000000E+00 0.  1.
         -1    1    1    2    0  502  0.30960712807E+02  0.32870902672E+02 -0.72354166409E+02  0.85288846731E+02  0.00000000000E+00 0.  1.
<scales pt_clust_5="13000.00000" pt_clust_6="13000.00000" pt_clust_7="13000.00000" pt_clust_8="13000.00000" pt_clust_9="13000.00000"></scales>
<clustering>
<clus scale="   91.117">  7  8 -1 -1</clus>
<clus scale="   91.680">  5  6 -1 -1</clus>
<clus scale="   45.156">  5  9 -1 -1</clus>
<clus scale="   95.806">  1  7  2 -1</clus>
<clus scale="  174.723">  2  5  1 -1</clus>
</clustering>
</event>
<event>
 9    1  0.3312826E-006  0.4372986E+03  0.7546771E-02  0.1077835E+00
          2   -1    0    0  502    0 -0.00000000000E+00  0.00000000000E+00  0.27437199425E+03  0.27437199425E+03  0.00000000000E+00 0. -1.
         21   -1    0    0  501  502  0.00000000000E+00 -0.00000000000E+00 -0.28205538208E+03  0.28205538208E+03  0.00000000000E+00 0. -1.
         23    2    1    2    0    0 -0.64383392435E+02  0.36982593521E+02  0.11291143253E+02  0.11871734167E+03  0.91942285443E+02 0.  0.
         23    2    1    2    0    0  0.15740107797E+03  0.42990228764E+02  0.13838585310E+03  0.23818501709E+03  0.10468141628E+03 0.  0.
        -11    1    4    4    0    0  0.68795984758E+02  0.21985188986E+02  0.12742128656E+03  0.14646644777E+03  0.00000000000E+00 0.  1.
         11    1    4    4    0    0  0.88605093209E+02  0.21005039778E+02  0.10964566534E+02  0.91718569319E+02  0.00000000000E+00 0. -1.
        -13    1    3    3    0    0 -0.10832824192E+02  0.59213747687E+02  0.55206416971E+01  0.60449114798E+02  0.00000000000E+00 0.  1.
         13    1    3    3    0    0 -0.53550568243E+02 -0.22231154166E+02  0.57705015559E+01  0.58268226873E+02  0.00000000000E+00 0. -1.
          2    1    1    2  501    0 -0.93017685532E+02 -0.79972822285E+02 -0.15736038418E+03  0.19952501757E+03  0.00000000000E+00 0. -1.
<scales pt_clust_5="13000.00000" pt_clust_6="13000.00000" pt_clust_7="13000.00000" pt_clust_8="13000.00000" pt_clust_9="13000.00000"></scales>
<clustering>
<clus scale="   91.942">  7  8 -1 -1</clus>
<clus scale="  104.681">  5  6 -1 -1</clus>
<clus scale="  118.179">  1  7  2 -1</clus>
<clus scale="  125.357">  5  9 -1 -1</clus>
<clus scale="  437.299">  2  5  1 -1</clus>
</clustering>
</event>
<event>
 9    1  0.3312826E-006  0.1495136E+03  0.7546771E-02  0.1220752E+00
         21   -1    0    0  501  502  0.00000000000E+00  0.00000000000E+00  0.32696825417E+02  0.32696825417E+02  0.00000000000E+00 0. -1.
         -4   -1    0    0    0  501 -0.00000000000E+00 -0.00000000000E+00 -0.47006779350E+03  0.47006779350E+03  0.00000000000E+00 0.  1.
         23    2    1    2    0    0  0.19309413556E+01 -0.47283538912E+01 -0.18237062316E+03  0.20716440847E+03  0.98142559982E+02 0.  0.
         23    2    1    2    0    0  0.31939411814E+02 -0.28415228423E+02 -0.16416243684E+03  0.19314425202E+03  0.92346332823E+02 0.  0.
        -11    1    4    4    0    0  0.61753824106E+02 -0.33681289583E+02 -0.10076287259E+03  0.12288661665E+03  0.00000000000E+00 0.  1.
         11    1    4    4    0    0 -0.29814412292E+02  0.52660611599E+01 -0.63399564247E+02  0.70257635366E+02  0.00000000000E+00 0. -1.
        -13    1    3    3    0    0  0.41041009902E+02  0.19509251954E+02 -0.52775062885E+02  0.69643252854E+02  0.00000000000E+00 0.  1.
         13    1    3    3    0    0 -0.39110068547E+02 -0.24237605845E+02 -0.12959556027E+03  0.13752115561E+03  0.00000000000E+00 0. -1.
         -4    1    1    2    0  502 -0.33870353169E+02  0.33143582314E+02 -0.90837908093E+02  0.10245595844E+03  0.00000000000E+00 0.  1.
<scales pt_clust_5="13000.00000" pt_clust_6="13000.00000" pt_clust_7="13000.00000" pt_clust_8="13000.00000" pt_clust_9="13000.00000"></scales>
<clustering>
<clus scale="   92.346">  5  6 -1 -1</clus>
<clus scale="   47.389">  5  9 -1 -1</clus>
<clus scale="   98.143">  7  8 -1 -1</clus>
<clus scale="   98.275">  2  7  1 -1</clus>
<clus scale="  149.514">  1  5  2 -1</clus>
</clustering>
</event>
<event>
 9    1  0.3312826E-006  0.1604290E+03  0.7546771E-02  0.1194861E+00
         21   -1    0    0  501  502  0.00000000000E+00  0.00000000000E+00  0.13437235634E+03  0.13437235634E+03  0.00000000000E+00 0. -1.
         -1   -1    0    0    0  501 -0.00000000000E+00 -0.00000000000E+00 -0.27853792256E+03  0.27853792256E+03  0.00000000000E+00 0.  1.
         23    2    1    2    0    0  0.33575695500E+02 -0.46903197115E+02 -0.19976589530E+03  0.24311967769E+03  0.12599018823E+03 0.  0.
         23    2    1    2    0    0 -0.63512897544E+02  0.42683295750E+02  0.16888263114E+02  0.12067168750E+03  0.91764322270E+02 0.  0.
        -13    1    4    4    0    0  0.20261094511E+02  0.67306268719E+00  0.17758203127E+02  0.26950301343E+02  0.00000000000E+00 0.  1.
         13    1    4    4    0    0 -0.83773992056E+02  0.42010233063E+02 -0.86994001283E+00  0.93721386154E+02  0.00000000000E+00 0. -1.
        -13    1    3    3    0    0  0.81928670986E+02 -0.29574665701E+02 -0.12117944601E+03  0.14923614212E+03  0.00000000000E+00 0.  1.
         13    1    3    3    0    0 -0.48352975486E+02 -0.17328531415E+02 -0.78586449290E+02  0.93883535571E+02  0.00000000000E+00 0. -1.
         -1    1    1    2    0  502  0.29937202044E+02  0.42199013651E+01  0.38712065963E+02  0.49118913718E+02  0.00000000000E+00 0.  1.
<scales pt_clust_5="13000.00000" pt_clust_6="13000.00000" pt_clust_7="13000.00000" pt_clust_8="13000.00000" pt_clust_9="13000.00000"></scales>
<clustering>
<clus scale="   91.764">  5  6 -1 -1</clus>
<clus scale="   30.233">  5  9 -1 -1</clus>
<clus scale="  125.990">  7  8 -1 -1</clus>
<clus scale="  138.567">  2  7  1 -1</clus>
<clus scale="  160.429">  1  5  2 -1</clus>
</clustering>
</event>
<event>
 9    1  0.3312826E-006  0.2168272E+03  0.7546771E-02  0.1160010E+00
          1   -1    0    0  502    0 -0.00000000000E+00  0.00000000000E+00  0.84019704364E+03  0.84019704364E+03  0.00000000000E+00 0. -1.
         21   -1    0    0  501  502  0.00000000000E+00 -0.00000000000E+00 -0.57866951476E+02  0.57866951476E+02  0.00000000000E+00 0. -1.
         23    2    1    2    0    0 -0.77665017362E+02 -0.46805159439E+02  0.60648829310E+03  0.61889671179E+03  0.83561428423E+02 0.  0.
         23    2    1    2    0    0  0.23381566077E+02  0.10180380280E+02  0.18941948645E+03  0.21229112071E+03  0.92398270069E+02 0.  0.
        -11    1    4    4    0    0 -0.46040476599E+01  0.41930269608E+02  0.14468422422E+03  0.15070789462E+03  0.00000000000E+00 0.  1.
         11    1    4    4    0    0  0.27985613737E+02 -0.31749889329E+02  0.44735262231E+02  0.61583226088E+02  0.00000000000E+00 0. -1.
        -13    1    3    3    0    0 -0.30990054407E+02 -0.65091771549E+02  0.31643577956E+03  0.32454418001E+03  0.00000000000E+00 0. -1.
         13    1    3    3    0    0 -0.46674962955E+02  0.18286612110E+02  0.29005251355E+03  0.29435253178E+03  0.00000000000E+00 0.  1.
          1    1    1    2  501    0  0.54283451286E+02  0.36624779160E+02 -0.13577687384E+02  0.66876162619E+02  0.00000000000E+00 0. -1.
<scales pt_clust_5="13000.00000" pt_clust_6="13000.00000" pt_clust_7="13000.00000" pt_clust_8="13000.00000" pt_clust_9="13000.00000"></scales>
<clustering>
<clus scale="   83.561">  7  8 -1 -1</clus>
<clus scale="   92.398">  5  6 -1 -1</clus>
<clus scale="   65.483">  5  9 -1 -1</clus>
<clus scale="  123.309">  1  7  2 -1</clus>
<clus scale="  216.827">  2  5  1 -1</clus>
</clustering>
</event>
<event>
 9    1  0.3312826E-006  0.2755010E+03  0.7546771E-02  0.1126523E+00
         21   -1    0    0  501  502  0.00000000000E+00  0.00000000000E+00  0.38571294585E+02  0.38571294585E+02  0.00000000000E+00 0. -1.
          1   -1    0    0  502    0 -0.00000000000E+00 -0.00000000000E+00 -0.12515338776E+04  0.12515338776E+04  0.00000000000E+00 0. -1.
         23    2    1    2    0    0  0.74970833961E+02 -0.67597118071E+02 -0.64544185824E+03  0.65924814645E+03  0.88447328503E+02 0.  0.
         23    2    1    2    0    0 -0.12739619229E+02 -0.60939288315E+02 -0.35324397941E+03  0.37335196665E+03  0.10360737064E+03 0.  0.
        -11    1    4    4    0    0  0.31211255047E+02 -0.40569785206E+01 -0.34912255633E+02  0.47004968990E+02  0.00000000000E+00 0.  1.
         11    1    4    4    0    0 -0.43950874276E+02 -0.56882309794E+02 -0.31833172378E+03  0.32634699766E+03  0.00000000000E+00 0. -1.
        -11    1    3    3    0    0  0.72054457048E+02 -0.70211622926E+01 -0.39399694609E+03  0.40059297926E+03  0.00000000000E+00 0.  1.
         11    1    3    3    0    0  0.29163769134E+01 -0.60575955778E+02 -0.25144491214E+03  0.25865516719E+03  0.00000000000E+00 0. -1.
          1    1    1    2  501    0 -0.62231214732E+02  0.12853640639E+03 -0.21427674541E+03  0.25750505913E+03  0.00000000000E+00 0. -1.
<scales pt_clust_5="13000.00000" pt_clust_6="13000.00000" pt_clust_7="13000.00000" pt_clust_8="13000.00000" pt_clust_9="13000.00000"></scales>
<clustering>
<clus scale="   88.447">  7  8 -1 -1</clus>
<clus scale="  103.607">  5  6 -1 -1</clus>
<clus scale="  134.212">  2  7  1 -1</clus>
<clus scale="  107.047">  5  9 -1 -1</clus>
<clus scale="  275.501">  1  5  2 -1</clus>
</clustering>
</event>
<event>
 9    1  0.3312826E-006  0.2907995E+03  0.7546771E-02  0.1135566E+00
          1   -1    0    0  502    0 -0.00000000000E+00  0.00000000000E+00  0.13341075571E+03  0.13341075571E+03  0.00000000000E+00 0. -1.
         21   -1    0    0  501  502  0.00000000000E+00 -0.00000000000E+00 -0.29383081213E+03  0.29383081213E+03  0.00000000000E+00 0. -1.
         23    2    1    2    0    0  0.20219158351E+01  0.13992893759E+02 -0.89437292658E+02  0.12790413506E+03  0.90335758308E+02 0.  0.
         23    2    1    2    0    0 -0.11722625835E+02  0.68658734536E+02  0.80898033062E+02  0.12615206424E+03  0.67219117621E+02 0.  0.
        -13    1    3    3    0    0 -0.39246979484E+02 -0.12883997962E+02 -0.32061496382E+02  0.52290174529E+02  0.00000000000E+00 0.  1.
         13    1    3    3    0    0  0.41268895319E+02  0.26876891721E+02 -0.57375796276E+02  0.75613960535E+02  0.00000000000E+00 0. -1.
        -13    1    4    4    0    0  0.19187732418E+02  0.89486589137E+01  0.45459458053E+02  0.50147880296E+02  0.00000000000E+00 0.  1.
         13    1    4    4    0    0 -0.30910358252E+02  0.59710075622E+02  0.35438575009E+02  0.76004183942E+02  0.00000000000E+00 0. -1.
          1    1    1    2  501    0  0.97007099997E+01 -0.82651628294E+02 -0.15188079682E+03  0.17318536854E+03  0.00000000000E+00 0. -1.
<scales pt_clust_5="13000.00000" pt_clust_6="13000.00000" pt_clust_7="13000.00000" pt_clust_8="13000.00000" pt_clust_9="13000.00000"></scales>
<clustering>
<clus scale="   67.219">  7  8 -1 -1</clus>
<clus scale="   83.219">  7  9 -1 -1</clus>
<clus scale="   90.336">  5  6 -1 -1</clus>
<clus scale="   91.435">  1  5  2 -1</clus>
<clus scale="  290.799">  2  5  1 -1</clus>
</clustering>
</event>
<event>
 9    1  0.3312826E-006  0.2294550E+03  0.7546771E-02  0.1137266E+00
          4   -1    0    0  502    0 -0.00000000000E+00  0.00000000000E+00  0.15192395473E+03  0.15192395473E+03  0.00000000000E+00 0. -1.
         21   -1    0    0  501  502  0.00000000000E+00 -0.00000000000E+00 -0.48086993266E+03  0.48086993266E+03  0.00000000000E+00 0.  1.
         23    2    1    2    0    0 -0.11979002734E+03 -0.95071330592E+02 -0.35939775078E+03  0.40132702926E+03  0.92241165445E+02 0.  0.
         23    2    1    2    0    0  0.67786545806E+02 -0.84125823476E+01  0.98839137452E+01  0.11383897386E+03  0.90530839418E+02 0.  0.
        -13    1    4    4    0    0  0.46604477997E+02 -0.38702609980E+02 -0.22574007686E+02  0.64648706187E+02  0.00000000000E+00 0.  1.
         13    1    4    4    0    0  0.21182067809E+02  0.30290027632E+02  0.32457921431E+02  0.49190267678E+02  0.00000000000E+00 0. -1.
        -13    1    3    3    0    0 -0.55649572066E+02 -0.69024349181E+02 -0.10376262483E+03  0.13648413081E+03  0.00000000000E+00 0. -1.
         13    1    3    3    0    0 -0.64140455273E+02 -0.26046981412E+02 -0.25563512595E+03  0.26484289846E+03  0.00000000000E+00 0.  1.
          4    1    1    2  501    0  0.52003481533E+02  0.10348391294E+03  0.20567859108E+02  0.11762788427E+03  0.00000000000E+00 0. -1.
<scales pt_clust_5="13000.00000" pt_clust_6="13000.00000" pt_clust_7="13000.00000" pt_clust_8="13000.00000" pt_clust_9="13000.00000"></scales>
<clustering>
<clus scale="   90.531">  5  6 -1 -1</clus>
<clus scale="   92.241">  7  8 -1 -1</clus>
<clus scale="  115.816">  5  9 -1 -1</clus>
<clus scale="  178.596">  1  7  2 -1</clus>
<clus scale="  229.455">  2  5  1 -1</clus>
</clustering>
</event>
<event>
 9    1  0.3312826E-006  0.3101614E+03  0.7546771E-02  0.1126743E+00
         21   -1    0    0  501  502  0.00000000000E+00  0.00000000000E+00  0.11319573548E+03  0.11319573548E+03  0.00000000000E+00 0. -1.
          3   -1    0    0  502    0 -0.00000000000E+00 -0.00000000000E+00 -0.36025256354E+03  0.36025256354E+03  0.00000000000E+00 0. -1.
         23    2    1    2    0    0  0.12868414863E+02 -0.21634011252E+02 -0.63037652625E+02  0.11280564356E+03  0.90098507346E+02 0.  0.
         23    2    1    2    0    0  0.23337419767E+02 -0.32690378639E+02 -0.24940039840E+03  0.26824835847E+03  0.90240385006E+02 0.  0.
        -11    1    3    3    0    0 -0.27668923906E+02  0.10920140932E+02 -0.51617915551E+02  0.59575397891E+02  0.00000000000E+00 0.  1.
         11    1    3    3    0    0  0.40537338769E+02 -0.32554152184E+02 -0.11419737075E+02  0.53230245666E+02  0.00000000000E+00 0. -1.
        -11    1    4    4    0    0 -0.26761842966E+02 -0.70158193157E+01 -0.16159598857E+03  0.16394719114E+03  0.00000000000E+00 0.  1.
         11    1    4    4    0    0  0.50099262733E+02 -0.25674559323E+02 -0.87804409829E+02  0.10430116734E+03  0.00000000000E+00 0. -1.
          3    1    1    2  501    0 -0.36205834630E+02  0.54324389890E+02  0.65381222965E+02  0.92394296981E+02  0.00000000000E+00 0. -1.
<scales pt_clust_5="13000.00000" pt_clust_6="13000.00000" pt_clust_7="13000.00000" pt_clust_8="13000.00000" pt_clust_9="13000.00000"></scales>
<clustering>
<clus scale="   90.099">  5  6 -1 -1</clus>
<clus scale="   90.240">  7  8 -1 -1</clus>
<clus scale="   65.284">  7  9 -1 -1</clus>
<clus scale="   93.549">  2  5  1 -1</clus>
<clus scale="  310.161">  1  5  2 -1</clus>
</clustering>
</event>
<event>
 9    1  0.3312826E-006  0.1899164E+03  0.7546771E-02  0.1164668E+00
         21   -1    0    0  501  502  0.00000000000E+00  0.00000000000E+00  0.62199462674E+02  0.62199462674E+02  0.00000000000E+00 0. -1.
          1   -1    0    0  502    0 -0.00000000000E+00 -0.00000000000E+00 -0.53948531246E+03  0.53948531246E+03  0.00000000000E+00 0. -1.
         23    2    1    2    0    0  0.75507650248E+02 -0.11430028259E+03 -0.14743095840E+03  0.22106356324E+03  0.91472682545E+02 0.  0.
         23    2    1    2    0    0 -0.61130969771E+02  0.63016255753E+02 -0.16760298555E+03  0.20985112875E+03  0.90767238127E+02 0.  0.
        -13    1    3    3    0    0  0.21327579625E+02 -0.60181498342E+02 -0.12646119034E+03  0.14166549000E+03  0.00000000000E+00 0.  1.
         13    1    3    3    0    0  0.54180070623E+02 -0.54118784248E+02 -0.20969768055E+02  0.79398073235E+02  0.00000000000E+00 0. -1.
        -13    1    4    4    0    0 -0.71868036956E+02  0.25186031018E+02 -0.65535261825E+02  0.10047000267E+03  0.00000000000E+00 0. -1.
         13    1    4    4    0    0  0.10737067185E+02  0.37830224735E+02 -0.10206772373E+03  0.10938112608E+03  0.00000000000E+00 0.  1.
          1    1    1    2  501    0 -0.14376680477E+02  0.51284026836E+02 -0.16225190584E+03  0.17077008315E+03  0.00000000000E+00 0. -1.
<scales pt_clust_5="13000.00000" pt_clust_6="13000.00000" pt_clust_7="13000.00000" pt_clust_8="13000.00000" pt_clust_9="13000.00000"></scales>
<clustering>
<clus scale="   90.767">  7  8 -1 -1</clus>
<clus scale="   53.261">  7  9 -1 -1</clus>
<clus scale="   91.473">  5  6 -1 -1</clus>
<clus scale="  164.722">  2  5  1 -1</clus>
<clus scale="  189.916">  1  5  2 -1</clus>
</clustering>
</event>
<event>
 9    1  0.3312826E-006  0.1467019E+03  0.7546771E-02  0.1217607E+00
         21   -1    0    0  501  502  0.00000000000E+00  0.00000000000E+00  0.36365178834E+03  0.36365178834E+03  0.00000000000E+00 0.  1.
          2   -1    0    0  502    0 -0.00000000000E+00 -0.00000000000E+00 -0.96844206584E+02  0.96844206584E+02  0.00000000000E+00 0. -1.
         23    2    1    2    0    0 -0.16242991248E+02 -0.63230460369E+02 -0.41838568662E+02  0.11875942479E+03  0.89952261040E+02 0.  0.
         23    2    1    2    0    0  0.10125129928E+02 -0.73719929082E+01  0.17617340877E+03  0.19149955101E+03  0.74014481980E+02 0.  0.
        -11    1    3    3    0    0 -0.49148357100E+02 -0.53878975404E+02 -0.13129674190E+02  0.74100562350E+02  0.00000000000E+00 0. -1.
         11    1    3    3    0    0  0.32905365852E+02 -0.93514849654E+01 -0.28708894472E+02  0.44658862443E+02  0.00000000000E+00 0.  1.
        -13    1    4    4    0    0  0.25339177212E+02  0.24217679395E+02  0.12227922881E+03  0.12720369372E+03  0.00000000000E+00 0.  1.
         13    1    4    4    0    0 -0.15214047285E+02 -0.31589672303E+02  0.53894179961E+02  0.64295857291E+02  0.00000000000E+00 0. -1.
          2    1    1    2  501    0  0.61178613205E+01  0.70602453278E+02  0.13247274165E+03  0.15023701913E+03  0.00000000000E+00 0. -1.
<scales pt_clust_5="13000.00000" pt_clust_6="13000.00000" pt_clust_7="13000.00000" pt_clust_8="13000.00000" pt_clust_9="13000.00000"></scales>
<clustering>
<clus scale="   74.014">  7  8 -1 -1</clus>
<clus scale="   70.867">  7  9 -1 -1</clus>
<clus scale="   89.952">  5  6 -1 -1</clus>
<clus scale="  111.146">  2  5  1 -1</clus>
<clus scale="  146.702">  1  5  2 -1</clus>
</clustering>
</event>
<event>
 9    1  0.3312826E-006  0.3391527E+03  0.7546771E-02  0.1102946E+00
          2   -1    0    0  502    0 -0.00000000000E+00  0.00000000000E+00  0.17471568937E+03  0.17471568937E+03  0.00000000000E+00 0. -1.
         21   -1    0    0  501  502  0.00000000000E+00 -0.00000000000E+00 -0.33440114549E+03  0.33440114549E+03  0.00000000000E+00 0. -1.
         23    2    1    2    0    0 -0.91459176269E+02  0.15372187442E+02  0.80878638678E+01  0.13073553485E+03  0.91789331944E+02 0.  0.
         23    2    1    2    0    0 -0.65574252169E+02 -0.42762372989E+02 -0.18383514476E+03  0.21816987056E+03  0.87602105455E+02 0.  0.
        -11    1    4    4    0    0 -0.13444699190E+02  0.16805009039E+02 -0.10226916776E+03  0.10450909500E+03  0.00000000000E+00 0. -1.
         11    1    4    4    0    0 -0.52129552979E+02 -0.59567382028E+02 -0.81565977008E+02  0.11366077556E+03  0.00000000000E+00 0.  1.
        -11    1    3    3    0    0 -0.86970983035E+02  0.46653735026E+02  0.31025510976E+01  0.98742841286E+02  0.00000000000E+00 0.  1.
         11    1    3    3    0    0 -0.44881932344E+01 -0.31281547584E+02  0.49853127702E+01  0.31992693559E+02  0.00000000000E+00 0. -1.
          2    1    1    2  501    0  0.15703342844E+03  0.27390185547E+02  0.16061824768E+02  0.16021142945E+03  0.00000000000E+00 0. -1.
<scales pt_clust_5="13000.00000" pt_clust_6="13000.00000" pt_clust_7="13000.00000" pt_clust_8="13000.00000" pt_clust_9="13000.00000"></scales>
<clustering>
<clus scale="   87.602">  5  6 -1 -1</clus>
<clus scale="   91.789">  7  8 -1 -1</clus>
<clus scale="  130.485">  1  7  2 -1</clus>
<clus scale="   89.991">  5  9 -1 -1</clus>
<clus scale="  339.153">  2  5  1 -1</clus>
</clustering>
</event>
<event>
 9    1  0.3312826E-006  0.2339091E+03  0.7546771E-02  0.1143126E+00
          3   -1    0    0  502    0 -0.00000000000E+00  0.00000000000E+00  0.34670024335E+03  0.34670024335E+03  0.00000000000E+00 0. -1.
         21   -1    0    0  501  502  0.00000000000E+00 -0.00000000000E+00 -0.10585730290E+03  0.10585730290E+03  0.00000000000E+00 0. -1.
         23    2    1    2    0    0  0.11157716957E+03 -0.33384669946E+02  0.12000497608E+03  0.18927958946E+03  0.88665482264E+02 0.  0.
         23    2    1    2    0    0 -0.34277988130E+02 -0.12496741271E+02  0.14046144203E+03  0.17127062979E+03  0.90956379208E+02 0.  0.
        -13    1    3    3    0    0  0.51627646335E+02 -0.41432708597E+01  0.11032793315E+03  0.12188040611E+03  0.00000000000E+00 0.  1.
         13    1    3    3    0    0  0.59949523236E+02 -0.29241399086E+02  0.96770429291E+01  0.67399183352E+02  0.00000000000E+00 0. -1.
        -13    1    4    4    0    0  0.28272332812E+02  0.93012100837E+01  0.28654121600E+02  0.41314597860E+02  0.00000000000E+00 0.  1.
         13    1    4    4    0    0 -0.62550320942E+02 -0.21797951355E+02  0.11180732043E+03  0.12995603193E+03  0.00000000000E+00 0. -1.
          3    1    1    2  501    0 -0.77299181441E+02  0.45881411217E+02 -0.19623477656E+02  0.92007327002E+02  0.00000000000E+00 0. -1.
<scales pt_clust_5="13000.00000" pt_clust_6="13000.00000" pt_clust_7="13000.00000" pt_clust_8="13000.00000" pt_clust_9="13000.00000"></scales>
<clustering>
<clus scale="   88.665">  5  6 -1 -1</clus>
<clus scale="   90.956">  7  8 -1 -1</clus>
<clus scale="   89.890">  7  9 -1 -1</clus>
<clus scale="  146.375">  1  5  2 -1</clus>
<clus scale="  233.909">  2  5  1 -1</clus>
</clustering>
</event>
<event>
 9    1  0.3312826E-006  0.1988881E+03  0.7546771E-02  0.1177836E+00
         21   -1    0    0  501  502  0.00000000000E+00  0.00000000000E+00  0.11770329654E+03  0.11770329654E+03  0.00000000000E+00 0. -1.
         -1   -1    0    0    0  501 -0.00000000000E+00 -0.00000000000E+00 -0.20769191141E+03  0.20769191141E+03  0.00000000000E+00 0.  1.
         23    2    1    2    0    0 -0.49248178268E+02 -0.19393301268E+02 -0.66088552952E+02  0.12507618990E+03  0.92059074790E+02 0.  0.
         23    2    1    2    0    0  0.68104655335E+02  0.76372254162E+02  0.10397876455E+01  0.13532544994E+03  0.88549031391E+02 0.  0.
        -13    1    3    3    0    0 -0.75230026896E+02 -0.16072024863E+02 -0.35262355828E+02  0.84624468497E+02  0.00000000000E+00 0. -1.
         13    1    3    3    0    0  0.25981848628E+02 -0.33212764050E+01 -0.30826197124E+02  0.40451721400E+02  0.00000000000E+00 0.  1.
        -13    1    4    4    0    0  0.68402915851E+02  0.55589732528E+02  0.35547985626E+02  0.95041236005E+02  0.00000000000E+00 0. -1.
         13    1    4    4    0    0 -0.29826051600E+00  0.20782521634E+02 -0.34508197981E+02  0.40284213939E+02  0.00000000000E+00 0.  1.
         -1    1    1    2    0  502 -0.18856477066E+02 -0.56978952894E+02 -0.24939849560E+02  0.64993568115E+02  0.00000000000E+00 0.  1.
<scales pt_clust_5="13000.00000" pt_clust_6="13000.00000" pt_clust_7="13000.00000" pt_clust_8="13000.00000" pt_clust_9="13000.00000"></scales>
<clustering>
<clus scale="   88.549">  7  8 -1 -1</clus>
<clus scale="   60.018">  7  9 -1 -1</clus>
<clus scale="   92.059">  5  6 -1 -1</clus>
<clus scale="  106.190">  2  5  1 -1</clus>
<clus scale="  198.888">  1  5  2 -1</clus>
</clustering>
</event>
<event>
 9    1  0.3312826E-006  0.1995361E+03  0.7546771E-02  0.1179021E+00
         21   -1    0    0  501  502  0.00000000000E+00  0.00000000000E+00  0.39841365300E+03  0.39841365300E+03  0.00000000000E+00 0.  1.
         -3   -1    0    0    0  501 -0.00000000000E+00 -0.00000000000E+00 -0.14962097097E+03  0.14962097097E+03  0.00000000000E+00 0.  1.
         23    2    1    2    0    0 -0.27376873275E+02 -0.37186278924E+02 -0.10196094156E+03  0.14449682427E+03  0.91383729898E+02 0.  0.
         23    2    1    2    0    0  0.63802519496E+02  0.82097671678E+02  0.17253853533E+03  0.21617590767E+03  0.78432695306E+02 0.  0.
        -13    1    3    3    0    0 -0.60844262599E+02 -0.16568399694E+02 -0.64180577008E+02  0.89976011385E+02  0.00000000000E+00 0.  1.
         13    1    3    3    0    0  0.33467389324E+02 -0.20617879231E+02 -0.37780364553E+02  0.54520812887E+02  0.00000000000E+00 0. -1.
        -13    1    4    4    0    0  0.44686707976E+02  0.93981603674E+02  0.15862581668E+03  0.18971450502E+03  0.00000000000E+00 0.  1.
         13    1    4    4    0    0  0.19115811520E+02 -0.11883931996E+02  0.13912718657E+02  0.26461402650E+02  0.00000000000E+00 0. -1.
         -3    1    1    2    0  502 -0.36425646221E+02 -0.44911392754E+02  0.17821508826E+03  0.18736189203E+03  0.00000000000E+00 0.  1.
<scales pt_clust_5="13000.00000" pt_clust_6="13000.00000" pt_clust_7="13000.00000" pt_clust_8="13000.00000" pt_clust_9="13000.00000"></scales>
<clustering>
<clus scale="   78.433">  7  8 -1 -1</clus>
<clus scale="   57.826">  7  9 -1 -1</clus>
<clus scale="   91.384">  5  6 -1 -1</clus>
<clus scale="  102.388">  2  5  1 -1</clus>
<clus scale="  199.536">  1  5  2 -1</clus>
</clustering>
</event>
<event>
 9    1  0.3312826E-006  0.1880792E+03  0.7546771E-02  0.1189851E+00
          1   -1    0    0  502    0 -0.00000000000E+00  0.00000000000E+00  0.13465773588E+03  0.13465773588E+03  0.00000000000E+00 0. -1.
         21   -1    0    0  501  502  0.00000000000E+00 -0.00000000000E+00 -0.17613189870E+03  0.17613189870E+03  0.00000000000E+00 0.  1.
         23    2    1    2    0    0 -0.18764315021E+02 -0.82911720001E+01  0.42263124184E+02  0.10491170117E+03  0.93805385376E+02 0.  0.
         23    2    1    2    0    0 -0.29303652862E+02 -0.26858713884E+02  0.50780248504E+01  0.98947097657E+02  0.90469040096E+02 0.  0.
        -13    1    4    4    0    0 -0.32979927827E+02 -0.47200703343E+02 -0.24734695670E+02  0.62668869508E+02  0.00000000000E+00 0.  1.
         13    1    4    4    0    0  0.36762749655E+01  0.20341989459E+02  0.29812720521E+02  0.36278228149E+02  0.00000000000E+00 0. -1.
        -13    1    3    3    0    0  0.97359387812E+01  0.39268477184E+02  0.20422732576E+02  0.45319861101E+02  0.00000000000E+00 0. -1.
         13    1    3    3    0    0 -0.28500253803E+02 -0.47559649184E+02  0.21840391608E+02  0.59591840070E+02  0.00000000000E+00 0.  1.
          1    1    1    2  501    0  0.48067967883E+02  0.35149885884E+02 -0.88815311851E+02  0.10693083575E+03  0.00000000000E+00 0. -1.
<scales pt_clust_5="13000.00000" pt_clust_6="13000.00000" pt_clust_7="13000.00000" pt_clust_8="13000.00000" pt_clust_9="13000.00000"></scales>
<clustering>
<clus scale="   90.469">  5  6 -1 -1</clus>
<clus scale="   59.549">  5  9 -1 -1</clus>
<clus scale="   93.805">  7  8 -1 -1</clus>
<clus scale="   96.022">  1  7  2 -1</clus>
<clus scale="  188.079">  2  5  1 -1</clus>
</clustering>
</event>
<event>
 9    1  0.3312826E-006  0.5998115E+03  0.7546771E-02  0.1048247E+00
          1   -1    0    0  502    0 -0.00000000000E+00  0.00000000000E+00  0.43710050849E+03  0.43710050849E+03  0.00000000000E+00 0. -1.
         21   -1    0    0  501  502  0.00000000000E+00 -0.00000000000E+00 -0.33956504733E+03  0.33956504733E+03  0.00000000000E+00 0. -1.
         23    2    1    2    0    0 -0.65148681502E+01  0.50413980350E+02  0.14086291964E+03  0.17529122211E+03  0.91107834450E+02 0.  0.
         23    2    1    2    0    0 -0.11661461270E+03 -0.38303993930E+02  0.24425334341E+03  0.28830846454E+03  0.91629204480E+02 0.  0.
        -13    1    3    3    0    0 -0.11169859960E+02  0.74962748155E+02  0.12336828599E+03  0.14478920323E+03  0.00000000000E+00 0.  1.
         13    1    3    3    0    0  0.46549918101E+01 -0.24548767805E+02  0.17494633642E+02  0.30502018880E+02  0.00000000000E+00 0. -1.
        -13    1    4    4    0    0 -0.32648296870E+02 -0.46099351244E+02  0.15749991059E+03  0.16732388745E+03  0.00000000000E+00 0. -1.
         13    1    4    4    0    0 -0.83966315826E+02  0.77953573132E+01  0.86753432816E+02  0.12098457709E+03  0.00000000000E+00 0.  1.
          1    1    1    2  501    0  0.12312948085E+03 -0.12109986419E+02 -0.28758080189E+03  0.31306586917E+03  0.00000000000E+00 0. -1.
<scales pt_clust_5="13000.00000" pt_clust_6="13000.00000" pt_clust_7="13000.00000" pt_clust_8="13000.00000" pt_clust_9="13000.00000"></scales>
<clustering>
<clus scale="   91.108">  5  6 -1 -1</clus>
<clus scale="   91.629">  7  8 -1 -1</clus>
<clus scale="  104.330">  1  5  2 -1</clus>
<clus scale="  123.223">  7  9 -1 -1</clus>
<clus scale="  599.811">  2  5  1 -1</clus>
</clustering>
</event>
<event>
 9    1  0.3312826E-006  0.6949054E+03  0.7546771E-02  0.1035248E+00
          1   -1    0    0  502    0 -0.00000000000E+00  0.00000000000E+00  0.29815809912E+03  0.29815809912E+03  0.00000000000E+00 0. -1.
         21   -1    0    0  501  502  0.00000000000E+00 -0.00000000000E+00 -0.73051399940E+03  0.73051399940E+03  0.00000000000E+00 0. -1.
         23    2    1    2    0    0 -0.23286549268E+02 -0.77943916642E+01  0.10998298628E+03  0.14718191760E+03  0.94674408783E+02 0.  0.
         23    2    1    2    0    0 -0.26643814560E+03 -0.18560210498E+03 -0.33704386930E+03  0.47715288627E+03  0.92945576775E+02 0.  0.
        -13    1    4    4    0    0 -0.23871991726E+03 -0.13310774049E+03 -0.24181975402E+03  0.36494062929E+03  0.00000000000E+00 0. -1.
         13    1    4    4    0    0 -0.27718228342E+02 -0.52494364495E+02 -0.95224115283E+02  0.11221225698E+03  0.00000000000E+00 0.  1.
        -13    1    3    3    0    0  0.23424429979E+02  0.22006569153E+02  0.11412938150E+02  0.34106424072E+02  0.00000000000E+00 0. -1.
         13    1    3    3    0    0 -0.46710979247E+02 -0.29800960817E+02  0.98570048129E+02  0.11307549353E+03  0.00000000000E+00 0.  1.
          1    1    1    2  501    0  0.28972469487E+03  0.19339649665E+03 -0.20529501726E+03  0.40433729465E+03  0.00000000000E+00 0. -1.
<scales pt_clust_5="13000.00000" pt_clust_6="13000.00000" pt_clust_7="13000.00000" pt_clust_8="13000.00000" pt_clust_9="13000.00000"></scales>
<clustering>
<clus scale="   92.946">  5  6 -1 -1</clus>
<clus scale="   94.674">  7  8 -1 -1</clus>
<clus scale="   97.807">  1  7  2 -1</clus>
<clus scale="  334.458">  5  9 -1 -1</clus>
<clus scale="  694.905">  2  5  1 -1</clus>
</clustering>
</event>
<event>
 9    1  0.3312826E-006  0.1701258E+03  0.7546771E-02  0.1203705E+00
         -1   -1    0    0    0  501 -0.00000000000E+00  0.00000000000E+00  0.18740852460E+03  0.18740852460E+03  0.00000000000E+00 0.  1.
         21   -1    0    0  501  502  0.00000000000E+00 -0.00000000000E+00 -0.26092037593E+03  0.26092037593E+03  0.00000000000E+00 0.  1.
         23    2    1    2    0    0 -0.18360266333E+02  0.24324710481E+02  0.14350201971E+03  0.17257938330E+03  0.90895670739E+02 0.  0.
         23    2    1    2    0    0  0.34730302750E+02  0.21154309092E+02 -0.87151551951E+02  0.13718349963E+03  0.97827505539E+02 0.  0.
        -11    1    3    3    0    0 -0.49921787866E+02  0.20052559410E+02  0.12416612441E+03  0.13532005207E+03  0.00000000000E+00 0.  1.
         11    1    3    3    0    0  0.31561521533E+02  0.42721510712E+01  0.19335895302E+02  0.37259331226E+02  0.00000000000E+00 0. -1.
        -11    1    4    4    0    0 -0.27077089200E+02 -0.13643249373E+02 -0.46259661426E+02  0.55310607375E+02  0.00000000000E+00 0.  1.
         11    1    4    4    0    0  0.61807391950E+02  0.34797558465E+02 -0.40891890526E+02  0.81872892251E+02  0.00000000000E+00 0. -1.
         -1    1    1    2    0  502 -0.16370036417E+02 -0.45479019573E+02 -0.12986231909E+03  0.13856601760E+03  0.00000000000E+00 0.  1.
<scales pt_clust_5="13000.00000" pt_clust_6="13000.00000" pt_clust_7="13000.00000" pt_clust_8="13000.00000" pt_clust_9="13000.00000"></scales>
<clustering>
<clus scale="   90.896">  5  6 -1 -1</clus>
<clus scale="   95.869">  1  5  2 -1</clus>
<clus scale="   97.828">  7  8 -1 -1</clus>
<clus scale="   46.021">  7  9 -1 -1</clus>
<clus scale="  170.126">  2  5  1 -1</clus>
</clustering>
</event>
<event>
 9    1  0.3312826E-006  0.2656917E+03  0.7546771E-02  0.1137802E+00
          2   -1    0    0  502    0 -0.00000000000E+00  0.00000000000E+00  0.52598710529E+03  0.52598710529E+03  0.00000000000E+00 0. -1.
         21   -1    0    0  501  502  0.00000000000E+00 -0.00000000000E+00 -0.74780634411E+02  0.74780634411E+02  0.00000000000E+00 0. -1.
         23    2    1    2    0    0  0.11276094077E+02  0.68953127068E+02  0.22415712693E+03  0.25127740078E+03  0.89511063896E+02 0.  0.
         23    2    1    2    0    0 -0.35336509692E+02  0.36148777843E+02  0.21726124367E+03  0.24122621317E+03  0.91827201122E+02 0.  0.
        -11    1    3    3    0    0 -0.14422331872E+01  0.89424921767E+02  0.17817180097E+03  0.19935919174E+03  0.00000000000E+00 0. -1.
         11    1    3    3    0    0  0.12718327264E+02 -0.20471794699E+02  0.45985325962E+02  0.51918209045E+02  0.00000000000E+00 0.  1.
        -11    1    4    4    0    0 -0.57293901063E+02  0.48789762414E+02  0.12843828660E+03  0.14886042281E+03  0.00000000000E+00 0. -1.
         11    1    4    4    0    0  0.21957391371E+02 -0.12640984571E+02  0.88822957072E+02  0.92365790365E+02  0.00000000000E+00 0.  1.
          2    1    1    2  501    0  0.24060415614E+02 -0.10510190491E+03  0.97881002762E+01  0.10826412574E+03  0.00000000000E+00 0. -1.
<scales pt_clust_5="13000.00000" pt_clust_6="13000.00000" pt_clust_7="13000.00000" pt_clust_8="13000.00000" pt_clust_9="13000.00000"></scales>
<clustering>
<clus scale="   89.511">  5  6 -1 -1</clus>
<clus scale="   91.827">  7  8 -1 -1</clus>
<clus scale="  107.821">  7  9 -1 -1</clus>
<clus scale="  113.551">  1  5  2 -1</clus>
<clus scale="  265.692">  2  5  1 -1</clus>
</clustering>
</event>
<event>
 9    1  0.3312826E-006  0.5097686E+03  0.7546771E-02  0.1066978E+00
          2   -1    0    0  502    0 -0.00000000000E+00  0.00000000000E+00  0.12470531293E+03  0.12470531293E+03  0.00000000000E+00 0. -1.
         21   -1    0    0  501  502  0.00000000000E+00 -0.00000000000E+00 -0.81585415169E+03  0.81585415169E+03  0.00000000000E+00 0. -1.
         23    2    1    2    0    0  0.20314184865E+01 -0.48988301604E+02 -0.28160412556E+02  0.10424751634E+03  0.87581707408E+02 0.  0.
         23    2    1    2    0    0 -0.14479412855E+03 -0.33861328125E+02 -0.24258904949E+02  0.17659939431E+03  0.92124494012E+02 0.  0.
        -11    1    3    3    0    0 -0.19233858474E+02  0.16231491338E+02 -0.25153882914E+02  0.35582586310E+02  0.00000000000E+00 0.  1.
         11    1    3    3    0    0  0.21265276960E+02 -0.65219792941E+02 -0.30065296422E+01  0.68664930030E+02  0.00000000000E+00 0. -1.
        -11    1    4    4    0    0 -0.28392635798E+02 -0.48754859854E+02  0.15642084194E+01  0.56441340123E+02  0.00000000000E+00 0.  1.
         11    1    4    4    0    0 -0.11640149275E+03  0.14893531729E+02 -0.25823113369E+02  0.12015805419E+03  0.00000000000E+00 0. -1.
          2    1    1    2  501    0  0.14276271006E+03  0.82849629728E+02 -0.63872952126E+03  0.65971255397E+03  0.00000000000E+00 0. -1.
<scales pt_clust_5="13000.00000" pt_clust_6="13000.00000" pt_clust_7="13000.00000" pt_clust_8="13000.00000" pt_clust_9="13000.00000"></scales>
<clustering>
<clus scale="   87.582">  5  6 -1 -1</clus>
<clus scale="   92.124">  7  8 -1 -1</clus>
<clus scale="  100.372">  1  5  2 -1</clus>
<clus scale="  162.382">  7  9 -1 -1</clus>
<clus scale="  509.769">  2  5  1 -1</clus>
</clustering>
</event>
<event>
 9    1  0.3312826E-006  0.3156706E+03  0.7546771E-02  0.1114874E+00
          1   -1    0    0  502    0 -0.00000000000E+00  0.00000000000E+00  0.29279172926E+03  0.29279172926E+03  0.00000000000E+00 0. -1.
         21   -1    0    0  501  502  0.00000000000E+00 -0.00000000000E+00 -0.16411994791E+03  0.16411994791E+03  0.00000000000E+00 0. -1.
         23    2    1    2    0    0  0.15512163493E+02  0.75526071172E+02  0.61126432654E+02  0.13409548837E+03  0.91106226944E+02 0.  0.
         23    2    1    2    0    0  0.12384709247E+03  0.62880849542E+01  0.20068364481E+02  0.15438631499E+03  0.89748273958E+02 0.  0.
        -11    1    3    3    0    0  0.45884400650E+02  0.73883779187E+02  0.55474612136E+02  0.10315824563E+03  0.00000000000E+00 0.  1.
         11    1    3    3    0    0 -0.30372237157E+02  0.16422919853E+01  0.56518205187E+01  0.30937242735E+02  0.00000000000E+00 0. -1.
        -13    1    4    4    0    0  0.34475397184E+02  0.42919009759E+02 -0.28235907588E+01  0.55123199059E+02  0.00000000000E+00 0.  1.
         13    1    4    4    0    0  0.89371695283E+02 -0.36630924805E+02  0.22891955240E+02  0.99263115932E+02  0.00000000000E+00 0. -1.
          1    1    1    2  501    0 -0.13935925596E+03 -0.81814156126E+02  0.47476984217E+02  0.16842987382E+03  0.00000000000E+00 0. -1.
<scales pt_clust_5="13000.00000" pt_clust_6="13000.00000" pt_clust_7="13000.00000" pt_clust_8="13000.00000" pt_clust_9="13000.00000"></scales>
<clustering>
<clus scale="   89.748">  7  8 -1 -1</clus>
<clus scale="   91.106">  5  6 -1 -1</clus>
<clus scale="  119.353">  1  5  2 -1</clus>
<clus scale="  136.772">  7  9 -1 -1</clus>
<clus scale="  315.671">  2  5  1 -1</clus>
</clustering>
</event>
<event>
 9    1  0.3312826E-006  0.3323048E+03  0.7546771E-02  0.1084563E+00
         21   -1    0    0  501  502  0.00000000000E+00  0.00000000000E+00  0.47523618783E+03  0.47523618783E+03  0.00000000000E+00 0.  1.
         -3   -1    0    0    0  501 -0.00000000000E+00 -0.00000000000E+00 -0.16427839748E+03  0.16427839748E+03  0.00000000000E+00 0.  1.
         23    2    1    2    0    0 -0.55688495444E+02  0.19755045691E+03  0.15049439743E+03  0.27049567028E+03  0.91607600304E+02 0.  0.
         23    2    1    2    0    0 -0.55683678328E+02 -0.14215071450E+03  0.15598005743E+02  0.17807684803E+03  0.90335864170E+02 0.  0.
        -11    1    3    3    0    0 -0.39116815181E+02  0.11143892232E+03  0.30690124554E+02  0.12202721984E+03  0.00000000000E+00 0.  1.
         11    1    3    3    0    0 -0.16571680263E+02  0.86111534591E+02  0.11980427288E+03  0.14846845044E+03  0.00000000000E+00 0. -1.
        -13    1    4    4    0    0 -0.39909726354E+01 -0.92839335802E+02 -0.24569702389E+02  0.96118366664E+02  0.00000000000E+00 0.  1.
         13    1    4    4    0    0 -0.51692705692E+02 -0.49311378702E+02  0.40167708132E+02  0.81958481366E+02  0.00000000000E+00 0. -1.
         -3    1    1    2    0  502  0.11137217377E+03 -0.55399742408E+02  0.14486538718E+03  0.19094206700E+03  0.00000000000E+00 0.  1.
<scales pt_clust_5="13000.00000" pt_clust_6="13000.00000" pt_clust_7="13000.00000" pt_clust_8="13000.00000" pt_clust_9="13000.00000"></scales>
<clustering>
<clus scale="   90.336">  7  8 -1 -1</clus>
<clus scale="   91.608">  5  6 -1 -1</clus>
<clus scale="  124.390">  7  9 -1 -1</clus>
<clus scale="  224.765">  2  5  1 -1</clus>
<clus scale="  332.305">  1  5  2 -1</clus>
</clustering>
</event>
<event>
 9    1  0.3312826E-006  0.6327437E+03  0.7546771E-02  0.1046199E+00
         21   -1    0    0  501  502  0.00000000000E+00  0.00000000000E+00  0.11124932501E+03  0.11124932501E+03  0.00000000000E+00 0. -1.
          1   -1    0    0  502    0 -0.00000000000E+00 -0.00000000000E+00 -0.13439009209E+04  0.13439009209E+04  0.00000000000E+00 0. -1.
         23    2    1    2    0    0 -0.33155080636E+02  0.21464327668E+02 -0.39089911503E+03  0.40210139727E+03  0.85577092871E+02 0.  0.
         23    2    1    2    0    0 -0.23548432483E+03 -0.17660869903E+03 -0.52675145145E+03  0.61093737551E+03  0.95571362714E+02 0.  0.
        -11    1    4    4    0    0 -0.35094321229E+02 -0.54898559620E+02 -0.18794284058E+03  0.19891700419E+03  0.00000000000E+00 0.  1.
         11    1    4    4    0    0 -0.20039000360E+03 -0.12171013941E+03 -0.33880861087E+03  0.41202037131E+03  0.00000000000E+00 0. -1.
        -13    1    3    3    0    0 -0.29714876321E+02  0.53521294749E+02 -0.23025000444E+03  0.23824896099E+03  0.00000000000E+00 0. -1.
         13    1    3    3    0    0 -0.34402043150E+01 -0.32056967081E+02 -0.16064911058E+03  0.16385243628E+03  0.00000000000E+00 0.  1.
          1    1    1    2  501    0  0.26863940546E+03  0.15514437136E+03 -0.31500102937E+03  0.44211147309E+03  0.00000000000E+00 0. -1.
<scales pt_clust_5="13000.00000" pt_clust_6="13000.00000" pt_clust_7="13000.00000" pt_clust_8="13000.00000" pt_clust_9="13000.00000"></scales>
<clustering>
<clus scale="   85.577">  7  8 -1 -1</clus>
<clus scale="   94.252">  2  7  1 -1</clus>
<clus scale="   95.571">  5  6 -1 -1</clus>
<clus scale="  303.364">  5  9 -1 -1</clus>
<clus scale="  632.744">  1  5  2 -1</clus>
</clustering>
</event>
<event>
 9    1  0.3312826E-006  0.1780136E+03  0.7546771E-02  0.1185814E+00
         21   -1    0    0  501  502  0.00000000000E+00  0.00000000000E+00  0.53843253928E+02  0.53843253928E+02  0.00000000000E+00 0.  1.
          2   -1    0    0  502    0 -0.00000000000E+00 -0.00000000000E+00 -0.43459194372E+03  0.43459194372E+03  0.00000000000E+00 0. -1.
         23    2    1    2    0    0 -0.10355872693E+02  0.83770061226E+02 -0.19620869380E+03  0.23202952459E+03  0.90637638448E+02 0.  0.
         23    2    1    2    0    0 -0.13401133380E+02 -0.20989606993E+02 -0.15450110721E+03  0.18286578177E+03  0.94599936750E+02 0.  0.
        -11    1    3    3    0    0 -0.12096943514E+02  0.55883290889E+02 -0.19591371644E+03  0.20408689947E+03  0.00000000000E+00 0. -1.
         11    1    3    3    0    0  0.17410708212E+01  0.27886770337E+02 -0.29497735755E+00  0.27942625129E+02  0.00000000000E+00 0.  1.
        -13    1    4    4    0    0 -0.34776375401E+02 -0.33891507421E+02 -0.32726712244E+02  0.58558246692E+02  0.00000000000E+00 0. -1.
         13    1    4    4    0    0  0.21375242021E+02  0.12901900428E+02 -0.12177439497E+03  0.12430753508E+03  0.00000000000E+00 0.  1.
          2    1    1    2  501    0  0.23757006073E+02 -0.62780454233E+02 -0.30038888773E+02  0.73539891283E+02  0.00000000000E+00 0. -1.
<scales pt_clust_5="13000.00000" pt_clust_6="13000.00000" pt_clust_7="13000.00000" pt_clust_8="13000.00000" pt_clust_9="13000.00000"></scales>
<clustering>
<clus scale="   90.638">  5  6 -1 -1</clus>
<clus scale="   94.600">  7  8 -1 -1</clus>
<clus scale="   67.125">  7  9 -1 -1</clus>
<clus scale="  123.854">  2  5  1 -1</clus>
<clus scale="  178.014">  1  5  2 -1</clus>
</clustering>
</event>
<event>
 9    1  0.3312826E-006  0.3299692E+03  0.7546771E-02  0.1107783E+00
          2   -1    0    0  502    0 -0.00000000000E+00  0.00000000000E+00  0.59644820660E+03  0.59644820660E+03  0.00000000000E+00 0. -1.
         21   -1    0    0  501  502  0.00000000000E+00 -0.00000000000E+00 -0.10766156976E+03  0.10766156976E+03  0.00000000000E+00 0. -1.
         23    2    1    2    0    0 -0.82949308665E+02 -0.52184623907E+01  0.29740423654E+03  0.32265615014E+03  0.93540852866E+02 0.  0.
         23    2    1    2    0    0 -0.10271450589E+03 -0.29441376520E+02  0.80896895525E+02  0.16263999950E+03  0.92143352243E+02 0.  0.
        -13    1    4    4    0    0 -0.11542875388E+03 -0.89648050613E+01  0.58408980632E+02  0.12967564911E+03  0.00000000000E+00 0. -1.
         13    1    4    4    0    0  0.12714247998E+02 -0.20476571459E+02  0.22487914893E+02  0.32964350397E+02  0.00000000000E+00 0.  1.
        -13    1    3    3    0    0 -0.17375747564E+02 -0.45120632088E+02  0.11777305694E+03  0.12731174724E+03  0.00000000000E+00 0.  1.
         13    1    3    3    0    0 -0.65573561101E+02  0.39902169698E+02  0.17963117959E+03  0.19534440290E+03  0.00000000000E+00 0. -1.
          2    1    1    2  501    0  0.18566381455E+03  0.34659838911E+02  0.11048550478E+03  0.21881362671E+03  0.00000000000E+00 0. -1.
<scales pt_clust_5="13000.00000" pt_clust_6="13000.00000" pt_clust_7="13000.00000" pt_clust_8="13000.00000" pt_clust_9="13000.00000"></scales>
<clustering>
<clus scale="   92.143">  5  6 -1 -1</clus>
<clus scale="   93.541">  7  8 -1 -1</clus>
<clus scale="  125.131">  1  7  2 -1</clus>
<clus scale="  141.566">  5  9 -1 -1</clus>
<clus scale="  329.969">  2  5  1 -1</clus>
</clustering>
</event>
<event>
 9    1  0.3312826E-006  0.1350767E+03  0.7546771E-02  0.1230992E+00
          2   -1    0    0  502    0 -0.00000000000E+00  0.00000000000E+00  0.27018968874E+03  0.27018968874E+03  0.00000000000E+00 0. -1.
         21   -1    0    0  501  502  0.00000000000E+00 -0.00000000000E+00 -0.69828774618E+02  0.69828774618E+02  0.00000000000E+00 0.  1.
         23    2    1    2    0    0 -0.11404834517E+02 -0.32598122332E+02  0.17050803124E+03  0.20168222910E+03  0.10202952999E+03 0.  0.
         23    2    1    2    0    0 -0.27040408173E+00  0.55813776928E+02  0.28709983732E+02  0.11232500527E+03  0.93152524551E+02 0.  0.
        -11    1    4    4    0    0 -0.18963170812E+02  0.76892616300E+02  0.28446789712E+02  0.84150437513E+02  0.00000000000E+00 0. -1.
         11    1    4    4    0    0  0.18692766730E+02 -0.21078839372E+02  0.26319401972E+00  0.28174567759E+02  0.00000000000E+00 0.  1.
        -13    1    3    3    0    0 -0.32009133424E+02  0.27340373471E+02  0.88807285965E+02  0.98279268844E+02  0.00000000000E+00 0. -1.
         13    1    3    3    0    0  0.20604298907E+02 -0.59938495803E+02  0.81700745270E+02  0.10340296026E+03  0.00000000000E+00 0.  1.
          2    1    1    2  501    0  0.11675238598E+02 -0.23215654597E+02  0.11428991541E+01  0.26011228982E+02  0.00000000000E+00 0. -1.
<scales pt_clust_5="13000.00000" pt_clust_6="13000.00000" pt_clust_7="13000.00000" pt_clust_8="13000.00000" pt_clust_9="13000.00000"></scales>
<clustering>
<clus scale="   93.153">  5  6 -1 -1</clus>
<clus scale="   25.986">  5  9 -1 -1</clus>
<clus scale="  102.030">  7  8 -1 -1</clus>
<clus scale="  107.716">  1  7  2 -1</clus>
<clus scale="  135.077">  2  5  1 -1</clus>
</clustering>
</event>
<event>
 9    1  0.3312826E-006  0.2065545E+03  0.7546771E-02  0.1176595E+00
         21   -1    0    0  501  502  0.00000000000E+00  0.00000000000E+00  0.37137702403E+03  0.37137702403E+03  0.00000000000E+00 0.  1.
         -3   -1    0    0    0  501 -0.00000000000E+00 -0.00000000000E+00 -0.62338097100E+02  0.62338097100E+02  0.00000000000E+00 0.  1.
         23    2    1    2    0    0  0.21671276330E+01  0.22877585618E+02  0.90834460729E+02  0.13325219634E+03  0.94747919274E+02 0.  0.
         23    2    1    2    0    0 -0.45847137074E+02  0.49224445385E+02  0.92019873597E+02  0.14870918510E+03  0.95507898081E+02 0.  0.
        -13    1    3    3    0    0  0.24275361934E+02  0.18143382573E+02  0.10314732475E+03  0.10750742361E+03  0.00000000000E+00 0. -1.
         13    1    3    3    0    0 -0.22108234301E+02  0.47342030454E+01 -0.12312864021E+02  0.25744772727E+02  0.00000000000E+00 0.  1.
        -13    1    4    4    0    0  0.20492103445E+02  0.43956845286E+02  0.26260334830E+02  0.55151933207E+02  0.00000000000E+00 0.  1.
         13    1    4    4    0    0 -0.66339240519E+02  0.52676000988E+01  0.65759538767E+02  0.93557251896E+02  0.00000000000E+00 0. -1.
         -3    1    1    2    0  502  0.43680009441E+02 -0.72102031004E+02  0.12618459260E+03  0.15175373969E+03  0.00000000000E+00 0.  1.
<scales pt_clust_5="13000.00000" pt_clust_6="13000.00000" pt_clust_7="13000.00000" pt_clust_8="13000.00000" pt_clust_9="13000.00000"></scales>
<clustering>
<clus scale="   94.748">  5  6 -1 -1</clus>
<clus scale="   95.508">  7  8 -1 -1</clus>
<clus scale="   84.301">  7  9 -1 -1</clus>
<clus scale="   97.495">  2  5  1 -1</clus>
<clus scale="  206.555">  1  5  2 -1</clus>
</clustering>
</event>
<event>
 9    1  0.3312826E-006  0.1380435E+03  0.7546771E-02  0.1231328E+00
          2   -1    0    0  502    0 -0.00000000000E+00  0.00000000000E+00  0.29177508189E+03  0.29177508189E+03  0.00000000000E+00 0. -1.
         21   -1    0    0  501  502  0.00000000000E+00 -0.00000000000E+00 -0.55687644368E+02  0.55687644368E+02  0.00000000000E+00 0.  1.
         23    2    1    2    0    0 -0.10307134270E+02 -0.37747872538E+02  0.16278787908E+03  0.19116546539E+03  0.92267018409E+02 0.  0.
         23    2    1    2    0    0 -0.99248326087E+01 -0.15959961820E+02  0.28779283313E+02  0.83661740264E+02  0.76274615387E+02 0.  0.
        -11    1    3    3    0    0  0.35540558520E+01  0.26987391287E+02  0.20003414089E+02  0.33779981893E+02  0.00000000000E+00 0. -1.
         11    1    3    3    0    0 -0.13861190122E+02 -0.64735263825E+02  0.14278446499E+03  0.15738548350E+03  0.00000000000E+00 0.  1.
        -13    1    4    4    0    0 -0.35756254914E+02 -0.40876677586E+01  0.39354783055E+02  0.53329332852E+02  0.00000000000E+00 0. -1.
         13    1    4    4    0    0  0.25831422306E+02 -0.11872294061E+02 -0.10575499742E+02  0.30332407412E+02  0.00000000000E+00 0.  1.
          2    1    1    2  501    0  0.20231966879E+02  0.53707834358E+02  0.44520275128E+02  0.72635520599E+02  0.00000000000E+00 0. -1.
<scales pt_clust_5="13000.00000" pt_clust_6="13000.00000" pt_clust_7="13000.00000" pt_clust_8="13000.00000" pt_clust_9="13000.00000"></scales>
<clustering>
<clus scale="   76.275">  7  8 -1 -1</clus>
<clus scale="   57.392">  7  9 -1 -1</clus>
<clus scale="   92.267">  5  6 -1 -1</clus>
<clus scale="  100.221">  1  5  2 -1</clus>
<clus scale="  138.044">  2  5  1 -1</clus>
</clustering>
</event>
<event>
 9    1  0.3312826E-006  0.1600466E+03  0.7546771E-02  0.1210772E+00
         21   -1    0    0  501  502  0.00000000000E+00  0.00000000000E+00  0.38946843499E+03  0.38946843499E+03  0.00000000000E+00 0.  1.
          1   -1    0    0  502    0 -0.00000000000E+00 -0.00000000000E+00 -0.17931856499E+03  0.17931856499E+03  0.00000000000E+00 0. -1.
         23    2    1    2    0    0 -0.61391585868E+01 -0.23658083230E+02 -0.14712504698E+03  0.17730226975E+03  0.95879722766E+02 0.  0.
         23    2    1    2    0    0 -0.79493404537E+01  0.59389429556E+02  0.31967217892E+03  0.33773362954E+03  0.91013219840E+02 0.  0.
        -11    1    4    4    0    0  0.33574087563E+02  0.55626793861E+02  0.22697470837E+03  0.23609124886E+03  0.00000000000E+00 0.  1.
         11    1    4    4    0    0 -0.41523428017E+02  0.37626356952E+01  0.92697470555E+02  0.10164238067E+03  0.00000000000E+00 0. -1.
        -11    1    3    3    0    0  0.34627129908E+02 -0.27652108518E+02 -0.12064769471E+03  0.12852837612E+03  0.00000000000E+00 0. -1.
         11    1    3    3    0    0 -0.40766288495E+02  0.39940252881E+01 -0.26477352279E+02  0.48773893625E+02  0.00000000000E+00 0.  1.
          1    1    1    2  501    0  0.14088499041E+02 -0.35731346326E+02  0.37602738061E+02  0.53751100688E+02  0.00000000000E+00 0. -1.
<scales pt_clust_5="13000.00000" pt_clust_6="13000.00000" pt_clust_7="13000.00000" pt_clust_8="13000.00000" pt_clust_9="13000.00000"></scales>
<clustering>
<clus scale="   91.013">  5  6 -1 -1</clus>
<clus scale="   38.409">  5  9 -1 -1</clus>
<clus scale="   95.880">  7  8 -1 -1</clus>
<clus scale="   98.946">  2  7  1 -1</clus>
<clus scale="  160.047">  1  5  2 -1</clus>
</clustering>
</event>
<event>
 9    1  0.3312826E-006  0.4121261E+03  0.7546771E-02  0.1072976E+00
         21   -1    0    0  501  502  0.00000000000E+00  0.00000000000E+00  0.42456877181E+03  0.42456877181E+03  0.00000000000E+00 0.  1.
          1   -1    0    0  502    0 -0.00000000000E+00 -0.00000000000E+00 -0.27913542323E+03  0.27913542323E+03  0.00000000000E+00 0. -1.
         23    2    1    2    0    0 -0.15154403811E+02  0.13175999303E+03  0.23212650778E+03  0.28255853562E+03  0.91467254898E+02 0.  0.
         23    2    1    2    0    0  0.33433150493E+02 -0.11151096953E+03 -0.23399554390E+03  0.27133869006E+03  0.72926663713E+02 0.  0.
        -11    1    4    4    0    0  0.36484629356E+02 -0.18555220847E+02 -0.10164720859E+03  0.10957910118E+03  0.00000000000E+00 0.  1.
         11    1    4    4    0    0 -0.30514788637E+01 -0.92955748688E+02 -0.13234833531E+03  0.16175958888E+03  0.00000000000E+00 0. -1.
        -11    1    3    3    0    0 -0.51061530570E+02  0.51636846939E+02  0.92174426309E+02  0.11734465787E+03  0.00000000000E+00 0.  1.
         11    1    3    3    0    0  0.35907126759E+02  0.80123146091E+02  0.13995208147E+03  0.16521387775E+03  0.00000000000E+00 0. -1.
          1    1    1    2  501    0 -0.18278746681E+02 -0.20249023495E+02  0.14730238470E+03  0.14980696936E+03  0.00000000000E+00 0. -1.
<scales pt_clust_5="13000.00000" pt_clust_6="13000.00000" pt_clust_7="13000.00000" pt_clust_8="13000.00000" pt_clust_9="13000.00000"></scales>
<clustering>
<clus scale="   72.927">  5  6 -1 -1</clus>
<clus scale="   27.279">  5  9 -1 -1</clus>
<clus scale="   91.467">  7  8 -1 -1</clus>
<clus scale="  161.111">  2  7  1 -1</clus>
<clus scale="  412.126">  1  5  2 -1</clus>
</clustering>
</event>
<event>
 9    1  0.3312826E-006  0.2107889E+03  0.7546771E-02  0.1173691E+00
         21   -1    0    0  501  502  0.00000000000E+00  0.00000000000E+00  0.41683961035E+02  0.41683961035E+02  0.00000000000E+00 0. -1.
          1   -1    0    0  502    0 -0.00000000000E+00 -0.00000000000E+00 -0.63409660261E+03  0.63409660261E+03  0.00000000000E+00 0. -1.
         23    2    1    2    0    0 -0.27489468860E+02  0.98991718331E+01 -0.29795957460E+03  0.31365551745E+03  0.93521179601E+02 0.  0.
         23    2    1    2    0    0 -0.14613187210E+02  0.13312308340E+02 -0.29943255179E+03  0.31379077545E+03  0.91728048549E+02 0.  0.
        -11    1    3    3    0    0  0.13340972421E+01 -0.39585862223E+02 -0.14551348955E+03  0.15080781129E+03  0.00000000000E+00 0.  1.
         11    1    3    3    0    0 -0.28823566102E+02  0.49485034056E+02 -0.15244608504E+03  0.16284770617E+03  0.00000000000E+00 0. -1.
        -11    1    4    4    0    0  0.23810272021E+02  0.40103958294E+02 -0.13580947508E+03  0.14359481204E+03  0.00000000000E+00 0.  1.
         11    1    4    4    0    0 -0.38423459231E+02 -0.26791649955E+02 -0.16362307671E+03  0.17019596340E+03  0.00000000000E+00 0. -1.
          1    1    1    2  501    0  0.42102656070E+02 -0.23211480173E+02  0.49794848070E+01  0.48334270749E+02  0.00000000000E+00 0. -1.
<scales pt_clust_5="13000.00000" pt_clust_6="13000.00000" pt_clust_7="13000.00000" pt_clust_8="13000.00000" pt_clust_9="13000.00000"></scales>
<clustering>
<clus scale="   91.728">  7  8 -1 -1</clus>
<clus scale="   48.077">  7  9 -1 -1</clus>
<clus scale="   93.521">  5  6 -1 -1</clus>
<clus scale="   97.979">  2  5  1 -1</clus>
<clus scale="  210.789">  1  5  2 -1</clus>
</clustering>
</event>
<event>
 9    1  0.3312826E-006  0.3678535E+03  0.7546771E-02  0.1060979E+00
          1   -1    0    0  502    0 -0.00000000000E+00  0.00000000000E+00  0.29895859875E+03  0.29895859875E+03  0.00000000000E+00 0. -1.
         21   -1    0    0  501  502  0.00000000000E+00 -0.00000000000E+00 -0.74359518485E+03  0.74359518485E+03  0.00000000000E+00 0. -1.
         23    2    1    2    0    0  0.23944959710E+03 -0.18351571972E+03  0.14524710345E+03  0.34737108999E+03  0.92497698144E+02 0.  0.
         23    2    1    2    0    0 -0.51257687510E+02  0.48150435803E+00 -0.19390680683E+03  0.22008753421E+03  0.90615068312E+02 0.  0.
        -13    1    3    3    0    0  0.14249608368E+03 -0.60990766489E+02  0.10092482539E+03  0.18496169290E+03  0.00000000000E+00 0.  1.
         13    1    3    3    0    0  0.96953513421E+02 -0.12252495323E+03  0.44322278061E+02  0.16240939708E+03  0.00000000000E+00 0. -1.
        -13    1    4    4    0    0 -0.11075230018E+01  0.39595749600E+02 -0.88837850803E+02  0.97268770573E+02  0.00000000000E+00 0.  1.
         13    1    4    4    0    0 -0.50150164508E+02 -0.39114245242E+02 -0.10506895603E+03  0.12281876364E+03  0.00000000000E+00 0. -1.
          1    1    1    2  501    0 -0.18819190959E+03  0.18303421536E+03 -0.39597688273E+03  0.47509515940E+03  0.00000000000E+00 0. -1.
<scales pt_clust_5="13000.00000" pt_clust_6="13000.00000" pt_clust_7="13000.00000" pt_clust_8="13000.00000" pt_clust_9="13000.00000"></scales>
<clustering>
<clus scale="   90.615">  7  8 -1 -1</clus>
<clus scale="   92.498">  5  6 -1 -1</clus>
<clus scale="  262.522">  7  9 -1 -1</clus>
<clus scale="  315.547">  1  5  2 -1</clus>
<clus scale="  367.854">  2  5  1 -1</clus>
</clustering>
</event>
<event>
 9    1  0.3312826E-006  0.3906679E+03  0.7546771E-02  0.1081640E+00
         21   -1    0    0  501  502  0.00000000000E+00  0.00000000000E+00  0.81356029097E+03  0.81356029097E+03  0.00000000000E+00 0. -1.
          1   -1    0    0  502    0 -0.00000000000E+00 -0.00000000000E+00 -0.22633745782E+03  0.22633745782E+03  0.00000000000E+00 0. -1.
         23    2    1    2    0    0 -0.37492360247E+02 -0.11300969145E+03 -0.14603778485E+03  0.20905931400E+03  0.90564312642E+02 0.  0.
         23    2    1    2    0    0  0.11024091738E+02 -0.24170793051E+02  0.10674187019E+02  0.94869546314E+02  0.90446308460E+02 0.  0.
        -11    1    4    4    0    0 -0.33125920354E+02 -0.35562595106E+02  0.73397052770E+01  0.49151765416E+02  0.00000000000E+00 0. -1.
         11    1    4    4    0    0  0.44150012092E+02  0.11391802055E+02  0.33344817423E+01  0.45717780898E+02  0.00000000000E+00 0.  1.
        -13    1    3    3    0    0 -0.56328800826E+02 -0.59851171578E+02 -0.12344968675E+03  0.14830684981E+03  0.00000000000E+00 0. -1.
         13    1    3    3    0    0  0.18836440579E+02 -0.53158519874E+02 -0.22588098107E+02  0.60752464189E+02  0.00000000000E+00 0.  1.
          1    1    1    2  501    0  0.26468268508E+02  0.13718048450E+03  0.72258643099E+03  0.73596888848E+03  0.00000000000E+00 0. -1.
<scales pt_clust_5="13000.00000" pt_clust_6="13000.00000" pt_clust_7="13000.00000" pt_clust_8="13000.00000" pt_clust_9="13000.00000"></scales>
<clustering>
<clus scale="   90.446">  5  6 -1 -1</clus>
<clus scale="   90.564">  7  8 -1 -1</clus>
<clus scale="  139.711">  5  9 -1 -1</clus>
<clus scale="  149.595">  2  7  1 -1</clus>
<clus scale="  390.668">  1  5  2 -1</clus>
</clustering>
</event>
<event>
 9    1  0.3380450E-006  0.6750404E+03  0.7546771E-02  0.1021586E+00
         21   -1    0    0  501  502  0.00000000000E+00  0.00000000000E+00  0.58205767115E+03  0.58205767115E+03  0.00000000000E+00 0.  1.
         -3   -1    0    0    0  501 -0.00000000000E+00 -0.00000000000E+00 -0.30466172312E+03  0.30466172312E+03  0.00000000000E+00 0.  1.
         23    2    1    2    0    0 -0.99548267893E+02 -0.86645120899E+02  0.97038120474E+01  0.16053851447E+03  0.90891231939E+02 0.  0.
         23    2    1    2    0    0  0.10264523404E+03 -0.14459078536E+02 -0.20151615405E+03  0.24619330727E+03  0.96214734712E+02 0.  0.
        -13    1    4    4    0    0 -0.82970562216E+01  0.20701089304E+02 -0.53064357847E+02  0.57560423157E+02  0.00000000000E+00 0. -1.
         13    1    4    4    0    0  0.11094229026E+03 -0.35160167840E+02 -0.14845179620E+03  0.18863288411E+03  0.00000000000E+00 0.  1.
        -13    1    3    3    0    0 -0.45051522695E+02 -0.64239862507E+02 -0.35650296080E+02  0.86182035499E+02  0.00000000000E+00 0.  1.
         13    1    3    3    0    0 -0.54496745198E+02 -0.22405258392E+02  0.45354108128E+02  0.74356478970E+02  0.00000000000E+00 0. -1.
         -3    1    1    2    0  502 -0.30969661443E+01  0.10110419943E+03  0.46920829004E+03  0.47998757253E+03  0.00000000000E+00 0.  1.
<scales pt_clust_5="13000.00000" pt_clust_6="13000.00000" pt_clust_7="13000.00000" pt_clust_8="13000.00000" pt_clust_9="13000.00000"></scales>
<clustering>
<clus scale="   90.891">  7  8 -1 -1</clus>
<clus scale="   96.215">  5  6 -1 -1</clus>
<clus scale="  101.152">  5  9 -1 -1</clus>
<clus scale="  160.245">  2  7  1 -1</clus>
<clus scale="  675.040">  1  5  2 -1</clus>
</clustering>
</event>
<event>
 9    1  0.3312826E-006  0.2834300E+03  0.7546771E-02  0.1145793E+00
         -3   -1    0    0    0  501 -0.00000000000E+00  0.00000000000E+00  0.17488382140E+03  0.17488382140E+03  0.00000000000E+00 0.  1.
         21   -1    0    0  501  502  0.00000000000E+00 -0.00000000000E+00 -0.18814461799E+03  0.18814461799E+03  0.00000000000E+00 0.  1.
         23    2    1    2    0    0  0.18933149144E+02  0.88942803818E+01  0.13415948222E+02  0.78345828809E+02  0.74300126952E+02 0.  0.
         23    2    1    2    0    0  0.81302528504E+02  0.76076788724E+02 -0.47050483507E+02  0.15170756447E+03  0.91671468813E+02 0.  0.
        -11    1    4    4    0    0  0.77521312184E+02  0.12606051527E+02 -0.38769440467E+02  0.87587304400E+02  0.00000000000E+00 0. -1.
         11    1    4    4    0    0  0.37812163199E+01  0.63470737197E+02 -0.82810430398E+01  0.64120260067E+02  0.00000000000E+00 0.  1.
        -13    1    3    3    0    0  0.20533852767E+02 -0.30808011795E+02  0.23466558041E+01  0.37098241113E+02  0.00000000000E+00 0. -1.
         13    1    3    3    0    0 -0.16007036230E+01  0.39702292176E+02  0.11069292418E+02  0.41247587697E+02  0.00000000000E+00 0.  1.
         -3    1    1    2    0  502 -0.10023567765E+03 -0.84971069106E+02  0.20373738697E+02  0.13297504611E+03  0.00000000000E+00 0.  1.
<scales pt_clust_5="13000.00000" pt_clust_6="13000.00000" pt_clust_7="13000.00000" pt_clust_8="13000.00000" pt_clust_9="13000.00000"></scales>
<clustering>
<clus scale="   74.300">  7  8 -1 -1</clus>
<clus scale="   77.189">  1  7  2 -1</clus>
<clus scale="   91.671">  5  6 -1 -1</clus>
<clus scale="  119.447">  5  9 -1 -1</clus>
<clus scale="  283.430">  2  5  1 -1</clus>
</clustering>
</event>
<event>
 9    1  0.3743226E-006  0.6163696E+03  0.7546771E-02  0.1033997E+00
         21   -1    0    0  501  502  0.00000000000E+00  0.00000000000E+00  0.66983344667E+03  0.66983344667E+03  0.00000000000E+00 0. -1.
          2   -1    0    0  502    0 -0.00000000000E+00 -0.00000000000E+00 -0.23978444662E+03  0.23978444662E+03  0.00000000000E+00 0. -1.
         23    2    1    2    0    0 -0.78439866605E+02 -0.82470351027E+02  0.20941472857E+03  0.25494929779E+03  0.90501074202E+02 0.  0.
         23    2    1    2    0    0  0.23036878988E+03  0.21208156494E+03 -0.37674031203E+02  0.32816492976E+03  0.90689133616E+02 0.  0.
        -11    1    3    3    0    0 -0.25880705781E+02  0.16101441553E+02  0.69648867168E+02  0.76026522014E+02  0.00000000000E+00 0.  1.
         11    1    3    3    0    0 -0.52559160825E+02 -0.98571792580E+02  0.13976586140E+03  0.17892277578E+03  0.00000000000E+00 0. -1.
        -11    1    4    4    0    0  0.84779913806E+00  0.20930371177E+02 -0.19977073702E+02  0.28946203114E+02  0.00000000000E+00 0.  1.
         11    1    4    4    0    0  0.22952099074E+03  0.19115119377E+03 -0.17696957501E+02  0.29921872665E+03  0.00000000000E+00 0. -1.
          2    1    1    2  501    0 -0.15192892328E+03 -0.12961121392E+03  0.25830830269E+03  0.32650366573E+03  0.00000000000E+00 0. -1.
<scales pt_clust_5="13000.00000" pt_clust_6="13000.00000" pt_clust_7="13000.00000" pt_clust_8="13000.00000" pt_clust_9="13000.00000"></scales>
<clustering>
<clus scale="   90.501">  5  6 -1 -1</clus>
<clus scale="   90.689">  7  8 -1 -1</clus>
<clus scale="  145.412">  2  5  1 -1</clus>
<clus scale="  217.497">  7  9 -1 -1</clus>
<clus scale="  616.370">  1  5  2 -1</clus>
</clustering>
</event>
<event>
 9    1  0.3312826E-006  0.2022366E+03  0.7546771E-02  0.1171620E+00
         21   -1    0    0  501  502  0.00000000000E+00  0.00000000000E+00  0.16581551568E+03  0.16581551568E+03  0.00000000000E+00 0.  1.
         -3   -1    0    0    0  501 -0.00000000000E+00 -0.00000000000E+00 -0.15430071511E+03  0.15430071511E+03  0.00000000000E+00 0.  1.
         23    2    1    2    0    0 -0.32238168932E+02  0.65937943293E+02  0.18484841542E+02  0.11775959199E+03  0.90213747500E+02 0.  0.
         23    2    1    2    0    0 -0.50606786658E+02 -0.32856307851E+02  0.25631390320E+01  0.11264285619E+03  0.95085538054E+02 0.  0.
        -11    1    3    3    0    0 -0.53478413366E+02  0.74843606216E+02  0.76422961382E+01  0.92303362765E+02  0.00000000000E+00 0.  1.
         11    1    3    3    0    0  0.21240244434E+02 -0.89056629227E+01  0.10842545403E+02  0.25456229229E+02  0.00000000000E+00 0. -1.
        -13    1    4    4    0    0 -0.11249901681E+01 -0.45105975943E+02 -0.28100863283E+02  0.53155180236E+02  0.00000000000E+00 0.  1.
         13    1    4    4    0    0 -0.49481796490E+02  0.12249668092E+02  0.30664002315E+02  0.59487675953E+02  0.00000000000E+00 0. -1.
         -3    1    1    2    0  502  0.82844955590E+02 -0.33081635442E+02 -0.95331800019E+01  0.89713782616E+02  0.00000000000E+00 0.  1.
<scales pt_clust_5="13000.00000" pt_clust_6="13000.00000" pt_clust_7="13000.00000" pt_clust_8="13000.00000" pt_clust_9="13000.00000"></scales>
<clustering>
<clus scale="   90.214">  5  6 -1 -1</clus>
<clus scale="   95.086">  7  8 -1 -1</clus>
<clus scale="   89.206">  7  9 -1 -1</clus>
<clus scale="  116.300">  2  5  1 -1</clus>
<clus scale="  202.237">  1  5  2 -1</clus>
</clustering>
</event>
<event>
 9    1  0.3312826E-006  0.4025492E+03  0.7546771E-02  0.1074561E+00
         -1   -1    0    0    0  501 -0.00000000000E+00  0.00000000000E+00  0.59264780648E+03  0.59264780648E+03  0.00000000000E+00 0.  1.
         21   -1    0    0  501  502  0.00000000000E+00 -0.00000000000E+00 -0.16011598649E+03  0.16011598649E+03  0.00000000000E+00 0.  1.
         23    2    1    2    0    0 -0.13240944872E+03 -0.37874349260E+02  0.27396250519E+03  0.32010909135E+03  0.91911085717E+02 0.  0.
         23    2    1    2    0    0 -0.73746788165E+02  0.12430762508E+02  0.19261810423E+03  0.22216220728E+03  0.81616172689E+02 0.  0.
        -13    1    4    4    0    0 -0.95743877369E+01  0.36765585551E+02  0.41935716588E+02  0.56586053999E+02  0.00000000000E+00 0. -1.
         13    1    4    4    0    0 -0.64172400428E+02 -0.24334823043E+02  0.15068238764E+03  0.16557615328E+03  0.00000000000E+00 0.  1.
        -13    1    3    3    0    0 -0.39417166691E+02 -0.57142411173E+02  0.97097310288E+02  0.11936019374E+03  0.00000000000E+00 0. -1.
         13    1    3    3    0    0 -0.92992282026E+02  0.19268061913E+02  0.17686519490E+03  0.20074889761E+03  0.00000000000E+00 0.  1.
         -1    1    1    2    0  502  0.20615623688E+03  0.25443586753E+02 -0.34048789431E+02  0.21049249434E+03  0.00000000000E+00 0.  1.
<scales pt_clust_5="13000.00000" pt_clust_6="13000.00000" pt_clust_7="13000.00000" pt_clust_8="13000.00000" pt_clust_9="13000.00000"></scales>
<clustering>
<clus scale="   81.616">  5  6 -1 -1</clus>
<clus scale="   91.911">  7  8 -1 -1</clus>
<clus scale="  165.573">  1  7  2 -1</clus>
<clus scale="  167.239">  5  9 -1 -1</clus>
<clus scale="  402.549">  2  5  1 -1</clus>
</clustering>
</event>
<event>
 9    1  0.3312826E-006  0.3483390E+03  0.7546771E-02  0.1113160E+00
          3   -1    0    0  502    0 -0.00000000000E+00  0.00000000000E+00  0.64346913145E+03  0.64346913145E+03  0.00000000000E+00 0. -1.
         21   -1    0    0  501  502  0.00000000000E+00 -0.00000000000E+00 -0.77535294574E+02  0.77535294574E+02  0.00000000000E+00 0.  1.
         23    2    1    2    0    0 -0.21731884790E+02  0.89602008397E+01  0.16992281996E+03  0.19359111442E+03  0.89728450459E+02 0.  0.
         23    2    1    2    0    0 -0.86990566508E+00 -0.11566734248E+03  0.39200609325E+03  0.41826527258E+03  0.88867149466E+02 0.  0.
        -11    1    4    4    0    0 -0.32829933776E+02 -0.70786524823E+02  0.13971141030E+03  0.16002441944E+03  0.00000000000E+00 0.  1.
         11    1    4    4    0    0  0.31960028111E+02 -0.44880817658E+02  0.25229468294E+03  0.25824085314E+03  0.00000000000E+00 0. -1.
        -13    1    3    3    0    0  0.27097393697E+02  0.22332952871E+02  0.10823238942E+03  0.11378611361E+03  0.00000000000E+00 0. -1.
         13    1    3    3    0    0 -0.48829278487E+02 -0.13372752031E+02  0.61690430537E+02  0.79805000811E+02  0.00000000000E+00 0.  1.
          3    1    1    2  501    0  0.22601790455E+02  0.10670714164E+03  0.40049236652E+01  0.10914803902E+03  0.00000000000E+00 0. -1.
<scales pt_clust_5="13000.00000" pt_clust_6="13000.00000" pt_clust_7="13000.00000" pt_clust_8="13000.00000" pt_clust_9="13000.00000"></scales>
<clustering>
<clus scale="   88.867">  5  6 -1 -1</clus>
<clus scale="   89.728">  7  8 -1 -1</clus>
<clus scale="   92.756">  1  7  2 -1</clus>
<clus scale="  109.634">  5  9 -1 -1</clus>
<clus scale="  348.339">  2  5  1 -1</clus>
</clustering>
</event>
<event>
 9    1  0.3312826E-006  0.3034445E+03  0.7546771E-02  0.1124945E+00
          1   -1    0    0  502    0 -0.00000000000E+00  0.00000000000E+00  0.19909153845E+03  0.19909153845E+03  0.00000000000E+00 0. -1.
         21   -1    0    0  501  502  0.00000000000E+00 -0.00000000000E+00 -0.20893352165E+03  0.20893352165E+03  0.00000000000E+00 0. -1.
         23    2    1    2    0    0 -0.25183615747E+02  0.57092322721E+02 -0.96323416390E+00  0.10445072745E+03  0.83757261353E+02 0.  0.
         23    2    1    2    0    0  0.47060647476E+02 -0.15194966901E+03  0.49951624042E+02  0.18983105391E+03  0.90759340195E+02 0.  0.
        -11    1    3    3    0    0  0.21087568306E+02  0.32875336487E+02 -0.25606763067E+02  0.46703100550E+02  0.00000000000E+00 0.  1.
         11    1    3    3    0    0 -0.46271184054E+02  0.24216986234E+02  0.24643528903E+02  0.57747626901E+02  0.00000000000E+00 0. -1.
        -13    1    4    4    0    0 -0.20939076325E+02 -0.71118199864E+01  0.12862536681E+02  0.25582567321E+02  0.00000000000E+00 0.  1.
         13    1    4    4    0    0  0.67999723801E+02 -0.14483784902E+03  0.37089087361E+02  0.16424848659E+03  0.00000000000E+00 0. -1.
          1    1    1    2  501    0 -0.21877031729E+02  0.94857346288E+02 -0.58830373072E+02  0.11374327874E+03  0.00000000000E+00 0. -1.
<scales pt_clust_5="13000.00000" pt_clust_6="13000.00000" pt_clust_7="13000.00000" pt_clust_8="13000.00000" pt_clust_9="13000.00000"></scales>
<clustering>
<clus scale="   83.757">  5  6 -1 -1</clus>
<clus scale="   90.759">  7  8 -1 -1</clus>
<clus scale="   97.347">  7  9 -1 -1</clus>
<clus scale="  104.446">  1  5  2 -1</clus>
<clus scale="  303.444">  2  5  1 -1</clus>
</clustering>
</event>
<event>
 9    1  0.3312826E-006  0.4645242E+03  0.7546771E-02  0.1063172E+00
         21   -1    0    0  501  502  0.00000000000E+00  0.00000000000E+00  0.72193389158E+02  0.72193389158E+02  0.00000000000E+00 0. -1.
          2   -1    0    0  502    0 -0.00000000000E+00 -0.00000000000E+00 -0.13665390365E+04  0.13665390365E+04  0.00000000000E+00 0. -1.
         23    2    1    2    0    0 -0.10075343765E+03 -0.57415636521E+02 -0.18856797875E+03  0.23934635584E+03  0.90999917183E+02 0.  0.
         23    2    1    2    0    0 -0.13863366102E+03  0.10552200909E+03 -0.69929801343E+03  0.72520665635E+03  0.80949344993E+02 0.  0.
        -11    1    3    3    0    0 -0.16154839315E+02 -0.54792038495E+02 -0.45137768027E+02  0.72804975230E+02  0.00000000000E+00 0. -1.
         11    1    3    3    0    0 -0.84598598334E+02 -0.26235980264E+01 -0.14343021072E+03  0.16654138061E+03  0.00000000000E+00 0.  1.
        -13    1    4    4    0    0 -0.27205422020E+02  0.28540695734E+02 -0.60536662068E+02  0.72245371856E+02  0.00000000000E+00 0.  1.
         13    1    4    4    0    0 -0.11142823900E+03  0.76981313359E+02 -0.63876135136E+03  0.65296128449E+03  0.00000000000E+00 0. -1.
          2    1    1    2  501    0  0.23938709867E+03 -0.48106372571E+02 -0.40647965513E+03  0.47417941344E+03  0.00000000000E+00 0. -1.
<scales pt_clust_5="13000.00000" pt_clust_6="13000.00000" pt_clust_7="13000.00000" pt_clust_8="13000.00000" pt_clust_9="13000.00000"></scales>
<clustering>
<clus scale="   80.949">  7  8 -1 -1</clus>
<clus scale="   91.000">  5  6 -1 -1</clus>
<clus scale="  147.407">  2  5  1 -1</clus>
<clus scale="  212.755">  7  9 -1 -1</clus>
<clus scale="  464.524">  1  5  2 -1</clus>
</clustering>
</event>
<event>
 9    1  0.3312826E-006  0.3196981E+03  0.7546771E-02  0.1080464E+00
         21   -1    0    0  501  502  0.00000000000E+00  0.00000000000E+00  0.32731467400E+03  0.32731467400E+03  0.00000000000E+00 0. -1.
          2   -1    0    0  502    0 -0.00000000000E+00 -0.00000000000E+00 -0.27907521411E+03  0.27907521411E+03  0.00000000000E+00 0. -1.
         23    2    1    2    0    0 -0.20256875992E+02 -0.26704505806E+03 -0.76412031587E+01  0.28184479703E+03  0.87491128489E+02 0.  0.
         23    2    1    2    0    0 -0.14894355600E+02  0.94266737464E+02 -0.18303895094E+02  0.13325655035E+03  0.91182322928E+02 0.  0.
        -11    1    4    4    0    0  0.36429408961E+02  0.24880267069E+02  0.34566937281E+01  0.44250178058E+02  0.00000000000E+00 0.  1.
         11    1    4    4    0    0 -0.51323764560E+02  0.69386470394E+02 -0.21760588822E+02  0.89006372291E+02  0.00000000000E+00 0. -1.
        -13    1    3    3    0    0 -0.67447197698E+01 -0.18789271483E+03 -0.44935967238E+02  0.19330909105E+03  0.00000000000E+00 0. -1.
         13    1    3    3    0    0 -0.13512156222E+02 -0.79152343236E+02  0.37294764079E+02  0.88535705979E+02  0.00000000000E+00 0.  1.
          2    1    1    2  501    0  0.35151231592E+02  0.17277832060E+03  0.74184558142E+02  0.19128854074E+03  0.00000000000E+00 0. -1.
<scales pt_clust_5="13000.00000" pt_clust_6="13000.00000" pt_clust_7="13000.00000" pt_clust_8="13000.00000" pt_clust_9="13000.00000"></scales>
<clustering>
<clus scale="   87.491">  7  8 -1 -1</clus>
<clus scale="   91.182">  5  6 -1 -1</clus>
<clus scale="  176.318">  5  9 -1 -1</clus>
<clus scale="  281.741">  2  7  1 -1</clus>
<clus scale="  319.698">  1  5  2 -1</clus>
</clustering>
</event>
<event>
 9    1  0.3312826E-006  0.5719486E+03  0.7546771E-02  0.1053653E+00
         21   -1    0    0  501  502  0.00000000000E+00  0.00000000000E+00  0.11488030782E+03  0.11488030782E+03  0.00000000000E+00 0. -1.
          2   -1    0    0  502    0 -0.00000000000E+00 -0.00000000000E+00 -0.99325744775E+03  0.99325744775E+03  0.00000000000E+00 0. -1.
         23    2    1    2    0    0 -0.10667117727E+02 -0.48756726276E+02 -0.14972222967E+03  0.18182074705E+03  0.90283067312E+02 0.  0.
         23    2    1    2    0    0  0.16325251999E+03  0.24936016169E+03 -0.32606724344E+03  0.45134240629E+03  0.92510782851E+02 0.  0.
        -11    1    3    3    0    0 -0.30938295331E+02  0.12740312890E+02 -0.26731334251E+02  0.42825902458E+02  0.00000000000E+00 0. -1.
         11    1    3    3    0    0  0.20271177604E+02 -0.61497039166E+02 -0.12299089542E+03  0.13899484459E+03  0.00000000000E+00 0.  1.
        -13    1    4    4    0    0  0.71682307557E+02  0.77935079880E+02 -0.17761048111E+03  0.20677938218E+03  0.00000000000E+00 0. -1.
         13    1    4    4    0    0  0.91570212433E+02  0.17142508181E+03 -0.14845676233E+03  0.24456302411E+03  0.00000000000E+00 0.  1.
          2    1    1    2  501    0 -0.15258540226E+03 -0.20060343542E+03 -0.40258766682E+03  0.47497460223E+03  0.00000000000E+00 0. -1.
<scales pt_clust_5="13000.00000" pt_clust_6="13000.00000" pt_clust_7="13000.00000" pt_clust_8="13000.00000" pt_clust_9="13000.00000"></scales>
<clustering>
<clus scale="   90.283">  5  6 -1 -1</clus>
<clus scale="   92.511">  7  8 -1 -1</clus>
<clus scale="  103.160">  2  5  1 -1</clus>
<clus scale="  276.267">  7  9 -1 -1</clus>
<clus scale="  571.949">  1  5  2 -1</clus>
</clustering>
</event>
<event>
 9    1  0.3312826E-006  0.5145479E+03  0.7546771E-02  0.1055132E+00
         21   -1    0    0  501  502  0.00000000000E+00  0.00000000000E+00  0.20713347018E+03  0.20713347018E+03  0.00000000000E+00 0. -1.
         -1   -1    0    0    0  501 -0.00000000000E+00 -0.00000000000E+00 -0.51177940574E+03  0.51177940574E+03  0.00000000000E+00 0.  1.
         23    2    1    2    0    0  0.98417004698E+02  0.18096491549E+02 -0.77890817950E+02  0.15661633481E+03  0.91914672316E+02 0.  0.
         23    2    1    2    0    0  0.18342975246E+03 -0.89003006194E+02 -0.11420311053E+03  0.25063441214E+03  0.90593867875E+02 0.  0.
        -11    1    3    3    0    0 -0.63287556565E+01  0.23836511009E+02 -0.36046276714E+02  0.43675696562E+02  0.00000000000E+00 0.  1.
         11    1    3    3    0    0  0.10474576035E+03 -0.57400194607E+01 -0.41844541236E+02  0.11294063824E+03  0.00000000000E+00 0. -1.
        -13    1    4    4    0    0  0.10305880388E+03 -0.28586910222E+02 -0.10465397629E+03  0.14963550129E+03  0.00000000000E+00 0.  1.
         13    1    4    4    0    0  0.80370948582E+02 -0.60416095972E+02 -0.95491342355E+01  0.10099891085E+03  0.00000000000E+00 0. -1.
         -1    1    1    2    0  502 -0.28184675716E+03  0.70906514646E+02 -0.11255200709E+03  0.31166212898E+03  0.00000000000E+00 0.  1.
<scales pt_clust_5="13000.00000" pt_clust_6="13000.00000" pt_clust_7="13000.00000" pt_clust_8="13000.00000" pt_clust_9="13000.00000"></scales>
<clustering>
<clus scale="   90.594">  7  8 -1 -1</clus>
<clus scale="   91.915">  5  6 -1 -1</clus>
<clus scale="  135.874">  2  5  1 -1</clus>
<clus scale="  242.721">  7  9 -1 -1</clus>
<clus scale="  514.548">  1  5  2 -1</clus>
</clustering>
</event>
<event>
 9    1  0.3312826E-006  0.2531470E+03  0.7546771E-02  0.1140239E+00
         -2   -1    0    0    0  501 -0.00000000000E+00  0.00000000000E+00  0.16864534862E+03  0.16864534862E+03  0.00000000000E+00 0. -1.
         21   -1    0    0  501  502  0.00000000000E+00 -0.00000000000E+00 -0.27288489006E+03  0.27288489006E+03  0.00000000000E+00 0. -1.
         23    2    1    2    0    0  0.80560345691E+02 -0.81245718153E+00  0.62242236386E+02  0.13854576668E+03  0.93969165632E+02 0.  0.
         23    2    1    2    0    0 -0.12032903929E+03  0.70734816275E+02 -0.77519729827E+02  0.18304727479E+03  0.89523764245E+02 0.  0.
        -11    1    4    4    0    0  0.10060560769E+02  0.25535860775E+02 -0.83945105628E+01  0.28701269590E+02  0.00000000000E+00 0.  1.
         11    1    4    4    0    0 -0.13038960006E+03  0.45198955500E+02 -0.69125219264E+02  0.15434600520E+03  0.00000000000E+00 0. -1.
        -11    1    3    3    0    0  0.95195991751E+02  0.13297958346E+02  0.67612687170E+02  0.11751845816E+03  0.00000000000E+00 0.  1.
         11    1    3    3    0    0 -0.14635646060E+02 -0.14110415527E+02 -0.53704507839E+01  0.21027308520E+02  0.00000000000E+00 0. -1.
         -2    1    1    2    0  502  0.39768693598E+02 -0.69922359093E+02 -0.88962047999E+02  0.11993719721E+03  0.00000000000E+00 0. -1.
<scales pt_clust_5="13000.00000" pt_clust_6="13000.00000" pt_clust_7="13000.00000" pt_clust_8="13000.00000" pt_clust_9="13000.00000"></scales>
<clustering>
<clus scale="   89.524">  5  6 -1 -1</clus>
<clus scale="   80.441">  5  9 -1 -1</clus>
<clus scale="   93.969">  7  8 -1 -1</clus>
<clus scale="  123.777">  1  7  2 -1</clus>
<clus scale="  253.147">  2  5  1 -1</clus>
</clustering>
</event>
<event>
 9    1  0.3312826E-006  0.2990363E+03  0.7546771E-02  0.1092543E+00
         21   -1    0    0  501  502  0.00000000000E+00  0.00000000000E+00  0.12347747783E+03  0.12347747783E+03  0.00000000000E+00 0. -1.
          1   -1    0    0  502    0 -0.00000000000E+00 -0.00000000000E+00 -0.62121959374E+03  0.62121959374E+03  0.00000000000E+00 0. -1.
         23    2    1    2    0    0 -0.14978079193E+03 -0.17723800500E+03 -0.17594391229E+03  0.30540585213E+03  0.92026508106E+02 0.  0.
         23    2    1    2    0    0  0.14632255394E+02  0.11694429315E+03 -0.19145679716E+03  0.24208741407E+03  0.89780511636E+02 0.  0.
        -11    1    4    4    0    0  0.52526009749E+02  0.75803896716E+02 -0.11959920489E+03  0.15102709117E+03  0.00000000000E+00 0.  1.
         11    1    4    4    0    0 -0.37893754355E+02  0.41140396438E+02 -0.71857592275E+02  0.91060322895E+02  0.00000000000E+00 0. -1.
        -13    1    3    3    0    0 -0.34829954756E+02 -0.10662998539E+02  0.11968959816E+01  0.36445271931E+02  0.00000000000E+00 0.  1.
         13    1    3    3    0    0 -0.11495083717E+03 -0.16657500646E+03 -0.17714080827E+03  0.26896058020E+03  0.00000000000E+00 0. -1.
          1    1    1    2  501    0  0.13514853653E+03  0.60293711849E+02 -0.13034140647E+03  0.19720380538E+03  0.00000000000E+00 0. -1.
<scales pt_clust_5="13000.00000" pt_clust_6="13000.00000" pt_clust_7="13000.00000" pt_clust_8="13000.00000" pt_clust_9="13000.00000"></scales>
<clustering>
<clus scale="   89.781">  5  6 -1 -1</clus>
<clus scale="   92.027">  7  8 -1 -1</clus>
<clus scale="  147.988">  5  9 -1 -1</clus>
<clus scale="  249.633">  2  7  1 -1</clus>
<clus scale="  299.036">  1  5  2 -1</clus>
</clustering>
</event>
<event>
 9    1  0.3312826E-006  0.2698295E+03  0.7546771E-02  0.1131929E+00
          1   -1    0    0  502    0 -0.00000000000E+00  0.00000000000E+00  0.77109687919E+02  0.77109687919E+02  0.00000000000E+00 0. -1.
         21   -1    0    0  501  502  0.00000000000E+00 -0.00000000000E+00 -0.51319629916E+03  0.51319629916E+03  0.00000000000E+00 0. -1.
         23    2    1    2    0    0  0.84102593670E+02  0.37512121978E+01 -0.10585047643E+03  0.16385100345E+03  0.92496000549E+02 0.  0.
         23    2    1    2    0    0  0.28260844538E+02  0.62007092067E+02 -0.63312034874E+02  0.12947321322E+03  0.90063002285E+02 0.  0.
        -13    1    3    3    0    0  0.43562429073E+02 -0.34728592546E+02 -0.89834469564E+02  0.10570710614E+03  0.00000000000E+00 0. -1.
         13    1    3    3    0    0  0.40540164597E+02  0.38479804744E+02 -0.16016006863E+02  0.58143897311E+02  0.00000000000E+00 0.  1.
        -13    1    4    4    0    0  0.26857462150E+02  0.36055075159E+02  0.14656149480E+02  0.47287360208E+02  0.00000000000E+00 0. -1.
         13    1    4    4    0    0  0.14033823888E+01  0.25952016908E+02 -0.77968184353E+02  0.82185853010E+02  0.00000000000E+00 0.  1.
          1    1    1    2  501    0 -0.11236343821E+03 -0.65758304265E+02 -0.26692409994E+03  0.29698177041E+03  0.00000000000E+00 0. -1.
<scales pt_clust_5="13000.00000" pt_clust_6="13000.00000" pt_clust_7="13000.00000" pt_clust_8="13000.00000" pt_clust_9="13000.00000"></scales>
<clustering>
<clus scale="   90.063">  7  8 -1 -1</clus>
<clus scale="   92.496">  5  6 -1 -1</clus>
<clus scale="  125.071">  1  5  2 -1</clus>
<clus scale="  107.625">  7  9 -1 -1</clus>
<clus scale="  269.829">  2  5  1 -1</clus>
</clustering>
</event>
<event>
 9    1  0.3312826E-006  0.4625866E+03  0.7546771E-02  0.1055515E+00
          2   -1    0    0  502    0 -0.00000000000E+00  0.00000000000E+00  0.12554190048E+04  0.12554190048E+04  0.00000000000E+00 0. -1.
         21   -1    0    0  501  502  0.00000000000E+00 -0.00000000000E+00 -0.10166463731E+03  0.10166463731E+03  0.00000000000E+00 0. -1.
         23    2    1    2    0    0 -0.77805787091E+01  0.16268362281E+03  0.63797474671E+03  0.66425247760E+03  0.87710193395E+02 0.  0.
         23    2    1    2    0    0  0.16775833875E+03  0.46223323316E+02  0.26059065794E+03  0.32628457454E+03  0.90965250173E+02 0.  0.
        -11    1    4    4    0    0  0.10514073463E+03  0.12914468906E+02  0.22095437976E+03  0.24503509038E+03  0.00000000000E+00 0. -1.
         11    1    4    4    0    0  0.62617604120E+02  0.33308854410E+02  0.39636278187E+02  0.81249484160E+02  0.00000000000E+00 0.  1.
        -11    1    3    3    0    0  0.39682681741E+02  0.82790064138E+02  0.29988296026E+03  0.31362190581E+03  0.00000000000E+00 0.  1.
         11    1    3    3    0    0 -0.47463260450E+02  0.79893558673E+02  0.33809178645E+03  0.35063057179E+03  0.00000000000E+00 0. -1.
          2    1    1    2  501    0 -0.15997776004E+03 -0.20890694613E+03  0.25518896282E+03  0.36654658993E+03  0.00000000000E+00 0. -1.
<scales pt_clust_5="13000.00000" pt_clust_6="13000.00000" pt_clust_7="13000.00000" pt_clust_8="13000.00000" pt_clust_9="13000.00000"></scales>
<clustering>
<clus scale="   87.710">  7  8 -1 -1</clus>
<clus scale="   90.965">  5  6 -1 -1</clus>
<clus scale="  184.985">  1  7  2 -1</clus>
<clus scale="  206.323">  5  9 -1 -1</clus>
<clus scale="  462.587">  2  5  1 -1</clus>
</clustering>
</event>
<event>
 9    1  0.3312826E-006  0.3250698E+03  0.7546771E-02  0.1112182E+00
         21   -1    0    0  501  502  0.00000000000E+00  0.00000000000E+00  0.11797418140E+03  0.11797418140E+03  0.00000000000E+00 0. -1.
          2   -1    0    0  502    0 -0.00000000000E+00 -0.00000000000E+00 -0.62762028219E+03  0.62762028219E+03  0.00000000000E+00 0. -1.
         23    2    1    2    0    0  0.63666216478E+02 -0.11049754100E+02 -0.37659190469E+03  0.39434838864E+03  0.97538222023E+02 0.  0.
         23    2    1    2    0    0  0.36762456726E+02 -0.25394497308E+02 -0.20098555323E+03  0.22464129169E+03  0.89845192438E+02 0.  0.
        -13    1    3    3    0    0 -0.12404281097E+02  0.24254104821E+02 -0.47682777847E+02  0.54916073179E+02  0.00000000000E+00 0.  1.
         13    1    3    3    0    0  0.76070497575E+02 -0.35303858920E+02 -0.32890912684E+03  0.33943231546E+03  0.00000000000E+00 0. -1.
        -13    1    4    4    0    0 -0.88798705210E+01 -0.42699176919E+02 -0.13936555398E+03  0.14603023469E+03  0.00000000000E+00 0. -1.
         13    1    4    4    0    0  0.45642327247E+02  0.17304679610E+02 -0.61619999257E+02  0.78611056992E+02  0.00000000000E+00 0.  1.
          2    1    1    2  501    0 -0.10042867320E+03  0.36444251408E+02  0.67931357136E+02  0.12660478326E+03  0.00000000000E+00 0. -1.
<scales pt_clust_5="13000.00000" pt_clust_6="13000.00000" pt_clust_7="13000.00000" pt_clust_8="13000.00000" pt_clust_9="13000.00000"></scales>
<clustering>
<clus scale="   89.845">  7  8 -1 -1</clus>
<clus scale="   97.538">  5  6 -1 -1</clus>
<clus scale="  106.837">  7  9 -1 -1</clus>
<clus scale="  117.001">  2  5  1 -1</clus>
<clus scale="  325.070">  1  5  2 -1</clus>
</clustering>
</event>
<event>
 9    1  0.3312826E-006  0.4700109E+03  0.7546771E-02  0.1070165E+00
          1   -1    0    0  502    0 -0.00000000000E+00  0.00000000000E+00  0.96222082329E+03  0.96222082329E+03  0.00000000000E+00 0. -1.
         21   -1    0    0  501  502  0.00000000000E+00 -0.00000000000E+00 -0.91751701813E+02  0.91751701813E+02  0.00000000000E+00 0. -1.
         23    2    1    2    0    0 -0.67651520192E+02  0.33223508296E+02  0.24457205336E+03  0.27124818122E+03  0.89886355149E+02 0.  0.
         23    2    1    2    0    0  0.11121456305E+03  0.18961336559E+03  0.37407009442E+03  0.44365084780E+03  0.92605246989E+02 0.  0.
        -11    1    4    4    0    0  0.68546787842E+02  0.41433693858E+02  0.16951929746E+03  0.18748921388E+03  0.00000000000E+00 0. -1.
         11    1    4    4    0    0  0.42667775209E+02  0.14817967173E+03  0.20455079696E+03  0.25616163392E+03  0.00000000000E+00 0.  1.
        -13    1    3    3    0    0 -0.30310600130E+02  0.53476796688E+02  0.20184550716E+03  0.21099788867E+03  0.00000000000E+00 0. -1.
         13    1    3    3    0    0 -0.37340920062E+02 -0.20253288392E+02  0.42726546208E+02  0.60250292552E+02  0.00000000000E+00 0.  1.
          1    1    1    2  501    0 -0.43563042859E+02 -0.22283687388E+03  0.25182697369E+03  0.33907349608E+03  0.00000000000E+00 0. -1.
<scales pt_clust_5="13000.00000" pt_clust_6="13000.00000" pt_clust_7="13000.00000" pt_clust_8="13000.00000" pt_clust_9="13000.00000"></scales>
<clustering>
<clus scale="   89.886">  7  8 -1 -1</clus>
<clus scale="   92.605">  5  6 -1 -1</clus>
<clus scale="  117.303">  1  7  2 -1</clus>
<clus scale="  220.941">  5  9 -1 -1</clus>
<clus scale="  470.011">  2  5  1 -1</clus>
</clustering>
</event>
<event>
 9    1  0.3312826E-006  0.4186762E+03  0.7546771E-02  0.1078614E+00
          1   -1    0    0  502    0 -0.00000000000E+00  0.00000000000E+00  0.38188616338E+03  0.38188616338E+03  0.00000000000E+00 0. -1.
         21   -1    0    0  501  502  0.00000000000E+00 -0.00000000000E+00 -0.26056487004E+03  0.26056487004E+03  0.00000000000E+00 0.  1.
         23    2    1    2    0    0  0.79163144428E+00  0.94586435098E+02  0.17632900137E+03  0.22017674786E+03  0.91862196743E+02 0.  0.
         23    2    1    2    0    0  0.17483880424E+03 -0.49678217274E+01  0.43624146491E+02  0.20180708046E+03  0.90717941148E+02 0.  0.
        -11    1    3    3    0    0  0.26482841893E+02  0.79348807408E+02  0.17025491504E+03  0.18969530898E+03  0.00000000000E+00 0.  1.
         11    1    3    3    0    0 -0.25691210449E+02  0.15237627690E+02  0.60740863305E+01  0.30481438888E+02  0.00000000000E+00 0. -1.
        -13    1    4    4    0    0  0.10077862098E+03  0.38720342709E+02  0.41891767782E+02  0.11580378057E+03  0.00000000000E+00 0. -1.
         13    1    4    4    0    0  0.74060183257E+02 -0.43688164436E+02  0.17323787097E+01  0.86003299889E+02  0.00000000000E+00 0.  1.
          1    1    1    2  501    0 -0.17563043568E+03 -0.89618613370E+02 -0.98631854522E+02  0.22046720510E+03  0.00000000000E+00 0. -1.
<scales pt_clust_5="13000.00000" pt_clust_6="13000.00000" pt_clust_7="13000.00000" pt_clust_8="13000.00000" pt_clust_9="13000.00000"></scales>
<clustering>
<clus scale="   90.718">  7  8 -1 -1</clus>
<clus scale="   91.862">  5  6 -1 -1</clus>
<clus scale="  131.856">  1  5  2 -1</clus>
<clus scale="  184.786">  7  9 -1 -1</clus>
<clus scale="  418.676">  2  5  1 -1</clus>
</clustering>
</event>
<event>
 9    1  0.3312826E-006  0.1352747E+03  0.7546771E-02  0.1224859E+00
          2   -1    0    0  502    0 -0.00000000000E+00  0.00000000000E+00  0.57645799135E+03  0.57645799135E+03  0.00000000000E+00 0. -1.
         21   -1    0    0  501  502  0.00000000000E+00 -0.00000000000E+00 -0.29072452260E+02  0.29072452260E+02  0.00000000000E+00 0.  1.
         23    2    1    2    0    0 -0.68406353842E+02 -0.41535875808E+02  0.22330874382E+03  0.25435381696E+03  0.91784589721E+02 0.  0.
         23    2    1    2    0    0  0.47845387505E+02  0.43519334192E+02  0.29384719140E+03  0.31456356349E+03  0.91765734495E+02 0.  0.
        -13    1    3    3    0    0 -0.52140087116E+02  0.21237294597E+02  0.90981286301E+02  0.10699161567E+03  0.00000000000E+00 0.  1.
         13    1    3    3    0    0 -0.16266266726E+02 -0.62773170405E+02  0.13232745752E+03  0.14736220130E+03  0.00000000000E+00 0. -1.
        -13    1    4    4    0    0  0.16073226932E+02 -0.28920086512E+02  0.81318326612E+02  0.87791743751E+02  0.00000000000E+00 0.  1.
         13    1    4    4    0    0  0.31772160573E+02  0.72439420704E+02  0.21252886479E+03  0.22677181974E+03  0.00000000000E+00 0. -1.
          2    1    1    2  501    0  0.20560966337E+02 -0.19834583842E+01  0.30229603865E+02  0.36613063157E+02  0.00000000000E+00 0. -1.
<scales pt_clust_5="13000.00000" pt_clust_6="13000.00000" pt_clust_7="13000.00000" pt_clust_8="13000.00000" pt_clust_9="13000.00000"></scales>
<clustering>
<clus scale="   91.766">  7  8 -1 -1</clus>
<clus scale="   20.656">  7  9 -1 -1</clus>
<clus scale="   91.785">  5  6 -1 -1</clus>
<clus scale="  121.775">  1  5  2 -1</clus>
<clus scale="  135.275">  2  5  1 -1</clus>
</clustering>
</event>
<event>
 9    1  0.3312826E-006  0.1481657E+03  0.7546771E-02  0.1218631E+00
         21   -1    0    0  501  502  0.00000000000E+00  0.00000000000E+00  0.10949992897E+03  0.10949992897E+03  0.00000000000E+00 0. -1.
          1   -1    0    0  502    0 -0.00000000000E+00 -0.00000000000E+00 -0.23652702623E+03  0.23652702623E+03  0.00000000000E+00 0. -1.
         23    2    1    2    0    0  0.39390780428E+02  0.39114436349E+02  0.48615850504E+02  0.11623678501E+03  0.89810447926E+02 0.  0.
         23    2    1    2    0    0  0.19963896569E+01 -0.18810850480E+02 -0.15166310063E+03  0.17782704368E+03  0.90900647431E+02 0.  0.
        -11    1    4    4    0    0  0.12303532716E+02 -0.49591037965E+02 -0.12751215509E+03  0.13736811006E+03  0.00000000000E+00 0.  1.
         11    1    4    4    0    0 -0.10307143059E+02  0.30780187484E+02 -0.24150945537E+02  0.40458933624E+02  0.00000000000E+00 0. -1.
        -11    1    3    3    0    0  0.43597517998E+02 -0.18662952835E+02  0.25686056268E+02  0.53933504158E+02  0.00000000000E+00 0. -1.
         11    1    3    3    0    0 -0.42067375700E+01  0.57777389183E+02  0.22929794236E+02  0.62303280857E+02  0.00000000000E+00 0.  1.
          1    1    1    2  501    0 -0.41387170085E+02 -0.20303585869E+02 -0.23979847134E+02  0.51963126497E+02  0.00000000000E+00 0. -1.
<scales pt_clust_5="13000.00000" pt_clust_6="13000.00000" pt_clust_7="13000.00000" pt_clust_8="13000.00000" pt_clust_9="13000.00000"></scales>
<clustering>
<clus scale="   89.810">  7  8 -1 -1</clus>
<clus scale="   90.901">  5  6 -1 -1</clus>
<clus scale="   46.099">  5  9 -1 -1</clus>
<clus scale="  105.582">  2  7  1 -1</clus>
<clus scale="  148.166">  1  5  2 -1</clus>
</clustering>
</event>
<event>
 9    1  0.3312826E-006  0.4742173E+03  0.7546771E-02  0.1029770E+00
         21   -1    0    0  501  502  0.00000000000E+00  0.00000000000E+00  0.38264139320E+03  0.38264139320E+03  0.00000000000E+00 0. -1.
          3   -1    0    0  502    0 -0.00000000000E+00 -0.00000000000E+00 -0.54981687444E+03  0.54981687444E+03  0.00000000000E+00 0. -1.
         23    2    1    2    0    0  0.34590595173E+03  0.54085017980E+02 -0.26473437743E+03  0.44830974272E+03  0.91220711523E+02 0.  0.
         23    2    1    2    0    0  0.93888331217E+01  0.40683595833E+02  0.16977718517E+02  0.10770623121E+03  0.97821695741E+02 0.  0.
        -11    1    4    4    0    0  0.49241506173E+02  0.36932373896E+02 -0.55004329780E+01  0.61797903968E+02  0.00000000000E+00 0. -1.
         11    1    4    4    0    0 -0.39852673052E+02  0.37512219369E+01  0.22478151495E+02  0.45908327240E+02  0.00000000000E+00 0.  1.
        -13    1    3    3    0    0  0.18917957962E+03 -0.98749342474E+01 -0.16884634121E+03  0.25376271320E+03  0.00000000000E+00 0.  1.
         13    1    3    3    0    0  0.15672637211E+03  0.63959952227E+02 -0.95888036223E+02  0.19454702952E+03  0.00000000000E+00 0. -1.
          3    1    1    2  501    0 -0.35529478485E+03 -0.94768613813E+02  0.80581177678E+02  0.37644229372E+03  0.00000000000E+00 0. -1.
<scales pt_clust_5="13000.00000" pt_clust_6="13000.00000" pt_clust_7="13000.00000" pt_clust_8="13000.00000" pt_clust_9="13000.00000"></scales>
<clustering>
<clus scale="   91.221">  7  8 -1 -1</clus>
<clus scale="   97.822">  5  6 -1 -1</clus>
<clus scale="  361.797">  2  7  1 -1</clus>
<clus scale="  105.128">  5  9 -1 -1</clus>
<clus scale="  474.217">  1  5  2 -1</clus>
</clustering>
</event>
<event>
 9    1  0.3312826E-006  0.1353669E+03  0.7546771E-02  0.1235157E+00
         21   -1    0    0  501  502  0.00000000000E+00  0.00000000000E+00  0.45844737209E+03  0.45844737209E+03  0.00000000000E+00 0.  1.
          3   -1    0    0  502    0 -0.00000000000E+00 -0.00000000000E+00 -0.30831171400E+02  0.30831171400E+02  0.00000000000E+00 0. -1.
         23    2    1    2    0    0 -0.27666894105E+02 -0.16650759068E+02  0.13599688637E+03  0.16777266367E+03  0.92789055215E+02 0.  0.
         23    2    1    2    0    0  0.47159859253E+02  0.31396822343E+02  0.20165934411E+03  0.22828453938E+03  0.90760823455E+02 0.  0.
        -13    1    4    4    0    0  0.73314667419E+02  0.21440391103E+02  0.12293029755E+03  0.14472936428E+03  0.00000000000E+00 0.  1.
         13    1    4    4    0    0 -0.26154808166E+02  0.99564312397E+01  0.78729046562E+02  0.83555175099E+02  0.00000000000E+00 0. -1.
        -13    1    3    3    0    0  0.26774002640E+02 -0.30199716439E+02  0.73019223221E+02  0.83430672118E+02  0.00000000000E+00 0.  1.
         13    1    3    3    0    0 -0.54440896745E+02  0.13548957371E+02  0.62977663147E+02  0.84341991556E+02  0.00000000000E+00 0. -1.
          3    1    1    2  501    0 -0.19492965149E+02 -0.14746063275E+02  0.89959970212E+02  0.93221340437E+02  0.00000000000E+00 0. -1.
<scales pt_clust_5="13000.00000" pt_clust_6="13000.00000" pt_clust_7="13000.00000" pt_clust_8="13000.00000" pt_clust_9="13000.00000"></scales>
<clustering>
<clus scale="   90.761">  5  6 -1 -1</clus>
<clus scale="   24.442">  5  9 -1 -1</clus>
<clus scale="   92.789">  7  8 -1 -1</clus>
<clus scale="   98.247">  2  7  1 -1</clus>
<clus scale="  135.367">  1  5  2 -1</clus>
</clustering>
</event>
<event>
 9    1  0.3312826E-006  0.1343203E+03  0.7546771E-02  0.1236284E+00
          1   -1    0    0  502    0 -0.00000000000E+00  0.00000000000E+00  0.29138213154E+03  0.29138213154E+03  0.00000000000E+00 0. -1.
         21   -1    0    0  501  502  0.00000000000E+00 -0.00000000000E+00 -0.47425077212E+02  0.47425077212E+02  0.00000000000E+00 0.  1.
         23    2    1    2    0    0  0.30585630719E+02 -0.20208787919E+02  0.12789931180E+03  0.16129286141E+03  0.91177175143E+02 0.  0.
         23    2    1    2    0    0  0.14424713303E+01  0.15925275394E+02  0.10959871365E+03  0.14456185344E+03  0.92900787483E+02 0.  0.
        -11    1    3    3    0    0  0.41093605400E+02 -0.47931849220E+02  0.10950621141E+03  0.12640315230E+03  0.00000000000E+00 0. -1.
         11    1    3    3    0    0 -0.10507974682E+02  0.27723061301E+02  0.18393100396E+02  0.34889709113E+02  0.00000000000E+00 0.  1.
        -13    1    4    4    0    0 -0.34402524567E+02  0.22988711838E+02  0.16489051570E+02  0.44541030413E+02  0.00000000000E+00 0.  1.
         13    1    4    4    0    0  0.35844995897E+02 -0.70634364445E+01  0.93109662081E+02  0.10002082302E+03  0.00000000000E+00 0. -1.
          1    1    1    2  501    0 -0.32028102049E+02  0.42835125245E+01  0.64590288722E+01  0.32952493902E+02  0.00000000000E+00 0. -1.
<scales pt_clust_5="13000.00000" pt_clust_6="13000.00000" pt_clust_7="13000.00000" pt_clust_8="13000.00000" pt_clust_9="13000.00000"></scales>
<clustering>
<clus scale="   91.177">  5  6 -1 -1</clus>
<clus scale="   92.901">  7  8 -1 -1</clus>
<clus scale="   32.313">  7  9 -1 -1</clus>
<clus scale="   98.271">  1  5  2 -1</clus>
<clus scale="  134.320">  2  5  1 -1</clus>
</clustering>
</event>
<event>
 9    1  0.3312826E-006  0.1340759E+03  0.7546771E-02  0.1239417E+00
          1   -1    0    0  502    0 -0.00000000000E+00  0.00000000000E+00  0.16911677200E+02  0.16911677200E+02  0.00000000000E+00 0. -1.
         21   -1    0    0  501  502  0.00000000000E+00 -0.00000000000E+00 -0.76483631053E+03  0.76483631053E+03  0.00000000000E+00 0. -1.
         23    2    1    2    0    0 -0.17314720717E+02  0.30283462777E+01 -0.27626362042E+03  0.29140070048E+03  0.91015437352E+02 0.  0.
         23    2    1    2    0    0  0.40127867409E+02 -0.24680860843E+02 -0.36737108663E+03  0.38141767800E+03  0.91096318055E+02 0.  0.
        -11    1    4    4    0    0 -0.24164227706E+02  0.13575217446E+02 -0.10327766176E+03  0.10693208988E+03  0.00000000000E+00 0.  1.
         11    1    4    4    0    0  0.64292095115E+02 -0.38256078290E+02 -0.26409342488E+03  0.27448558812E+03  0.00000000000E+00 0. -1.
        -13    1    3    3    0    0 -0.29430198944E+02  0.40574255634E+02 -0.11625853856E+03  0.12660353320E+03  0.00000000000E+00 0. -1.
         13    1    3    3    0    0  0.12115478227E+02 -0.37545909357E+02 -0.16000508187E+03  0.16479716728E+03  0.00000000000E+00 0.  1.
          1    1    1    2  501    0 -0.22813146693E+02  0.21652514566E+02 -0.10428992627E+03  0.10892960924E+03  0.00000000000E+00 0. -1.
<scales pt_clust_5="13000.00000" pt_clust_6="13000.00000" pt_clust_7="13000.00000" pt_clust_8="13000.00000" pt_clust_9="13000.00000"></scales>
<clustering>
<clus scale="   91.015">  7  8 -1 -1</clus>
<clus scale="   91.096">  5  6 -1 -1</clus>
<clus scale="   31.453">  5  9 -1 -1</clus>
<clus scale="   92.697">  1  7  2 -1</clus>
<clus scale="  134.076">  2  5  1 -1</clus>
</clustering>
</event>
<event>
 9    1  0.3312826E-006  0.2292103E+03  0.7546771E-02  0.1152403E+00
         -3   -1    0    0    0  501 -0.00000000000E+00  0.00000000000E+00  0.17827786690E+03  0.17827786690E+03  0.00000000000E+00 0.  1.
         21   -1    0    0  501  502  0.00000000000E+00 -0.00000000000E+00 -0.68192276980E+03  0.68192276980E+03  0.00000000000E+00 0.  1.
         23    2    1    2    0    0  0.33725548912E+02 -0.77536784407E+02  0.13371720891E+03  0.18287662133E+03  0.91728954449E+02 0.  0.
         23    2    1    2    0    0 -0.27129166453E+01  0.98077114784E+01 -0.10937701122E+03  0.14410991472E+03  0.93278002852E+02 0.  0.
        -11    1    4    4    0    0  0.12099793697E+02  0.43072593473E+02 -0.94911910964E+02  0.10492818572E+03  0.00000000000E+00 0. -1.
         11    1    4    4    0    0 -0.14812710342E+02 -0.33264881995E+02 -0.14465100253E+02  0.39181728996E+02  0.00000000000E+00 0.  1.
        -11    1    3    3    0    0 -0.26659281322E+02 -0.45368555191E+02  0.80610879809E+02  0.96265970230E+02  0.00000000000E+00 0.  1.
         11    1    3    3    0    0  0.60384830234E+02 -0.32168229216E+02  0.53106329103E+02  0.86610651100E+02  0.00000000000E+00 0. -1.
         -3    1    1    2    0  502 -0.31012632266E+02  0.67729072929E+02 -0.52798510060E+03  0.53321410065E+03  0.00000000000E+00 0.  1.
<scales pt_clust_5="13000.00000" pt_clust_6="13000.00000" pt_clust_7="13000.00000" pt_clust_8="13000.00000" pt_clust_9="13000.00000"></scales>
<clustering>
<clus scale="   91.729">  7  8 -1 -1</clus>
<clus scale="   93.278">  5  6 -1 -1</clus>
<clus scale="   74.492">  5  9 -1 -1</clus>
<clus scale="  124.754">  1  7  2 -1</clus>
<clus scale="  229.210">  2  5  1 -1</clus>
</clustering>
</event>
<event>
 9    1  0.3312826E-006  0.2595078E+03  0.7546771E-02  0.1148274E+00
          3   -1    0    0  502    0 -0.00000000000E+00  0.00000000000E+00  0.91158034363E+03  0.91158034363E+03  0.00000000000E+00 0. -1.
         21   -1    0    0  501  502  0.00000000000E+00 -0.00000000000E+00 -0.44927147763E+02  0.44927147763E+02  0.00000000000E+00 0. -1.
         23    2    1    2    0    0  0.18788098234E+02 -0.85487308204E+01  0.49016438078E+03  0.49924592962E+03  0.92516510043E+02 0.  0.
         23    2    1    2    0    0 -0.75439425268E+02  0.19105460633E+02  0.38030391592E+03  0.39950887877E+03  0.94446547003E+02 0.  0.
        -11    1    4    4    0    0 -0.55567396152E+02 -0.27940744317E+02  0.13083737745E+03  0.14486835419E+03  0.00000000000E+00 0.  1.
         11    1    4    4    0    0 -0.19872029116E+02  0.47046204949E+02  0.24946653847E+03  0.25464052458E+03  0.00000000000E+00 0. -1.
        -13    1    3    3    0    0  0.48500371101E+02 -0.30632571893E+02  0.32001418056E+03  0.32511492771E+03  0.00000000000E+00 0. -1.
         13    1    3    3    0    0 -0.29712272867E+02  0.22083841072E+02  0.17015020022E+03  0.17413100192E+03  0.00000000000E+00 0.  1.
          3    1    1    2  501    0  0.56651327034E+02 -0.10556729812E+02 -0.38151008301E+01  0.57752682998E+02  0.00000000000E+00 0. -1.
<scales pt_clust_5="13000.00000" pt_clust_6="13000.00000" pt_clust_7="13000.00000" pt_clust_8="13000.00000" pt_clust_9="13000.00000"></scales>
<clustering>
<clus scale="   92.517">  7  8 -1 -1</clus>
<clus scale="   94.447">  5  6 -1 -1</clus>
<clus scale="   57.627">  5  9 -1 -1</clus>
<clus scale="   94.791">  1  7  2 -1</clus>
<clus scale="  259.508">  2  5  1 -1</clus>
</clustering>
</event>
<event>
 9    1  0.3312826E-006  0.1621449E+03  0.7546771E-02  0.1204799E+00
          2   -1    0    0  502    0 -0.00000000000E+00  0.00000000000E+00  0.37060209495E+03  0.37060209495E+03  0.00000000000E+00 0. -1.
         21   -1    0    0  501  502  0.00000000000E+00 -0.00000000000E+00 -0.49987390711E+02  0.49987390711E+02  0.00000000000E+00 0. -1.
         23    2    1    2    0    0  0.10138904990E+02  0.55444321732E+02  0.10429459222E+03  0.15024646835E+03  0.92302595181E+02 0.  0.
         23    2    1    2    0    0 -0.83199488535E+01 -0.86179866540E+02  0.19499628556E+03  0.23289054222E+03  0.93371635551E+02 0.  0.
        -13    1    3    3    0    0 -0.29085734914E+02  0.37861774034E+01  0.23610419451E+01  0.29426002683E+02  0.00000000000E+00 0. -1.
         13    1    3    3    0    0  0.39224639904E+02  0.51658144329E+02  0.10193355028E+03  0.12082046566E+03  0.00000000000E+00 0.  1.
        -13    1    4    4    0    0 -0.40155138983E+02 -0.54955075130E+01  0.58571535252E+02  0.71226824521E+02  0.00000000000E+00 0.  1.
         13    1    4    4    0    0  0.31835190130E+02 -0.80684359027E+02  0.13642475031E+03  0.16166371770E+03  0.00000000000E+00 0. -1.
          2    1    1    2  501    0 -0.18189561362E+01  0.30735544808E+02  0.21323826452E+02  0.37452475094E+02  0.00000000000E+00 0. -1.
<scales pt_clust_5="13000.00000" pt_clust_6="13000.00000" pt_clust_7="13000.00000" pt_clust_8="13000.00000" pt_clust_9="13000.00000"></scales>
<clustering>
<clus scale="   92.303">  5  6 -1 -1</clus>
<clus scale="   93.372">  7  8 -1 -1</clus>
<clus scale="   30.789">  7  9 -1 -1</clus>
<clus scale="  108.151">  1  5  2 -1</clus>
<clus scale="  162.145">  2  5  1 -1</clus>
</clustering>
</event>
<event>
 9    1  0.3312826E-006  0.4660763E+03  0.7546771E-02  0.1065077E+00
          1   -1    0    0  502    0 -0.00000000000E+00  0.00000000000E+00  0.10268659343E+04  0.10268659343E+04  0.00000000000E+00 0. -1.
         21   -1    0    0  501  502  0.00000000000E+00 -0.00000000000E+00 -0.89146667304E+02  0.89146667304E+02  0.00000000000E+00 0. -1.
         23    2    1    2    0    0 -0.50474771093E+02 -0.89814121553E+02  0.23649889249E+03  0.27402853209E+03  0.92442583820E+02 0.  0.
         23    2    1    2    0    0 -0.79417556218E+02 -0.14152659891E+03  0.39127641532E+03  0.43399411441E+03  0.94428447627E+02 0.  0.
        -11    1    4    4    0    0 -0.87892900702E+02 -0.11031613168E+03  0.23235580269E+03  0.27181616940E+03  0.00000000000E+00 0. -1.
         11    1    4    4    0    0  0.84753444841E+01 -0.31210467225E+02  0.15892061263E+03  0.16217794501E+03  0.00000000000E+00 0.  1.
        -11    1    3    3    0    0 -0.52601534392E+02 -0.44140802945E+01  0.97675621224E+02  0.11102671979E+03  0.00000000000E+00 0.  1.
         11    1    3    3    0    0  0.21267632986E+01 -0.85400041259E+02  0.13882327127E+03  0.16300181231E+03  0.00000000000E+00 0. -1.
          1    1    1    2  501    0  0.12989232731E+03  0.23134072046E+03  0.30994395921E+03  0.40798995513E+03  0.00000000000E+00 0. -1.
<scales pt_clust_5="13000.00000" pt_clust_6="13000.00000" pt_clust_7="13000.00000" pt_clust_8="13000.00000" pt_clust_9="13000.00000"></scales>
<clustering>
<clus scale="   92.443">  7  8 -1 -1</clus>
<clus scale="   94.428">  5  6 -1 -1</clus>
<clus scale="  138.419">  1  7  2 -1</clus>
<clus scale="  217.382">  5  9 -1 -1</clus>
<clus scale="  466.076">  2  5  1 -1</clus>
</clustering>
</event>
<event>
 9    1  0.3312826E-006  0.2801743E+03  0.7546771E-02  0.1098628E+00
         21   -1    0    0  501  502  0.00000000000E+00  0.00000000000E+00  0.63268078461E+02  0.63268078461E+02  0.00000000000E+00 0.  1.
         -1   -1    0    0    0  501 -0.00000000000E+00 -0.00000000000E+00 -0.11905986095E+04  0.11905986095E+04  0.00000000000E+00 0.  1.
         23    2    1    2    0    0  0.17879085881E+03  0.15147235959E+03 -0.42380840986E+03  0.49660779351E+03  0.10998038637E+03 0.  0.
         23    2    1    2    0    0 -0.11383242482E+03 -0.67726942276E+02 -0.53230360118E+03  0.55589187964E+03  0.90132670923E+02 0.  0.
        -13    1    3    3    0    0  0.60114761592E+02  0.56425476625E+02 -0.26157990151E+03  0.27426568113E+03  0.00000000000E+00 0. -1.
         13    1    3    3    0    0  0.11867609722E+03  0.95046882964E+02 -0.16222850836E+03  0.22234211238E+03  0.00000000000E+00 0.  1.
        -13    1    4    4    0    0 -0.11138135168E+03 -0.25019555344E+02 -0.43239382639E+03  0.44720935226E+03  0.00000000000E+00 0.  1.
         13    1    4    4    0    0 -0.24510731440E+01 -0.42707386932E+02 -0.99909774791E+02  0.10868252738E+03  0.00000000000E+00 0. -1.
         -1    1    1    2    0  502 -0.64958433991E+02 -0.83745417312E+02 -0.17121852000E+03  0.20136701482E+03  0.00000000000E+00 0.  1.
<scales pt_clust_5="13000.00000" pt_clust_6="13000.00000" pt_clust_7="13000.00000" pt_clust_8="13000.00000" pt_clust_9="13000.00000"></scales>
<clustering>
<clus scale="   90.133">  7  8 -1 -1</clus>
<clus scale="  105.985">  7  9 -1 -1</clus>
<clus scale="  109.980">  5  6 -1 -1</clus>
<clus scale="  258.855">  2  5  1 -1</clus>
<clus scale="  280.174">  1  5  2 -1</clus>
</clustering>
</event>
<event>
 9    1  0.3312826E-006  0.2009358E+03  0.7546771E-02  0.1158641E+00
          1   -1    0    0  502    0 -0.00000000000E+00  0.00000000000E+00  0.74327584630E+03  0.74327584630E+03  0.00000000000E+00 0. -1.
         21   -1    0    0  501  502  0.00000000000E+00 -0.00000000000E+00 -0.45243619014E+02  0.45243619014E+02  0.00000000000E+00 0.  1.
         23    2    1    2    0    0  0.97073101987E+02 -0.87983012302E+02  0.24086955137E+03  0.28914696868E+03  0.91780341789E+02 0.  0.
         23    2    1    2    0    0 -0.12216373182E+03  0.91910646741E+02  0.38556151840E+03  0.42340084550E+03  0.85082590111E+02 0.  0.
        -11    1    4    4    0    0 -0.57381343577E+02  0.32119735522E+01  0.19668244743E+03  0.20490710211E+03  0.00000000000E+00 0.  1.
         11    1    4    4    0    0 -0.64782388246E+02  0.88698673189E+02  0.18887907096E+03  0.21849374339E+03  0.00000000000E+00 0. -1.
        -13    1    3    3    0    0  0.30168911171E+02  0.13706966635E+01  0.85266794458E+01  0.31380667185E+02  0.00000000000E+00 0.  1.
         13    1    3    3    0    0  0.66904190815E+02 -0.89353708965E+02  0.23234287192E+03  0.25776630150E+03  0.00000000000E+00 0. -1.
          1    1    1    2  501    0  0.25090629837E+02 -0.39276344395E+01  0.71601157519E+02  0.75971651134E+02  0.00000000000E+00 0. -1.
<scales pt_clust_5="13000.00000" pt_clust_6="13000.00000" pt_clust_7="13000.00000" pt_clust_8="13000.00000" pt_clust_9="13000.00000"></scales>
<clustering>
<clus scale="   85.083">  5  6 -1 -1</clus>
<clus scale="   25.396">  5  9 -1 -1</clus>
<clus scale="   91.780">  7  8 -1 -1</clus>
<clus scale="  159.962">  1  7  2 -1</clus>
<clus scale="  200.936">  2  5  1 -1</clus>
</clustering>
</event>
<event>
 9    1  0.3312826E-006  0.1626381E+03  0.7546771E-02  0.1203173E+00
         21   -1    0    0  501  502  0.00000000000E+00  0.00000000000E+00  0.61934919574E+02  0.61934919574E+02  0.00000000000E+00 0. -1.
          2   -1    0    0  502    0 -0.00000000000E+00 -0.00000000000E+00 -0.30234444233E+03  0.30234444233E+03  0.00000000000E+00 0. -1.
         23    2    1    2    0    0  0.61118244051E+02 -0.19453165962E+02 -0.10091339354E+03  0.15001242820E+03  0.90588907697E+02 0.  0.
         23    2    1    2    0    0 -0.48108003184E+01  0.36368085245E+02 -0.11313927847E+03  0.14983614684E+03  0.91129540452E+02 0.  0.
        -13    1    3    3    0    0  0.11400446614E+02 -0.50571385515E+02 -0.40256413113E+02  0.65635463072E+02  0.00000000000E+00 0.  1.
         13    1    3    3    0    0  0.49717797438E+02  0.31118219553E+02 -0.60656980429E+02  0.84376965133E+02  0.00000000000E+00 0. -1.
        -13    1    4    4    0    0 -0.26537857832E+02 -0.21835290606E+02 -0.27387750709E+02  0.43944586732E+02  0.00000000000E+00 0.  1.
         13    1    4    4    0    0  0.21727057513E+02  0.58203375851E+02 -0.85751527765E+02  0.10589156011E+03  0.00000000000E+00 0. -1.
          2    1    1    2  501    0 -0.56307443733E+02 -0.16914919283E+02 -0.26356850741E+02  0.64430786858E+02  0.00000000000E+00 0. -1.
<scales pt_clust_5="13000.00000" pt_clust_6="13000.00000" pt_clust_7="13000.00000" pt_clust_8="13000.00000" pt_clust_9="13000.00000"></scales>
<clustering>
<clus scale="   90.589">  5  6 -1 -1</clus>
<clus scale="   91.130">  7  8 -1 -1</clus>
<clus scale="   58.793">  7  9 -1 -1</clus>
<clus scale="  110.996">  2  5  1 -1</clus>
<clus scale="  162.638">  1  5  2 -1</clus>
</clustering>
</event>
<event>
 9    1  0.3312826E-006  0.2315718E+03  0.7546771E-02  0.1151844E+00
          1   -1    0    0  502    0 -0.00000000000E+00  0.00000000000E+00  0.25773842662E+03  0.25773842662E+03  0.00000000000E+00 0. -1.
         21   -1    0    0  501  502  0.00000000000E+00 -0.00000000000E+00 -0.12217936367E+03  0.12217936367E+03  0.00000000000E+00 0. -1.
         23    2    1    2    0    0 -0.37586558606E+02  0.73313253663E+02  0.58795364566E+02  0.13595437526E+03  0.90769569273E+02 0.  0.
         23    2    1    2    0    0  0.10619571688E+02  0.48054392119E+02  0.42300378608E+02  0.11494774065E+03  0.94877084411E+02 0.  0.
        -11    1    3    3    0    0  0.15245026846E+02 -0.13194038860E+02  0.34170505628E+01  0.20449198995E+02  0.00000000000E+00 0.  1.
         11    1    3    3    0    0 -0.52831585452E+02  0.86507292523E+02  0.55378314004E+02  0.11550517626E+03  0.00000000000E+00 0. -1.
        -11    1    4    4    0    0 -0.31640495399E+02 -0.10762070037E+02  0.60728307577E+01  0.33967960993E+02  0.00000000000E+00 0.  1.
         11    1    4    4    0    0  0.42260067088E+02  0.58816462155E+02  0.36227547850E+02  0.80979779661E+02  0.00000000000E+00 0. -1.
          1    1    1    2  501    0  0.26966986918E+02 -0.12136764578E+03  0.34463319769E+02  0.12901567438E+03  0.00000000000E+00 0. -1.
<scales pt_clust_5="13000.00000" pt_clust_6="13000.00000" pt_clust_7="13000.00000" pt_clust_8="13000.00000" pt_clust_9="13000.00000"></scales>
<clustering>
<clus scale="   90.770">  5  6 -1 -1</clus>
<clus scale="   94.877">  7  8 -1 -1</clus>
<clus scale="  122.583">  1  5  2 -1</clus>
<clus scale="   84.361">  7  9 -1 -1</clus>
<clus scale="  231.572">  2  5  1 -1</clus>
</clustering>
</event>
<event>
 9    1  0.3312826E-006  0.1385797E+03  0.7546771E-02  0.1226518E+00
          1   -1    0    0  502    0 -0.00000000000E+00  0.00000000000E+00  0.66031203575E+03  0.66031203575E+03  0.00000000000E+00 0. -1.
         21   -1    0    0  501  502  0.00000000000E+00 -0.00000000000E+00 -0.23323814536E+02  0.23323814536E+02  0.00000000000E+00 0. -1.
         23    2    1    2    0    0 -0.45541417364E+02  0.41525984678E+02  0.29454458950E+03  0.31421472655E+03  0.90420965940E+02 0.  0.
         23    2    1    2    0    0  0.46477550355E+01 -0.21935024894E+02  0.25218636942E+03  0.26841384320E+03  0.89136296507E+02 0.  0.
        -13    1    4    4    0    0 -0.10012060133E+01 -0.49592397480E+02  0.22035499622E+03  0.22586883951E+03  0.00000000000E+00 0.  1.
         13    1    4    4    0    0  0.56489610487E+01  0.27657372585E+02  0.31831373202E+02  0.42545003692E+02  0.00000000000E+00 0. -1.
        -13    1    3    3    0    0  0.20889631465E+02  0.37180207497E+02  0.10569075058E+03  0.11397051939E+03  0.00000000000E+00 0.  1.
         13    1    3    3    0    0 -0.66431048829E+02  0.43457771818E+01  0.18885383892E+03  0.20024420716E+03  0.00000000000E+00 0. -1.
          1    1    1    2  501    0  0.40893662329E+02 -0.19590959784E+02  0.90257262292E+02  0.10100728053E+03  0.00000000000E+00 0. -1.
<scales pt_clust_5="13000.00000" pt_clust_6="13000.00000" pt_clust_7="13000.00000" pt_clust_8="13000.00000" pt_clust_9="13000.00000"></scales>
<clustering>
<clus scale="   89.136">  5  6 -1 -1</clus>
<clus scale="   45.344">  5  9 -1 -1</clus>
<clus scale="   90.421">  7  8 -1 -1</clus>
<clus scale="  109.428">  1  7  2 -1</clus>
<clus scale="  138.580">  2  5  1 -1</clus>
</clustering>
</event>
<event>
 9    1  0.3312826E-006  0.1553320E+03  0.7546771E-02  0.1218707E+00
         -1   -1    0    0    0  501 -0.00000000000E+00  0.00000000000E+00  0.12211830283E+03  0.12211830283E+03  0.00000000000E+00 0.  1.
         21   -1    0    0  501  502  0.00000000000E+00 -0.00000000000E+00 -0.15295534723E+03  0.15295534723E+03  0.00000000000E+00 0. -1.
         23    2    1    2    0    0  0.23232941711E+02  0.16164163883E+02  0.45297806541E+02  0.10208648727E+03  0.86998332350E+02 0.  0.
         23    2    1    2    0    0 -0.18422297560E+02 -0.56864414397E+02 -0.45392004727E+02  0.12175460203E+03  0.95868693272E+02 0.  0.
        -11    1    3    3    0    0  0.39153608954E+02  0.43782053634E+02  0.22511176734E+02  0.62901720108E+02  0.00000000000E+00 0.  1.
         11    1    3    3    0    0 -0.15920667243E+02 -0.27617889751E+02  0.22786629807E+02  0.39184767165E+02  0.00000000000E+00 0. -1.
        -13    1    4    4    0    0 -0.42647606879E+02 -0.46879857311E+02 -0.63647870079E+02  0.89819768201E+02  0.00000000000E+00 0. -1.
         13    1    4    4    0    0  0.24225309319E+02 -0.99845570854E+01  0.18255865352E+02  0.31934833827E+02  0.00000000000E+00 0.  1.
         -1    1    1    2    0  502 -0.48106441510E+01  0.40700250514E+02 -0.30742846209E+02  0.51232560760E+02  0.00000000000E+00 0.  1.
<scales pt_clust_5="13000.00000" pt_clust_6="13000.00000" pt_clust_7="13000.00000" pt_clust_8="13000.00000" pt_clust_9="13000.00000"></scales>
<clustering>
<clus scale="   86.998">  5  6 -1 -1</clus>
<clus scale="   91.486">  1  5  2 -1</clus>
<clus scale="   95.869">  7  8 -1 -1</clus>
<clus scale="   44.120">  7  9 -1 -1</clus>
<clus scale="  155.332">  2  5  1 -1</clus>
</clustering>
</event>
<event>
 9    1  0.3312826E-006  0.4054790E+03  0.7546771E-02  0.1057518E+00
         21   -1    0    0  501  502  0.00000000000E+00  0.00000000000E+00  0.44377717581E+03  0.44377717581E+03  0.00000000000E+00 0. -1.
          2   -1    0    0  502    0 -0.00000000000E+00 -0.00000000000E+00 -0.24921058797E+03  0.24921058797E+03  0.00000000000E+00 0. -1.
         23    2    1    2    0    0 -0.18207578886E+03  0.15902455925E+03  0.72654300359E+02  0.26957796161E+03  0.94621491683E+02 0.  0.
         23    2    1    2    0    0  0.18027687253E+03 -0.23044562005E+03  0.31519602639E+02  0.30819243587E+03  0.91565045763E+02 0.  0.
        -11    1    4    4    0    0  0.17052842835E+03 -0.15700450731E+03  0.32728859683E+02  0.23409728415E+03  0.00000000000E+00 0. -1.
         11    1    4    4    0    0  0.97484441737E+01 -0.73441112744E+02 -0.12092570435E+01  0.74095151714E+02  0.00000000000E+00 0.  1.
        -13    1    3    3    0    0 -0.18906155203E+03  0.13196313250E+03  0.56835736657E+02  0.23746334403E+03  0.00000000000E+00 0. -1.
         13    1    3    3    0    0  0.69857631644E+01  0.27061426753E+02  0.15818563702E+02  0.32114617583E+02  0.00000000000E+00 0.  1.
          2    1    1    2  501    0  0.17989163372E+01  0.71421060798E+02  0.90392684837E+02  0.11521736630E+03  0.00000000000E+00 0. -1.
<scales pt_clust_5="13000.00000" pt_clust_6="13000.00000" pt_clust_7="13000.00000" pt_clust_8="13000.00000" pt_clust_9="13000.00000"></scales>
<clustering>
<clus scale="   91.565">  5  6 -1 -1</clus>
<clus scale="   71.444">  5  9 -1 -1</clus>
<clus scale="   94.621">  7  8 -1 -1</clus>
<clus scale="  259.603">  2  7  1 -1</clus>
<clus scale="  405.479">  1  5  2 -1</clus>
</clustering>
</event>
<event>
 9    1  0.3312826E-006  0.4616935E+03  0.7546771E-02  0.1077585E+00
          1   -1    0    0  502    0 -0.00000000000E+00  0.00000000000E+00  0.40895638808E+03  0.40895638808E+03  0.00000000000E+00 0. -1.
         21   -1    0    0  501  502  0.00000000000E+00 -0.00000000000E+00 -0.20461422755E+03  0.20461422755E+03  0.00000000000E+00 0. -1.
         23    2    1    2    0    0 -0.39395453434E+02  0.15652058854E+02  0.95822505993E+02  0.13929495867E+03  0.91783136563E+02 0.  0.
         23    2    1    2    0    0  0.21020812987E+03 -0.12259848297E+03  0.71397695019E+02  0.26935482361E+03  0.90755408984E+02 0.  0.
        -13    1    3    3    0    0 -0.28963184253E+02 -0.13210098677E+02 -0.64816951391E+01  0.32486691444E+02  0.00000000000E+00 0. -1.
         13    1    3    3    0    0 -0.10432269182E+02  0.28862157531E+02  0.10230420113E+03  0.10680826722E+03  0.00000000000E+00 0.  1.
        -13    1    4    4    0    0  0.53944567883E+02  0.87653520668E+01  0.24504657302E+02  0.59894290466E+02  0.00000000000E+00 0.  1.
         13    1    4    4    0    0  0.15626356199E+03 -0.13136383503E+03  0.46893037718E+02  0.20946053315E+03  0.00000000000E+00 0. -1.
          1    1    1    2  501    0 -0.17081267644E+03  0.10694642411E+03  0.37121959520E+02  0.20492083335E+03  0.00000000000E+00 0. -1.
<scales pt_clust_5="13000.00000" pt_clust_6="13000.00000" pt_clust_7="13000.00000" pt_clust_8="13000.00000" pt_clust_9="13000.00000"></scales>
<clustering>
<clus scale="   90.755">  7  8 -1 -1</clus>
<clus scale="   91.783">  5  6 -1 -1</clus>
<clus scale="  101.100">  1  5  2 -1</clus>
<clus scale="  218.871">  7  9 -1 -1</clus>
<clus scale="  461.693">  2  5  1 -1</clus>
</clustering>
</event>
<event>
 9    1  0.3312826E-006  0.1778558E+03  0.7546771E-02  0.1197832E+00
          1   -1    0    0  502    0 -0.00000000000E+00  0.00000000000E+00  0.19525376829E+03  0.19525376829E+03  0.00000000000E+00 0. -1.
         21   -1    0    0  501  502  0.00000000000E+00 -0.00000000000E+00 -0.11154192351E+03  0.11154192351E+03  0.00000000000E+00 0.  1.
         23    2    1    2    0    0 -0.38531743545E+02 -0.23905493574E+02 -0.24765284842E+02  0.98469130421E+02  0.83825309000E+02 0.  0.
         23    2    1    2    0    0  0.16616301603E+02 -0.42151407742E+02  0.89542576733E+02  0.13619946453E+03  0.92084626488E+02 0.  0.
        -11    1    4    4    0    0  0.35198912493E+02 -0.52231913422E+02  0.95350605795E+02  0.11427543151E+03  0.00000000000E+00 0.  1.
         11    1    4    4    0    0 -0.18582610890E+02  0.10080505680E+02 -0.58080290615E+01  0.21924033020E+02  0.00000000000E+00 0. -1.
        -13    1    3    3    0    0 -0.32542166799E+02  0.20649094766E+02  0.12031007740E+02  0.40374780270E+02  0.00000000000E+00 0. -1.
         13    1    3    3    0    0 -0.59895767461E+01 -0.44554588340E+02 -0.36796292581E+02  0.58094350151E+02  0.00000000000E+00 0.  1.
          1    1    1    2  501    0  0.21915441942E+02  0.66056901317E+02  0.18934552894E+02  0.72127096853E+02  0.00000000000E+00 0. -1.
<scales pt_clust_5="13000.00000" pt_clust_6="13000.00000" pt_clust_7="13000.00000" pt_clust_8="13000.00000" pt_clust_9="13000.00000"></scales>
<clustering>
<clus scale="   83.825">  7  8 -1 -1</clus>
<clus scale="   92.085">  5  6 -1 -1</clus>
<clus scale="   69.597">  5  9 -1 -1</clus>
<clus scale="   95.304">  1  7  2 -1</clus>
<clus scale="  177.856">  2  5  1 -1</clus>
</clustering>
</event>
<event>
 9    1  0.3312826E-006  0.3752692E+03  0.7546771E-02  0.1091635E+00
         21   -1    0    0  501  502  0.00000000000E+00  0.00000000000E+00  0.19720520324E+03  0.19720520324E+03  0.00000000000E+00 0. -1.
         -1   -1    0    0    0  501 -0.00000000000E+00 -0.00000000000E+00 -0.34844512776E+03  0.34844512776E+03  0.00000000000E+00 0.  1.
         23    2    1    2    0    0  0.62563501260E+02  0.68340630236E+02  0.23841670081E+02  0.13154828933E+03  0.90287838401E+02 0.  0.
         23    2    1    2    0    0 -0.14790292810E+03  0.14291322899E+02 -0.22541721147E+03  0.28508835333E+03  0.91558352561E+02 0.  0.
        -11    1    3    3    0    0  0.81591024904E+02  0.42686160942E+02  0.66510301893E+00  0.92084993581E+02  0.00000000000E+00 0.  1.
         11    1    3    3    0    0 -0.19027523644E+02  0.25654469295E+02  0.23176567062E+02  0.39463295752E+02  0.00000000000E+00 0. -1.
        -13    1    4    4    0    0 -0.11801469044E+03  0.49253783021E+02 -0.17630762035E+03  0.21780215632E+03  0.00000000000E+00 0. -1.
         13    1    4    4    0    0 -0.29888237662E+02 -0.34962460122E+02 -0.49109591120E+02  0.67286197012E+02  0.00000000000E+00 0.  1.
         -1    1    1    2    0  502  0.85339426841E+02 -0.82631953136E+02  0.50335616867E+02  0.12901368834E+03  0.00000000000E+00 0.  1.
<scales pt_clust_5="13000.00000" pt_clust_6="13000.00000" pt_clust_7="13000.00000" pt_clust_8="13000.00000" pt_clust_9="13000.00000"></scales>
<clustering>
<clus scale="   90.288">  5  6 -1 -1</clus>
<clus scale="   91.558">  7  8 -1 -1</clus>
<clus scale="  118.789">  7  9 -1 -1</clus>
<clus scale="  129.370">  2  5  1 -1</clus>
<clus scale="  375.269">  1  5  2 -1</clus>
</clustering>
</event>
<event>
 9    1  0.3312826E-006  0.1840089E+03  0.7546771E-02  0.1195497E+00
         21   -1    0    0  501  502  0.00000000000E+00  0.00000000000E+00  0.90841284870E+02  0.90841284870E+02  0.00000000000E+00 0.  1.
          1   -1    0    0  502    0 -0.00000000000E+00 -0.00000000000E+00 -0.29335902321E+03  0.29335902321E+03  0.00000000000E+00 0. -1.
         23    2    1    2    0    0  0.56686595536E+01 -0.15319684784E+02 -0.17647810528E+03  0.19835808998E+03  0.89076280644E+02 0.  0.
         23    2    1    2    0    0  0.55823469761E+02 -0.26915517778E+02 -0.21695385984E+02  0.11111627357E+03  0.89640568971E+02 0.  0.
        -13    1    4    4    0    0  0.14740495368E+02 -0.54210714731E+02 -0.25398572575E+02  0.61653639667E+02  0.00000000000E+00 0. -1.
         13    1    4    4    0    0  0.41082974393E+02  0.27295196953E+02  0.37031865908E+01  0.49462633903E+02  0.00000000000E+00 0.  1.
        -13    1    3    3    0    0 -0.27863554058E+02 -0.22334719334E+02 -0.26372679023E+02  0.44392967137E+02  0.00000000000E+00 0.  1.
         13    1    3    3    0    0  0.33532213611E+02  0.70150345496E+01 -0.15010542626E+03  0.15396512284E+03  0.00000000000E+00 0. -1.
          1    1    1    2  501    0 -0.61492129315E+02  0.42235202562E+02 -0.43442470726E+01  0.74725944529E+02  0.00000000000E+00 0. -1.
<scales pt_clust_5="13000.00000" pt_clust_6="13000.00000" pt_clust_7="13000.00000" pt_clust_8="13000.00000" pt_clust_9="13000.00000"></scales>
<clustering>
<clus scale="   89.076">  7  8 -1 -1</clus>
<clus scale="   89.641">  5  6 -1 -1</clus>
<clus scale="   74.600">  5  9 -1 -1</clus>
<clus scale="   90.562">  2  7  1 -1</clus>
<clus scale="  184.009">  1  5  2 -1</clus>
</clustering>
</event>
<event>
 9    1  0.3312826E-006  0.2263041E+03  0.7546771E-02  0.1151951E+00
         21   -1    0    0  501  502  0.00000000000E+00  0.00000000000E+00  0.15582476782E+03  0.15582476782E+03  0.00000000000E+00 0. -1.
          1   -1    0    0  502    0 -0.00000000000E+00 -0.00000000000E+00 -0.22890051975E+03  0.22890051975E+03  0.00000000000E+00 0. -1.
         23    2    1    2    0    0  0.94099061501E+02 -0.13855838031E+02 -0.88168652370E+02  0.15791843221E+03  0.90099402602E+02 0.  0.
         23    2    1    2    0    0 -0.52738722916E+02 -0.70750312540E+02 -0.12848931877E+02  0.12857435403E+03  0.92624455979E+02 0.  0.
        -13    1    3    3    0    0  0.92921241584E+01  0.29107406659E+02 -0.42778618873E+02  0.52569905140E+02  0.00000000000E+00 0.  1.
         13    1    3    3    0    0  0.84806937343E+02 -0.42963244690E+02 -0.45390033497E+02  0.10534852707E+03  0.00000000000E+00 0. -1.
        -13    1    4    4    0    0  0.21606688414E+02 -0.31030125939E+02  0.13675637267E+02  0.40208714909E+02  0.00000000000E+00 0.  1.
         13    1    4    4    0    0 -0.74345411331E+02 -0.39720186601E+02 -0.26524569143E+02  0.88365639124E+02  0.00000000000E+00 0. -1.
          1    1    1    2  501    0 -0.41360338585E+02  0.84606150571E+02  0.27941832320E+02  0.98232501321E+02  0.00000000000E+00 0. -1.
<scales pt_clust_5="13000.00000" pt_clust_6="13000.00000" pt_clust_7="13000.00000" pt_clust_8="13000.00000" pt_clust_9="13000.00000"></scales>
<clustering>
<clus scale="   90.099">  5  6 -1 -1</clus>
<clus scale="   92.624">  7  8 -1 -1</clus>
<clus scale="   94.175">  7  9 -1 -1</clus>
<clus scale="  131.013">  2  5  1 -1</clus>
<clus scale="  226.304">  1  5  2 -1</clus>
</clustering>
</event>
<event>
 9    1  0.3312826E-006  0.2218232E+03  0.7546771E-02  0.1150506E+00
         21   -1    0    0  501  502  0.00000000000E+00  0.00000000000E+00  0.42030041237E+03  0.42030041237E+03  0.00000000000E+00 0.  1.
         -1   -1    0    0    0  501 -0.00000000000E+00 -0.00000000000E+00 -0.81820443240E+02  0.81820443240E+02  0.00000000000E+00 0.  1.
         23    2    1    2    0    0  0.69226375713E+02 -0.85615963709E+02  0.17481667608E+03  0.22645583863E+03  0.92730751539E+02 0.  0.
         23    2    1    2    0    0 -0.99175041633E+02  0.10607585435E+03  0.89130548037E+02  0.19277557377E+03  0.90168683522E+02 0.  0.
        -11    1    3    3    0    0  0.58934676828E+02 -0.26452092012E+01  0.57368182059E+02  0.82288526402E+02  0.00000000000E+00 0. -1.
         11    1    3    3    0    0  0.10291698884E+02 -0.82970754507E+02  0.11744849402E+03  0.14416731223E+03  0.00000000000E+00 0.  1.
        -11    1    4    4    0    0 -0.14271808499E+02  0.47951568073E+02  0.73189132052E+02  0.88654872675E+02  0.00000000000E+00 0. -1.
         11    1    4    4    0    0 -0.84903233134E+02  0.58124286281E+02  0.15941415985E+02  0.10412070109E+03  0.00000000000E+00 0.  1.
         -1    1    1    2    0  502  0.29948665920E+02 -0.20459890645E+02  0.74532745015E+02  0.82889443206E+02  0.00000000000E+00 0.  1.
<scales pt_clust_5="13000.00000" pt_clust_6="13000.00000" pt_clust_7="13000.00000" pt_clust_8="13000.00000" pt_clust_9="13000.00000"></scales>
<clustering>
<clus scale="   90.169">  7  8 -1 -1</clus>
<clus scale="   36.270">  7  9 -1 -1</clus>
<clus scale="   92.731">  5  6 -1 -1</clus>
<clus scale="  143.949">  2  5  1 -1</clus>
<clus scale="  221.823">  1  5  2 -1</clus>
</clustering>
</event>
<event>
 9    1  0.3312826E-006  0.2362466E+03  0.7546771E-02  0.1129247E+00
         21   -1    0    0  501  502  0.00000000000E+00  0.00000000000E+00  0.10932377987E+03  0.10932377987E+03  0.00000000000E+00 0.  1.
         -1   -1    0    0    0  501 -0.00000000000E+00 -0.00000000000E+00 -0.46591513630E+03  0.46591513630E+03  0.00000000000E+00 0.  1.
         23    2    1    2    0    0 -0.16379769742E+03 -0.65960336785E+02 -0.24001442830E+03  0.31179509363E+03  0.91808512202E+02 0.  0.
         23    2    1    2    0    0  0.11799997800E+03  0.89679235422E+02 -0.12759124801E+03  0.21070548261E+03  0.78427761408E+02 0.  0.
        -11    1    4    4    0    0  0.12659216287E+03  0.68219524698E+02 -0.10253580773E+03  0.17661560269E+03  0.00000000000E+00 0. -1.
         11    1    4    4    0    0 -0.85921848611E+01  0.21459710724E+02 -0.25055440285E+02  0.34089879919E+02  0.00000000000E+00 0.  1.
        -13    1    3    3    0    0 -0.23274641743E+02 -0.41636232392E+02 -0.10536953508E+03  0.11566340700E+03  0.00000000000E+00 0.  1.
         13    1    3    3    0    0 -0.14052305567E+03 -0.24324104392E+02 -0.13464489322E+03  0.19613168663E+03  0.00000000000E+00 0. -1.
         -1    1    1    2    0  502  0.45797719412E+02 -0.23718898637E+02  0.11014319885E+02  0.52738339929E+02  0.00000000000E+00 0.  1.
<scales pt_clust_5="13000.00000" pt_clust_6="13000.00000" pt_clust_7="13000.00000" pt_clust_8="13000.00000" pt_clust_9="13000.00000"></scales>
<clustering>
<clus scale="   78.428">  5  6 -1 -1</clus>
<clus scale="   51.575">  5  9 -1 -1</clus>
<clus scale="   91.809">  7  8 -1 -1</clus>
<clus scale="  199.021">  2  7  1 -1</clus>
<clus scale="  236.247">  1  5  2 -1</clus>
</clustering>
</event>
<event>
 9    1  0.3312826E-006  0.2878198E+03  0.7546771E-02  0.1134641E+00
          1   -1    0    0  502    0 -0.00000000000E+00  0.00000000000E+00  0.30391584653E+03  0.30391584653E+03  0.00000000000E+00 0. -1.
         21   -1    0    0  501  502  0.00000000000E+00 -0.00000000000E+00 -0.12189484197E+03  0.12189484197E+03  0.00000000000E+00 0. -1.
         23    2    1    2    0    0  0.36088286806E+02 -0.11841336726E+02  0.34911639046E+02  0.10257489105E+03  0.88657791717E+02 0.  0.
         23    2    1    2    0    0  0.20327911850E+02 -0.77974832612E+01  0.21364206890E+03  0.23382063465E+03  0.92493950275E+02 0.  0.
        -11    1    3    3    0    0 -0.28095437288E+02  0.53620557946E+01  0.26996738359E+01  0.28729661982E+02  0.00000000000E+00 0.  1.
         11    1    3    3    0    0  0.64183724094E+02 -0.17203392520E+02  0.32211965210E+02  0.73845229064E+02  0.00000000000E+00 0. -1.
        -13    1    4    4    0    0  0.20150809702E+01 -0.43036963404E+02  0.16744867254E+03  0.17290256998E+03  0.00000000000E+00 0.  1.
         13    1    4    4    0    0  0.18312830880E+02  0.35239480142E+02  0.46193396363E+02  0.60918064670E+02  0.00000000000E+00 0. -1.
          1    1    1    2  501    0 -0.56416198656E+02  0.19638819987E+02 -0.66532703384E+02  0.89415162813E+02  0.00000000000E+00 0. -1.
<scales pt_clust_5="13000.00000" pt_clust_6="13000.00000" pt_clust_7="13000.00000" pt_clust_8="13000.00000" pt_clust_9="13000.00000"></scales>
<clustering>
<clus scale="   88.658">  5  6 -1 -1</clus>
<clus scale="   92.494">  7  8 -1 -1</clus>
<clus scale="   59.737">  7  9 -1 -1</clus>
<clus scale="   96.451">  1  5  2 -1</clus>
<clus scale="  287.820">  2  5  1 -1</clus>
</clustering>
</event>
<event>
 9    1  0.3312826E-006  0.2578442E+03  0.7546771E-02  0.1121461E+00
          1   -1    0    0  502    0 -0.00000000000E+00  0.00000000000E+00  0.53933863878E+03  0.53933863878E+03  0.00000000000E+00 0. -1.
         21   -1    0    0  501  502  0.00000000000E+00 -0.00000000000E+00 -0.15847591191E+03  0.15847591191E+03  0.00000000000E+00 0. -1.
         23    2    1    2    0    0 -0.51340861809E+02  0.15318805974E+03  0.39824139197E+03  0.43938536416E+03  0.91437553670E+02 0.  0.
         23    2    1    2    0    0  0.39804754984E+02 -0.98307973911E+02 -0.90046398952E+02  0.16663863624E+03  0.91712621103E+02 0.  0.
        -11    1    4    4    0    0  0.67834034071E+02 -0.85907247713E+02 -0.67651867747E+02  0.12867900605E+03  0.00000000000E+00 0. -1.
         11    1    4    4    0    0 -0.28029279087E+02 -0.12400726199E+02 -0.22394531205E+02  0.37959630191E+02  0.00000000000E+00 0.  1.
        -13    1    3    3    0    0 -0.54033719769E+02  0.30053031389E+02  0.15089149510E+03  0.16306768798E+03  0.00000000000E+00 0.  1.
         13    1    3    3    0    0  0.26928579606E+01  0.12313502835E+03  0.24734989687E+03  0.27631767618E+03  0.00000000000E+00 0. -1.
          1    1    1    2  501    0  0.11536106825E+02 -0.54880085824E+02  0.72667733847E+02  0.91790550293E+02  0.00000000000E+00 0. -1.
<scales pt_clust_5="13000.00000" pt_clust_6="13000.00000" pt_clust_7="13000.00000" pt_clust_8="13000.00000" pt_clust_9="13000.00000"></scales>
<clustering>
<clus scale="   91.438">  7  8 -1 -1</clus>
<clus scale="   91.713">  5  6 -1 -1</clus>
<clus scale="   56.079">  5  9 -1 -1</clus>
<clus scale="  185.643">  1  7  2 -1</clus>
<clus scale="  257.844">  2  5  1 -1</clus>
</clustering>
</event>
<event>
 9    1  0.3312826E-006  0.3776939E+03  0.7546771E-02  0.1102138E+00
         21   -1    0    0  501  502  0.00000000000E+00  0.00000000000E+00  0.24310799379E+03  0.24310799379E+03  0.00000000000E+00 0.  1.
         -1   -1    0    0    0  501 -0.00000000000E+00 -0.00000000000E+00 -0.25082463798E+03  0.25082463798E+03  0.00000000000E+00 0.  1.
         23    2    1    2    0    0 -0.14429298668E+02  0.29627797041E+02 -0.58526532069E+02  0.11283636569E+03  0.90667962638E+02 0.  0.
         23    2    1    2    0    0  0.14985890176E+03 -0.93663064446E+02 -0.44200842335E+02  0.20370198285E+03  0.91160974513E+02 0.  0.
        -13    1    3    3    0    0  0.36956836280E+02  0.35075046032E+01 -0.33465512519E+02  0.49980504845E+02  0.00000000000E+00 0.  1.
         13    1    3    3    0    0 -0.51386134948E+02  0.26120292438E+02 -0.25061019549E+02  0.62855860846E+02  0.00000000000E+00 0. -1.
        -13    1    4    4    0    0  0.13323218192E+03 -0.38289544908E+02 -0.45411016282E+02  0.14587345183E+03  0.00000000000E+00 0.  1.
         13    1    4    4    0    0  0.16626719840E+02 -0.55373519538E+02  0.12101739464E+01  0.57828531018E+02  0.00000000000E+00 0. -1.
         -1    1    1    2    0  502 -0.13542960310E+03  0.64035267405E+02  0.95010730214E+02  0.17739428323E+03  0.00000000000E+00 0.  1.
<scales pt_clust_5="13000.00000" pt_clust_6="13000.00000" pt_clust_7="13000.00000" pt_clust_8="13000.00000" pt_clust_9="13000.00000"></scales>
<clustering>
<clus scale="   90.668">  5  6 -1 -1</clus>
<clus scale="   91.161">  7  8 -1 -1</clus>
<clus scale="   96.471">  2  5  1 -1</clus>
<clus scale="  156.303">  7  9 -1 -1</clus>
<clus scale="  377.694">  1  5  2 -1</clus>
</clustering>
</event>
<event>
 9    1  0.3312826E-006  0.1628456E+03  0.7546771E-02  0.1206231E+00
         21   -1    0    0  501  502  0.00000000000E+00  0.00000000000E+00  0.32742277592E+02  0.32742277592E+02  0.00000000000E+00 0. -1.
          2   -1    0    0  502    0 -0.00000000000E+00 -0.00000000000E+00 -0.54339073278E+03  0.54339073278E+03  0.00000000000E+00 0. -1.
         23    2    1    2    0    0  0.14206456332E+02  0.32758484727E+02 -0.21409483332E+03  0.23780960284E+03  0.97169274090E+02 0.  0.
         23    2    1    2    0    0 -0.21447317859E+02 -0.62443203231E+02 -0.28413296183E+03  0.30534029997E+03  0.90233129804E+02 0.  0.
        -11    1    4    4    0    0  0.34023083009E+02 -0.36873335059E+02 -0.14341729215E+03  0.15193989833E+03  0.00000000000E+00 0.  1.
         11    1    4    4    0    0 -0.55470400868E+02 -0.25569868172E+02 -0.14071566968E+03  0.15340040164E+03  0.00000000000E+00 0. -1.
        -11    1    3    3    0    0 -0.38489256310E+02 -0.28656514021E+01 -0.63155407075E+02  0.74015135290E+02  0.00000000000E+00 0.  1.
         11    1    3    3    0    0  0.52695712643E+02  0.35624136129E+02 -0.15093942625E+03  0.16379446755E+03  0.00000000000E+00 0. -1.
          2    1    1    2  501    0  0.72408615265E+01  0.29684718504E+02 -0.12420660035E+02  0.32983107556E+02  0.00000000000E+00 0. -1.
<scales pt_clust_5="13000.00000" pt_clust_6="13000.00000" pt_clust_7="13000.00000" pt_clust_8="13000.00000" pt_clust_9="13000.00000"></scales>
<clustering>
<clus scale="   90.233">  5  6 -1 -1</clus>
<clus scale="   30.555">  5  9 -1 -1</clus>
<clus scale="   97.169">  7  8 -1 -1</clus>
<clus scale="  103.522">  2  7  1 -1</clus>
<clus scale="  162.846">  1  5  2 -1</clus>
</clustering>
</event>
<event>
 9    1  0.3312826E-006  0.2362262E+03  0.7546771E-02  0.1161739E+00
         -1   -1    0    0    0  501 -0.00000000000E+00  0.00000000000E+00  0.49389314138E+03  0.49389314138E+03  0.00000000000E+00 0.  1.
         21   -1    0    0  501  502  0.00000000000E+00 -0.00000000000E+00 -0.21131834333E+03  0.21131834333E+03  0.00000000000E+00 0.  1.
         23    2    1    2    0    0 -0.24618564061E+02 -0.91814108007E+01  0.42138125868E+03  0.43122236524E+03  0.87750732867E+02 0.  0.
         23    2    1    2    0    0 -0.74071046452E+01 -0.78940669664E+02 -0.22080595379E+02  0.12426914038E+03  0.93106240563E+02 0.  0.
        -11    1    4    4    0    0  0.32683513705E+02 -0.35872375138E+02  0.19415674679E+02  0.52268611895E+02  0.00000000000E+00 0.  1.
         11    1    4    4    0    0 -0.40090618351E+02 -0.43068294526E+02 -0.41496270059E+02  0.72000528483E+02  0.00000000000E+00 0. -1.
        -11    1    3    3    0    0 -0.58638462821E+01 -0.48056135853E+02  0.22780769253E+03  0.23289508724E+03  0.00000000000E+00 0.  1.
         11    1    3    3    0    0 -0.18754717779E+02  0.38874725052E+02  0.19357356615E+03  0.19832727800E+03  0.00000000000E+00 0. -1.
         -1    1    1    2    0  502  0.32025668706E+02  0.88122080464E+02 -0.11672586524E+03  0.14971997909E+03  0.00000000000E+00 0.  1.
<scales pt_clust_5="13000.00000" pt_clust_6="13000.00000" pt_clust_7="13000.00000" pt_clust_8="13000.00000" pt_clust_9="13000.00000"></scales>
<clustering>
<clus scale="   87.751">  7  8 -1 -1</clus>
<clus scale="   91.600">  1  7  2 -1</clus>
<clus scale="   93.106">  5  6 -1 -1</clus>
<clus scale="   89.736">  5  9 -1 -1</clus>
<clus scale="  236.226">  2  5  1 -1</clus>
</clustering>
</event>
<event>
 9    1  0.3312826E-006  0.3594994E+03  0.7546771E-02  0.1109537E+00
          1   -1    0    0  502    0 -0.00000000000E+00  0.00000000000E+00  0.76538413537E+03  0.76538413537E+03  0.00000000000E+00 0. -1.
         21   -1    0    0  501  502  0.00000000000E+00 -0.00000000000E+00 -0.69311739279E+02  0.69311739279E+02  0.00000000000E+00 0. -1.
         23    2    1    2    0    0  0.10821214111E+02  0.14381683978E+00  0.21563929291E+03  0.23464938398E+03  0.91885305656E+02 0.  0.
         23    2    1    2    0    0 -0.29553920510E+02  0.16064739652E+03  0.32952019642E+03  0.37873351318E+03  0.90412907986E+02 0.  0.
        -13    1    4    4    0    0 -0.20822903920E+02 -0.19996479338E+01  0.19841722468E+02  0.28832028545E+02  0.00000000000E+00 0.  1.
         13    1    4    4    0    0 -0.87310165900E+01  0.16264704445E+03  0.30967847395E+03  0.34990148463E+03  0.00000000000E+00 0. -1.
        -13    1    3    3    0    0  0.43662232975E+02 -0.19576470865E+02  0.16070725337E+03  0.16767960545E+03  0.00000000000E+00 0.  1.
         13    1    3    3    0    0 -0.32841018864E+02  0.19720287704E+02  0.54932039545E+02  0.66969778525E+02  0.00000000000E+00 0. -1.
          1    1    1    2  501    0  0.18732706400E+02 -0.16079121335E+03  0.15091290676E+03  0.22131297750E+03  0.00000000000E+00 0. -1.
<scales pt_clust_5="13000.00000" pt_clust_6="13000.00000" pt_clust_7="13000.00000" pt_clust_8="13000.00000" pt_clust_9="13000.00000"></scales>
<clustering>
<clus scale="   90.413">  5  6 -1 -1</clus>
<clus scale="   91.885">  7  8 -1 -1</clus>
<clus scale="   92.520">  1  7  2 -1</clus>
<clus scale="  162.303">  5  9 -1 -1</clus>
<clus scale="  359.499">  2  5  1 -1</clus>
</clustering>
</event>
<event>
 9    1  0.3312826E-006  0.2268358E+03  0.7546771E-02  0.1150999E+00
          1   -1    0    0  502    0 -0.00000000000E+00  0.00000000000E+00  0.10015385258E+04  0.10015385258E+04  0.00000000000E+00 0. -1.
         21   -1    0    0  501  502  0.00000000000E+00 -0.00000000000E+00 -0.35649836741E+02  0.35649836741E+02  0.00000000000E+00 0.  1.
         23    2    1    2    0    0 -0.36162461024E+02 -0.94295187977E+02  0.52210412730E+03  0.53879170410E+03  0.86628370608E+02 0.  0.
         23    2    1    2    0    0  0.94785282844E+02  0.79138664850E+02  0.38231539207E+03  0.41211332140E+03  0.91788629700E+02 0.  0.
        -11    1    3    3    0    0 -0.27187250255E+02 -0.25734503196E+01  0.43252729494E+02  0.51152398103E+02  0.00000000000E+00 0.  1.
         11    1    3    3    0    0 -0.89752107689E+01 -0.91721737658E+02  0.47885139781E+03  0.48763930599E+03  0.00000000000E+00 0. -1.
        -11    1    4    4    0    0  0.52590439618E+02 -0.18201603008E+01  0.21674235077E+03  0.22303881712E+03  0.00000000000E+00 0. -1.
         11    1    4    4    0    0  0.42194843226E+02  0.80958825151E+02  0.16557304130E+03  0.18907450428E+03  0.00000000000E+00 0.  1.
          1    1    1    2  501    0 -0.58622821821E+02  0.15156523128E+02  0.61469169722E+02  0.86283337081E+02  0.00000000000E+00 0. -1.
<scales pt_clust_5="13000.00000" pt_clust_6="13000.00000" pt_clust_7="13000.00000" pt_clust_8="13000.00000" pt_clust_9="13000.00000"></scales>
<clustering>
<clus scale="   86.628">  5  6 -1 -1</clus>
<clus scale="   91.789">  7  8 -1 -1</clus>
<clus scale="   60.550">  7  9 -1 -1</clus>
<clus scale="  133.056">  1  5  2 -1</clus>
<clus scale="  226.836">  2  5  1 -1</clus>
</clustering>
</event>
<event>
 9    1  0.3312826E-006  0.4858476E+03  0.7546771E-02  0.1053682E+00
          2   -1    0    0  502    0 -0.00000000000E+00  0.00000000000E+00  0.72704619048E+02  0.72704619048E+02  0.00000000000E+00 0. -1.
         21   -1    0    0  501  502  0.00000000000E+00 -0.00000000000E+00 -0.14790514791E+04  0.14790514791E+04  0.00000000000E+00 0. -1.
         23    2    1    2    0    0 -0.13898380273E+03 -0.24022385838E+02 -0.41428479615E+03  0.44711360091E+03  0.91570231816E+02 0.  0.
         23    2    1    2    0    0  0.30794746584E+02 -0.20709416219E+03 -0.43230608527E+03  0.48946245346E+03  0.94067175799E+02 0.  0.
        -13    1    3    3    0    0 -0.13237632072E+03  0.35063896350E+01 -0.27811619732E+03  0.30803312203E+03  0.00000000000E+00 0.  1.
         13    1    3    3    0    0 -0.66074820042E+01 -0.27528775473E+02 -0.13616859883E+03  0.13908047888E+03  0.00000000000E+00 0. -1.
        -13    1    4    4    0    0  0.48242785158E+02 -0.13161318306E+03 -0.19737480721E+03  0.24208719668E+03  0.00000000000E+00 0.  1.
         13    1    4    4    0    0 -0.17448038574E+02 -0.75480979133E+02 -0.23493127806E+03  0.24737525679E+03  0.00000000000E+00 0. -1.
          2    1    1    2  501    0  0.10818905615E+03  0.23111654803E+03 -0.55975597866E+03  0.61518004380E+03  0.00000000000E+00 0. -1.
<scales pt_clust_5="13000.00000" pt_clust_6="13000.00000" pt_clust_7="13000.00000" pt_clust_8="13000.00000" pt_clust_9="13000.00000"></scales>
<clustering>
<clus scale="   91.570">  5  6 -1 -1</clus>
<clus scale="   94.067">  7  8 -1 -1</clus>
<clus scale="  168.163">  1  5  2 -1</clus>
<clus scale="  222.867">  7  9 -1 -1</clus>
<clus scale="  485.848">  2  5  1 -1</clus>
</clustering>
</event>
<event>
 9    1  0.3312826E-006  0.3646392E+03  0.7546771E-02  0.1100683E+00
         21   -1    0    0  501  502  0.00000000000E+00  0.00000000000E+00  0.68587876003E+03  0.68587876003E+03  0.00000000000E+00 0. -1.
          2   -1    0    0  502    0 -0.00000000000E+00 -0.00000000000E+00 -0.97160228270E+02  0.97160228270E+02  0.00000000000E+00 0. -1.
         23    2    1    2    0    0 -0.54620745705E+02 -0.36118114249E+02  0.29023780286E+02  0.11504198550E+03  0.90024077709E+02 0.  0.
         23    2    1    2    0    0  0.37183380395E+01  0.17607026750E+03  0.21398905590E+03  0.29157956397E+03  0.90624284524E+02 0.  0.
        -11    1    3    3    0    0 -0.16518663930E+02  0.16096666634E+02  0.43104675764E+02  0.48887442227E+02  0.00000000000E+00 0.  1.
         11    1    3    3    0    0 -0.38102081775E+02 -0.52214780882E+02 -0.14080895478E+02  0.66154543273E+02  0.00000000000E+00 0. -1.
        -11    1    4    4    0    0 -0.26439984683E+02  0.91535440209E+01  0.23715523445E+02  0.36678143498E+02  0.00000000000E+00 0.  1.
         11    1    4    4    0    0  0.30158322723E+02  0.16691672347E+03  0.19027353246E+03  0.25490142047E+03  0.00000000000E+00 0. -1.
          2    1    1    2  501    0  0.50902407666E+02 -0.13995215325E+03  0.34570569557E+03  0.37641743883E+03  0.00000000000E+00 0. -1.
<scales pt_clust_5="13000.00000" pt_clust_6="13000.00000" pt_clust_7="13000.00000" pt_clust_8="13000.00000" pt_clust_9="13000.00000"></scales>
<clustering>
<clus scale="   90.024">  5  6 -1 -1</clus>
<clus scale="   90.624">  7  8 -1 -1</clus>
<clus scale="  111.321">  2  5  1 -1</clus>
<clus scale="  154.313">  7  9 -1 -1</clus>
<clus scale="  364.639">  1  5  2 -1</clus>
</clustering>
</event>
<event>
 9    1  0.3312826E-006  0.1930221E+03  0.7546771E-02  0.1176001E+00
         21   -1    0    0  501  502  0.00000000000E+00  0.00000000000E+00  0.18110609772E+03  0.18110609772E+03  0.00000000000E+00 0. -1.
         -3   -1    0    0    0  501 -0.00000000000E+00 -0.00000000000E+00 -0.18055133448E+03  0.18055133448E+03  0.00000000000E+00 0.  1.
         23    2    1    2    0    0 -0.48988860944E+02  0.61143393978E+02 -0.87605326856E+02  0.14945535986E+03  0.92324363920E+02 0.  0.
         23    2    1    2    0    0  0.82240260605E+02 -0.37588146445E+02  0.27490558847E+02  0.13911789288E+03  0.10208686535E+03 0.  0.
        -11    1    4    4    0    0  0.10076361379E+03 -0.47556562476E+02  0.10199728555E+02  0.11188818955E+03  0.00000000000E+00 0.  1.
         11    1    4    4    0    0 -0.18523353183E+02  0.99684160315E+01  0.17290830291E+02  0.27229703331E+02  0.00000000000E+00 0. -1.
        -11    1    3    3    0    0  0.16349026391E+02  0.52206402325E+02 -0.33451067508E+02  0.64123108355E+02  0.00000000000E+00 0. -1.
         11    1    3    3    0    0 -0.65337887335E+02  0.89369916534E+01 -0.54154259347E+02  0.85332251504E+02  0.00000000000E+00 0.  1.
         -3    1    1    2    0  502 -0.33251399661E+02 -0.23555247533E+02  0.60669531246E+02  0.73084179460E+02  0.00000000000E+00 0.  1.
<scales pt_clust_5="13000.00000" pt_clust_6="13000.00000" pt_clust_7="13000.00000" pt_clust_8="13000.00000" pt_clust_9="13000.00000"></scales>
<clustering>
<clus scale="   92.324">  7  8 -1 -1</clus>
<clus scale="  102.087">  5  6 -1 -1</clus>
<clus scale="   40.749">  5  9 -1 -1</clus>
<clus scale="  121.088">  2  7  1 -1</clus>
<clus scale="  193.022">  1  5  2 -1</clus>
</clustering>
</event>
<event>
 9    1  0.3312826E-006  0.1815699E+03  0.7546771E-02  0.1187314E+00
         21   -1    0    0  501  502  0.00000000000E+00  0.00000000000E+00  0.44086108212E+02  0.44086108212E+02  0.00000000000E+00 0. -1.
          1   -1    0    0  502    0 -0.00000000000E+00 -0.00000000000E+00 -0.74495457995E+03  0.74495457995E+03  0.00000000000E+00 0. -1.
         23    2    1    2    0    0 -0.44817638386E+02  0.11937755422E+02 -0.52235258210E+03  0.53441245026E+03  0.10292383714E+03 0.  0.
         23    2    1    2    0    0  0.32989331540E+02 -0.55658828941E+02 -0.16725290271E+03  0.20795601932E+03  0.10528993908E+03 0.  0.
        -11    1    4    4    0    0 -0.28600098633E+02 -0.53522608496E+02 -0.68130976437E+02  0.91238507289E+02  0.00000000000E+00 0. -1.
         11    1    4    4    0    0  0.61589430173E+02 -0.21362204455E+01 -0.99121926268E+02  0.11671751203E+03  0.00000000000E+00 0.  1.
        -13    1    3    3    0    0 -0.78320638079E+02  0.12628175763E+02 -0.35994446894E+03  0.36858325232E+03  0.00000000000E+00 0. -1.
         13    1    3    3    0    0  0.33502999692E+02 -0.69042034081E+00 -0.16240811317E+03  0.16582919795E+03  0.00000000000E+00 0.  1.
          1    1    1    2  501    0  0.11828306846E+02  0.43721073519E+02 -0.11262986927E+02  0.46672218578E+02  0.00000000000E+00 0. -1.
<scales pt_clust_5="13000.00000" pt_clust_6="13000.00000" pt_clust_7="13000.00000" pt_clust_8="13000.00000" pt_clust_9="13000.00000"></scales>
<clustering>
<clus scale="  102.924">  7  8 -1 -1</clus>
<clus scale="  105.290">  5  6 -1 -1</clus>
<clus scale="   45.293">  5  9 -1 -1</clus>
<clus scale="  112.891">  2  7  1 -1</clus>
<clus scale="  181.570">  1  5  2 -1</clus>
</clustering>
</event>
<event>
 9    1  0.3312826E-006  0.3898677E+03  0.7546771E-02  0.1095820E+00
         21   -1    0    0  501  502  0.00000000000E+00  0.00000000000E+00  0.95476108276E+02  0.95476108276E+02  0.00000000000E+00 0. -1.
          2   -1    0    0  502    0 -0.00000000000E+00 -0.00000000000E+00 -0.68159280084E+03  0.68159280084E+03  0.00000000000E+00 0. -1.
         23    2    1    2    0    0  0.24783846144E+02  0.40083697965E+02 -0.21617359326E+03  0.23961688169E+03  0.92001552695E+02 0.  0.
         23    2    1    2    0    0  0.11782053851E+03 -0.14246872062E+03 -0.25260070979E+03  0.32629346197E+03  0.92093914500E+02 0.  0.
        -13    1    3    3    0    0  0.46086156771E+02  0.31459149006E+02 -0.20779276894E+03  0.21515447177E+03  0.00000000000E+00 0.  1.
         13    1    3    3    0    0 -0.21302310627E+02  0.86245489589E+01 -0.83808243221E+01  0.24462409920E+02  0.00000000000E+00 0. -1.
        -13    1    4    4    0    0  0.11699857288E+03 -0.76481593949E+02 -0.15808294940E+03  0.21101734327E+03  0.00000000000E+00 0. -1.
         13    1    4    4    0    0  0.82196562975E+00 -0.65987126675E+02 -0.94517760390E+02  0.11527611870E+03  0.00000000000E+00 0.  1.
          2    1    1    2  501    0 -0.14260438465E+03  0.10238502266E+03 -0.11734238952E+03  0.21115856545E+03  0.00000000000E+00 0. -1.
<scales pt_clust_5="13000.00000" pt_clust_6="13000.00000" pt_clust_7="13000.00000" pt_clust_8="13000.00000" pt_clust_9="13000.00000"></scales>
<clustering>
<clus scale="   92.002">  5  6 -1 -1</clus>
<clus scale="   92.094">  7  8 -1 -1</clus>
<clus scale="  103.369">  2  5  1 -1</clus>
<clus scale="  177.545">  7  9 -1 -1</clus>
<clus scale="  389.868">  1  5  2 -1</clus>
</clustering>
</event>
<event>
 9    1  0.3312826E-006  0.1424184E+03  0.7546771E-02  0.1218830E+00
          3   -1    0    0  502    0 -0.00000000000E+00  0.00000000000E+00  0.40165247485E+03  0.40165247485E+03  0.00000000000E+00 0. -1.
         21   -1    0    0  501  502  0.00000000000E+00 -0.00000000000E+00 -0.46277264884E+02  0.46277264884E+02  0.00000000000E+00 0.  1.
         23    2    1    2    0    0 -0.38126589863E+02 -0.65856101952E+02  0.22779694606E+03  0.25672507557E+03  0.90695384519E+02 0.  0.
         23    2    1    2    0    0  0.18861532163E+02  0.55019259552E+02  0.12887038810E+03  0.16906309271E+03  0.92692373315E+02 0.  0.
        -11    1    4    4    0    0  0.38163066243E+02  0.49705552477E+02  0.13440185560E+03  0.14829335912E+03  0.00000000000E+00 0. -1.
         11    1    4    4    0    0 -0.19301534079E+02  0.53137070750E+01 -0.55314674962E+01  0.20769733589E+02  0.00000000000E+00 0.  1.
        -13    1    3    3    0    0 -0.10746397645E+02 -0.83312429120E+02  0.14196295994E+03  0.16495432066E+03  0.00000000000E+00 0.  1.
         13    1    3    3    0    0 -0.27380192219E+02  0.17456327168E+02  0.85833986124E+02  0.91770754917E+02  0.00000000000E+00 0. -1.
          3    1    1    2  501    0  0.19265057700E+02  0.10836842400E+02 -0.12921241969E+01  0.22141571451E+02  0.00000000000E+00 0. -1.
<scales pt_clust_5="13000.00000" pt_clust_6="13000.00000" pt_clust_7="13000.00000" pt_clust_8="13000.00000" pt_clust_9="13000.00000"></scales>
<clustering>
<clus scale="   90.695">  7  8 -1 -1</clus>
<clus scale="   92.692">  5  6 -1 -1</clus>
<clus scale="   22.104">  5  9 -1 -1</clus>
<clus scale="  118.391">  1  7  2 -1</clus>
<clus scale="  142.418">  2  5  1 -1</clus>
</clustering>
</event>
<event>
 9    1  0.3312826E-006  0.4383067E+03  0.7546771E-02  0.1066759E+00
          1   -1    0    0  502    0 -0.00000000000E+00  0.00000000000E+00  0.16230194753E+03  0.16230194753E+03  0.00000000000E+00 0. -1.
         21   -1    0    0  501  502  0.00000000000E+00 -0.00000000000E+00 -0.16702163475E+04  0.16702163475E+04  0.00000000000E+00 0. -1.
         23    2    1    2    0    0 -0.82616663020E+02  0.11969386227E+03  0.85159399661E+02  0.18024807761E+03  0.63914884486E+02 0.  0.
         23    2    1    2    0    0  0.98534313666E+02  0.90751729924E+02 -0.29280113135E+03  0.33498143710E+03  0.92386001270E+02 0.  0.
        -11    1    3    3    0    0 -0.21939374910E+02 -0.11123230545E+01  0.21800770212E+02  0.30949103636E+02  0.00000000000E+00 0.  1.
         11    1    3    3    0    0 -0.60677288110E+02  0.12080618532E+03  0.63358629449E+02  0.14929897398E+03  0.00000000000E+00 0. -1.
        -13    1    4    4    0    0  0.10384152252E+03  0.56647120439E+02 -0.26655015971E+03  0.29161780757E+03  0.00000000000E+00 0.  1.
         13    1    4    4    0    0 -0.53072088541E+01  0.34104609485E+02 -0.26250971641E+02  0.43363629530E+02  0.00000000000E+00 0. -1.
          1    1    1    2  501    0 -0.15917650646E+02 -0.21044559219E+03 -0.13002726683E+04  0.13172887803E+04  0.00000000000E+00 0. -1.
<scales pt_clust_5="13000.00000" pt_clust_6="13000.00000" pt_clust_7="13000.00000" pt_clust_8="13000.00000" pt_clust_9="13000.00000"></scales>
<clustering>
<clus scale="   63.915">  5  6 -1 -1</clus>
<clus scale="   92.386">  7  8 -1 -1</clus>
<clus scale="  158.862">  1  5  2 -1</clus>
<clus scale="  180.453">  7  9 -1 -1</clus>
<clus scale="  438.307">  2  5  1 -1</clus>
</clustering>
</event>
<event>
 9    1  0.3312826E-006  0.4630072E+03  0.7546771E-02  0.1072832E+00
          1   -1    0    0  502    0 -0.00000000000E+00  0.00000000000E+00  0.75541474813E+03  0.75541474813E+03  0.00000000000E+00 0. -1.
         21   -1    0    0  501  502  0.00000000000E+00 -0.00000000000E+00 -0.13108038325E+03  0.13108038325E+03  0.00000000000E+00 0.  1.
         23    2    1    2    0    0  0.28827202769E+02  0.59739807659E+02  0.30065786074E+03  0.32156846573E+03  0.92796964873E+02 0.  0.
         23    2    1    2    0    0 -0.95761270769E+02 -0.12461897555E+03 -0.43059120857E+02  0.18652939489E+03  0.90769032285E+02 0.  0.
        -11    1    4    4    0    0 -0.36908019452E+02 -0.11612344824E+03 -0.25017959283E+02  0.12438953098E+03  0.00000000000E+00 0.  1.
         11    1    4    4    0    0 -0.58853251317E+02 -0.84955273023E+01 -0.18041161574E+02  0.62139863901E+02  0.00000000000E+00 0. -1.
        -13    1    3    3    0    0  0.17667975648E+02 -0.23538821072E+02  0.93367415129E+02  0.97896412952E+02  0.00000000000E+00 0.  1.
         13    1    3    3    0    0  0.11159227121E+02  0.83278628730E+02  0.20729044561E+03  0.22367205278E+03  0.00000000000E+00 0. -1.
          1    1    1    2  501    0  0.66934068000E+02  0.64879167887E+02  0.36673562499E+03  0.37839727077E+03  0.00000000000E+00 0. -1.
<scales pt_clust_5="13000.00000" pt_clust_6="13000.00000" pt_clust_7="13000.00000" pt_clust_8="13000.00000" pt_clust_9="13000.00000"></scales>
<clustering>
<clus scale="   90.769">  5  6 -1 -1</clus>
<clus scale="   92.797">  7  8 -1 -1</clus>
<clus scale="   93.217">  5  9 -1 -1</clus>
<clus scale="  114.066">  1  7  2 -1</clus>
<clus scale="  463.007">  2  5  1 -1</clus>
</clustering>
</event>
<event>
 9    1  0.3312826E-006  0.2006379E+03  0.7546771E-02  0.1165400E+00
         -1   -1    0    0    0  501 -0.00000000000E+00  0.00000000000E+00  0.32031128785E+03  0.32031128785E+03  0.00000000000E+00 0.  1.
         21   -1    0    0  501  502  0.00000000000E+00 -0.00000000000E+00 -0.10425963548E+03  0.10425963548E+03  0.00000000000E+00 0.  1.
         23    2    1    2    0    0 -0.12858955982E+00 -0.10067757643E+03  0.11175838000E+02  0.13781374019E+03  0.93443762236E+02 0.  0.
         23    2    1    2    0    0 -0.17216559588E+02 -0.45449123274E+01  0.10022092271E+03  0.13734074265E+03  0.92201844292E+02 0.  0.
        -11    1    4    4    0    0  0.29287354208E+02  0.12559709638E+02  0.75535470707E+02  0.81982331985E+02  0.00000000000E+00 0. -1.
         11    1    4    4    0    0 -0.46503913796E+02 -0.17104621965E+02  0.24685452005E+02  0.55358410668E+02  0.00000000000E+00 0.  1.
        -13    1    3    3    0    0 -0.42474119676E+02 -0.77585954447E+02  0.68674289204E+00  0.88453958563E+02  0.00000000000E+00 0. -1.
         13    1    3    3    0    0  0.42345530116E+02 -0.23091621981E+02  0.10489095108E+02  0.49359781632E+02  0.00000000000E+00 0.  1.
         -1    1    1    2    0  502  0.17345149148E+02  0.10522248876E+03  0.10465489166E+03  0.14941644048E+03  0.00000000000E+00 0.  1.
<scales pt_clust_5="13000.00000" pt_clust_6="13000.00000" pt_clust_7="13000.00000" pt_clust_8="13000.00000" pt_clust_9="13000.00000"></scales>
<clustering>
<clus scale="   92.202">  5  6 -1 -1</clus>
<clus scale="   93.444">  7  8 -1 -1</clus>
<clus scale="  106.643">  5  9 -1 -1</clus>
<clus scale="  137.360">  1  7  2 -1</clus>
<clus scale="  200.638">  2  5  1 -1</clus>
</clustering>
</event>
<event>
 9    1  0.3312826E-006  0.1982806E+03  0.7546771E-02  0.1177429E+00
         21   -1    0    0  501  502  0.00000000000E+00  0.00000000000E+00  0.54190923013E+02  0.54190923013E+02  0.00000000000E+00 0.  1.
          2   -1    0    0  502    0 -0.00000000000E+00 -0.00000000000E+00 -0.44725480896E+03  0.44725480896E+03  0.00000000000E+00 0. -1.
         23    2    1    2    0    0  0.52780945277E+02  0.22838125721E+02 -0.18307475390E+03  0.21263671886E+03  0.91600221188E+02 0.  0.
         23    2    1    2    0    0  0.35100898145E+02 -0.33563927136E+02 -0.13827985862E+03  0.17487709873E+03  0.95404769819E+02 0.  0.
        -11    1    4    4    0    0  0.26736392070E+02  0.24055468879E+02 -0.97144554291E+02  0.10358843889E+03  0.00000000000E+00 0.  1.
         11    1    4    4    0    0  0.83645060755E+01 -0.57619396015E+02 -0.41135304331E+02  0.71288659837E+02  0.00000000000E+00 0. -1.
        -11    1    3    3    0    0  0.68758400323E+02  0.26182297149E+01 -0.17070533149E+03  0.18405130519E+03  0.00000000000E+00 0.  1.
         11    1    3    3    0    0 -0.15977455047E+02  0.20219896006E+02 -0.12369422413E+02  0.28585413677E+02  0.00000000000E+00 0. -1.
          2    1    1    2  501    0 -0.87881843422E+02  0.10725801415E+02 -0.71709273420E+02  0.11393191438E+03  0.00000000000E+00 0. -1.
<scales pt_clust_5="13000.00000" pt_clust_6="13000.00000" pt_clust_7="13000.00000" pt_clust_8="13000.00000" pt_clust_9="13000.00000"></scales>
<clustering>
<clus scale="   91.600">  7  8 -1 -1</clus>
<clus scale="   95.405">  5  6 -1 -1</clus>
<clus scale="   88.534">  5  9 -1 -1</clus>
<clus scale="  108.157">  2  7  1 -1</clus>
<clus scale="  198.281">  1  5  2 -1</clus>
</clustering>
</event>
<event>
 9    1  0.3312826E-006  0.7286376E+03  0.7546771E-02  0.1022539E+00
         21   -1    0    0  501  502  0.00000000000E+00  0.00000000000E+00  0.43652332259E+03  0.43652332259E+03  0.00000000000E+00 0. -1.
         -3   -1    0    0    0  501 -0.00000000000E+00 -0.00000000000E+00 -0.46772400868E+03  0.46772400868E+03  0.00000000000E+00 0.  1.
         23    2    1    2    0    0 -0.71786047282E+02 -0.42417047820E+02 -0.11728482602E+03  0.17054219787E+03  0.91523047980E+02 0.  0.
         23    2    1    2    0    0 -0.14726684304E+03 -0.16465050470E+03  0.28552110884E+03  0.37226877021E+03  0.90908866012E+02 0.  0.
        -13    1    3    3    0    0 -0.72299557152E+02 -0.66788048126E+02 -0.84734719665E+02  0.12987625670E+03  0.00000000000E+00 0.  1.
         13    1    3    3    0    0  0.51350986931E+00  0.24371000306E+02 -0.32550106350E+02  0.40665941176E+02  0.00000000000E+00 0. -1.
        -13    1    4    4    0    0 -0.39962604554E+02  0.26126750698E+01  0.43862434100E+02  0.59394856334E+02  0.00000000000E+00 0.  1.
         13    1    4    4    0    0 -0.10730423849E+03 -0.16726317977E+03  0.24165867474E+03  0.31287391387E+03  0.00000000000E+00 0. -1.
         -3    1    1    2    0  502  0.21905289033E+03  0.20706755252E+03 -0.19943696891E+03  0.36143636319E+03  0.00000000000E+00 0.  1.
<scales pt_clust_5="13000.00000" pt_clust_6="13000.00000" pt_clust_7="13000.00000" pt_clust_8="13000.00000" pt_clust_9="13000.00000"></scales>
<clustering>
<clus scale="   90.909">  7  8 -1 -1</clus>
<clus scale="   91.523">  5  6 -1 -1</clus>
<clus scale="  123.810">  2  5  1 -1</clus>
<clus scale="  231.571">  7  9 -1 -1</clus>
<clus scale="  728.638">  1  5  2 -1</clus>
</clustering>
</event>
<event>
 9    1  0.3312826E-006  0.2476675E+03  0.7546771E-02  0.1149774E+00
          1   -1    0    0  502    0 -0.00000000000E+00  0.00000000000E+00  0.52530514838E+03  0.52530514838E+03  0.00000000000E+00 0. -1.
         21   -1    0    0  501  502  0.00000000000E+00 -0.00000000000E+00 -0.88606118780E+02  0.88606118780E+02  0.00000000000E+00 0.  1.
         23    2    1    2    0    0 -0.60955982054E+02 -0.26448038210E+02  0.32612128217E+03  0.34267955434E+03  0.81603037949E+02 0.  0.
         23    2    1    2    0    0  0.13461027481E+03 -0.11713565762E+02  0.84154898677E+02  0.18417179210E+03  0.92628658241E+02 0.  0.
        -13    1    3    3    0    0 -0.61923974562E+02  0.13389227663E+02  0.23142609038E+03  0.23994142067E+03  0.00000000000E+00 0. -1.
         13    1    3    3    0    0  0.96799250740E+00 -0.39837265873E+02  0.94695191791E+02  0.10273813367E+03  0.00000000000E+00 0.  1.
        -13    1    4    4    0    0  0.15894113872E+02 -0.38431551386E+02  0.15017026740E+02  0.44216717312E+02  0.00000000000E+00 0. -1.
         13    1    4    4    0    0  0.11871616094E+03  0.26717985624E+02  0.69137871937E+02  0.13995507479E+03  0.00000000000E+00 0.  1.
          1    1    1    2  501    0 -0.73654292757E+02  0.38161603972E+02  0.26422848751E+02  0.87059920718E+02  0.00000000000E+00 0. -1.
<scales pt_clust_5="13000.00000" pt_clust_6="13000.00000" pt_clust_7="13000.00000" pt_clust_8="13000.00000" pt_clust_9="13000.00000"></scales>
<clustering>
<clus scale="   81.603">  5  6 -1 -1</clus>
<clus scale="   92.629">  7  8 -1 -1</clus>
<clus scale="   82.953">  7  9 -1 -1</clus>
<clus scale="  105.234">  1  5  2 -1</clus>
<clus scale="  247.668">  2  5  1 -1</clus>
</clustering>
</event>
<event>
 9    1  0.3312826E-006  0.1989415E+03  0.7546771E-02  0.1168991E+00
          1   -1    0    0  502    0 -0.00000000000E+00  0.00000000000E+00  0.48743849874E+03  0.48743849874E+03  0.00000000000E+00 0. -1.
         21   -1    0    0  501  502  0.00000000000E+00 -0.00000000000E+00 -0.56775686369E+02  0.56775686369E+02  0.00000000000E+00 0.  1.
         23    2    1    2    0    0 -0.32915969705E+02  0.87721472544E+02  0.21238820121E+03  0.24888125683E+03  0.89747502364E+02 0.  0.
         23    2    1    2    0    0  0.50959160778E+02 -0.23476694218E+02  0.60026678877E+02  0.12359080660E+03  0.92322771086E+02 0.  0.
        -13    1    4    4    0    0  0.61198556761E+02 -0.49972829608E+02  0.38154855684E+02  0.87740184984E+02  0.00000000000E+00 0. -1.
         13    1    4    4    0    0 -0.10239395983E+02  0.26496135389E+02  0.21871823192E+02  0.35850621618E+02  0.00000000000E+00 0.  1.
        -13    1    3    3    0    0 -0.48922552258E+02  0.94313917534E+01  0.83041291560E+02  0.96841227655E+02  0.00000000000E+00 0. -1.
         13    1    3    3    0    0  0.16006582552E+02  0.78290080790E+02  0.12934690965E+03  0.15204002918E+03  0.00000000000E+00 0.  1.
          1    1    1    2  501    0 -0.18043191073E+02 -0.64244778325E+02  0.15824793228E+03  0.17174212168E+03  0.00000000000E+00 0. -1.
<scales pt_clust_5="13000.00000" pt_clust_6="13000.00000" pt_clust_7="13000.00000" pt_clust_8="13000.00000" pt_clust_9="13000.00000"></scales>
<clustering>
<clus scale="   89.748">  7  8 -1 -1</clus>
<clus scale="   92.323">  5  6 -1 -1</clus>
<clus scale="   66.730">  5  9 -1 -1</clus>
<clus scale="  129.743">  1  7  2 -1</clus>
<clus scale="  198.942">  2  5  1 -1</clus>
</clustering>
</event>
<event>
 9    1  0.3312826E-006  0.1573839E+03  0.7546771E-02  0.1211213E+00
          1   -1    0    0  502    0 -0.00000000000E+00  0.00000000000E+00  0.22363754785E+03  0.22363754785E+03  0.00000000000E+00 0. -1.
         21   -1    0    0  501  502  0.00000000000E+00 -0.00000000000E+00 -0.14373922694E+03  0.14373922694E+03  0.00000000000E+00 0.  1.
         23    2    1    2    0    0  0.35898787458E+02 -0.35059953669E+02  0.16034818795E+03  0.19062304310E+03  0.90042655952E+02 0.  0.
         23    2    1    2    0    0  0.10850007308E+02  0.74189450592E+01 -0.80117574057E+02  0.12244364434E+03  0.91656188891E+02 0.  0.
        -11    1    3    3    0    0  0.18273445970E+02 -0.65346183017E+02  0.11107295735E+03  0.13015853532E+03  0.00000000000E+00 0.  1.
         11    1    3    3    0    0  0.17625341489E+02  0.30286229347E+02  0.49275230597E+02  0.60464507780E+02  0.00000000000E+00 0. -1.
        -11    1    4    4    0    0  0.46135922444E+00  0.44988868863E+02 -0.16672848338E+02  0.47981194708E+02  0.00000000000E+00 0. -1.
         11    1    4    4    0    0  0.10388648084E+02 -0.37569923804E+02 -0.63444725718E+02  0.74462449631E+02  0.00000000000E+00 0.  1.
          1    1    1    2  501    0 -0.46748794766E+02  0.27641008610E+02 -0.33229297823E+00  0.54310087348E+02  0.00000000000E+00 0. -1.
<scales pt_clust_5="13000.00000" pt_clust_6="13000.00000" pt_clust_7="13000.00000" pt_clust_8="13000.00000" pt_clust_9="13000.00000"></scales>
<clustering>
<clus scale="   90.043">  5  6 -1 -1</clus>
<clus scale="   91.656">  7  8 -1 -1</clus>
<clus scale="   54.309">  7  9 -1 -1</clus>
<clus scale="  103.081">  1  5  2 -1</clus>
<clus scale="  157.384">  2  5  1 -1</clus>
</clustering>
</event>
<event>
 9    1  0.3312826E-006  0.1542945E+03  0.7546771E-02  0.1209982E+00
         -1   -1    0    0    0  501 -0.00000000000E+00  0.00000000000E+00  0.33287587064E+03  0.33287587064E+03  0.00000000000E+00 0.  1.
         21   -1    0    0  501  502  0.00000000000E+00 -0.00000000000E+00 -0.53415568153E+02  0.53415568153E+02  0.00000000000E+00 0. -1.
         23    2    1    2    0    0 -0.71666638254E+02  0.71529074397E+01  0.12258549839E+03  0.16625392975E+03  0.86173624837E+02 0.  0.
         23    2    1    2    0    0  0.45699702864E+02  0.20615767784E+02  0.14815407833E+03  0.18103196950E+03  0.91156296177E+02 0.  0.
        -13    1    3    3    0    0 -0.54080593258E+02  0.39673871656E+02  0.10666464018E+03  0.12600028621E+03  0.00000000000E+00 0. -1.
         13    1    3    3    0    0 -0.17586044996E+02 -0.32520964216E+02  0.15920858206E+02  0.40253643539E+02  0.00000000000E+00 0.  1.
        -13    1    4    4    0    0  0.41139283217E+02 -0.59107170248E+01  0.14840520171E+03  0.15411515530E+03  0.00000000000E+00 0.  1.
         13    1    4    4    0    0  0.45604196473E+01  0.26526484808E+02 -0.25112338164E+00  0.26916814199E+02  0.00000000000E+00 0. -1.
         -1    1    1    2    0  502  0.25966935390E+02 -0.27768675223E+02  0.87207257689E+01  0.39005539544E+02  0.00000000000E+00 0.  1.
<scales pt_clust_5="13000.00000" pt_clust_6="13000.00000" pt_clust_7="13000.00000" pt_clust_8="13000.00000" pt_clust_9="13000.00000"></scales>
<clustering>
<clus scale="   86.174">  5  6 -1 -1</clus>
<clus scale="   91.156">  7  8 -1 -1</clus>
<clus scale="   38.018">  7  9 -1 -1</clus>
<clus scale="  112.308">  1  5  2 -1</clus>
<clus scale="  154.295">  2  5  1 -1</clus>
</clustering>
</event>
<event>
 9    1  0.3312826E-006  0.2137927E+03  0.7546771E-02  0.1149015E+00
         21   -1    0    0  501  502  0.00000000000E+00  0.00000000000E+00  0.27493396345E+03  0.27493396345E+03  0.00000000000E+00 0. -1.
          1   -1    0    0  502    0 -0.00000000000E+00 -0.00000000000E+00 -0.58435908494E+03  0.58435908494E+03  0.00000000000E+00 0. -1.
         23    2    1    2    0    0 -0.13547101396E+03 -0.24512840986E+02 -0.52793606590E+03  0.55358999955E+03  0.93766320845E+02 0.  0.
         23    2    1    2    0    0  0.97534270718E+02 -0.39383352019E+02  0.14431060113E+03  0.20069061667E+03  0.91581611906E+02 0.  0.
        -11    1    3    3    0    0 -0.12857972961E+03  0.11169874686E+00 -0.49745480985E+03  0.51380351029E+03  0.00000000000E+00 0. -1.
         11    1    3    3    0    0 -0.68912843559E+01 -0.24624539733E+02 -0.30481256046E+02  0.39786489255E+02  0.00000000000E+00 0.  1.
        -13    1    4    4    0    0  0.55682269948E+02  0.20574757733E+01  0.13648504142E+02  0.57367500019E+02  0.00000000000E+00 0.  1.
         13    1    4    4    0    0  0.41852000770E+02 -0.41440827792E+02  0.13066209699E+03  0.14332311665E+03  0.00000000000E+00 0. -1.
          1    1    1    2  501    0  0.37936743244E+02  0.63896193005E+02  0.74200343285E+02  0.10501243218E+03  0.00000000000E+00 0. -1.
<scales pt_clust_5="13000.00000" pt_clust_6="13000.00000" pt_clust_7="13000.00000" pt_clust_8="13000.00000" pt_clust_9="13000.00000"></scales>
<clustering>
<clus scale="   91.582">  7  8 -1 -1</clus>
<clus scale="   74.310">  7  9 -1 -1</clus>
<clus scale="   93.766">  5  6 -1 -1</clus>
<clus scale="  166.569">  2  5  1 -1</clus>
<clus scale="  213.793">  1  5  2 -1</clus>
</clustering>
</event>
<event>
 9    1  0.3312826E-006  0.2439136E+03  0.7546771E-02  0.1145078E+00
         -2   -1    0    0    0  501 -0.00000000000E+00  0.00000000000E+00  0.83246756364E+02  0.83246756364E+02  0.00000000000E+00 0.  1.
         21   -1    0    0  501  502  0.00000000000E+00 -0.00000000000E+00 -0.44162922113E+03  0.44162922113E+03  0.00000000000E+00 0.  1.
         23    2    1    2    0    0 -0.81004269308E+02 -0.19828861107E+02 -0.53187041243E+02  0.13418675183E+03  0.90677161575E+02 0.  0.
         23    2    1    2    0    0  0.42652890000E+02  0.30287964111E+02 -0.23380168369E+02  0.10608413230E+03  0.89278110744E+02 0.  0.
        -11    1    3    3    0    0 -0.29795630435E+02 -0.22581512862E+02  0.21847705656E+02  0.43301576861E+02  0.00000000000E+00 0.  1.
         11    1    3    3    0    0 -0.51208638872E+02  0.27526517551E+01 -0.75034746899E+02  0.90885174969E+02  0.00000000000E+00 0. -1.
        -13    1    4    4    0    0  0.44345794292E+02  0.54600584920E+02  0.26957848340E+01  0.70392049273E+02  0.00000000000E+00 0.  1.
         13    1    4    4    0    0 -0.16929042919E+01 -0.24312620808E+02 -0.26075953203E+02  0.35692083029E+02  0.00000000000E+00 0. -1.
         -2    1    1    2    0  502  0.38351379308E+02 -0.10459103004E+02 -0.28181525515E+03  0.28460509336E+03  0.00000000000E+00 0.  1.
<scales pt_clust_5="13000.00000" pt_clust_6="13000.00000" pt_clust_7="13000.00000" pt_clust_8="13000.00000" pt_clust_9="13000.00000"></scales>
<clustering>
<clus scale="   89.278">  7  8 -1 -1</clus>
<clus scale="   39.752">  7  9 -1 -1</clus>
<clus scale="   90.677">  5  6 -1 -1</clus>
<clus scale="  123.196">  1  5  2 -1</clus>
<clus scale="  243.914">  2  5  1 -1</clus>
</clustering>
</event>
<event>
 9    1  0.3312826E-006  0.2961846E+03  0.7546771E-02  0.1100497E+00
         21   -1    0    0  501  502  0.00000000000E+00  0.00000000000E+00  0.11997296595E+03  0.11997296595E+03  0.00000000000E+00 0. -1.
          2   -1    0    0  502    0 -0.00000000000E+00 -0.00000000000E+00 -0.58232325056E+03  0.58232325056E+03  0.00000000000E+00 0. -1.
         23    2    1    2    0    0  0.14895578204E+03  0.11328186823E+03 -0.29722719977E+03  0.36319305867E+03  0.92436913132E+02 0.  0.
         23    2    1    2    0    0  0.23948922280E+02 -0.10049684531E+02 -0.55847605820E+02  0.10998735559E+03  0.91124729225E+02 0.  0.
        -11    1    3    3    0    0  0.62637813497E+02  0.17933788232E+02 -0.42365637234E+02  0.77717203104E+02  0.00000000000E+00 0.  1.
         11    1    3    3    0    0  0.86317968547E+02  0.95348079993E+02 -0.25486156254E+03  0.28547585557E+03  0.00000000000E+00 0. -1.
        -13    1    4    4    0    0 -0.11662935837E+02 -0.18640093805E+02 -0.67940237430E+02  0.71409754456E+02  0.00000000000E+00 0.  1.
         13    1    4    4    0    0  0.35611858117E+02  0.85904092738E+01  0.12092631610E+02  0.38577601134E+02  0.00000000000E+00 0. -1.
          2    1    1    2  501    0 -0.17290470432E+03 -0.10323218369E+03 -0.10927547901E+03  0.22911580225E+03  0.00000000000E+00 0. -1.
<scales pt_clust_5="13000.00000" pt_clust_6="13000.00000" pt_clust_7="13000.00000" pt_clust_8="13000.00000" pt_clust_9="13000.00000"></scales>
<clustering>
<clus scale="   91.125">  7  8 -1 -1</clus>
<clus scale="   92.437">  5  6 -1 -1</clus>
<clus scale="  201.378">  7  9 -1 -1</clus>
<clus scale="  208.723">  2  5  1 -1</clus>
<clus scale="  296.185">  1  5  2 -1</clus>
</clustering>
</event>
<event>
 9    1  0.3312826E-006  0.3341495E+03  0.7546771E-02  0.1129407E+00
         21   -1    0    0  501  502  0.00000000000E+00  0.00000000000E+00  0.35307092768E+03  0.35307092768E+03  0.00000000000E+00 0.  1.
         -2   -1    0    0    0  501 -0.00000000000E+00 -0.00000000000E+00 -0.12013943093E+03  0.12013943093E+03  0.00000000000E+00 0.  1.
         23    2    1    2    0    0  0.32056365047E+02 -0.40019885600E+01  0.82420607024E+01  0.70542746043E+02  0.62166880268E+02 0.  0.
         23    2    1    2    0    0 -0.66102005408E+02 -0.33399526404E+02 -0.47233300254E+02  0.12608136297E+03  0.90446237919E+02 0.  0.
        -11    1    3    3    0    0  0.18309765024E+02 -0.32521444210E+02  0.10593997944E+02  0.38795935628E+02  0.00000000000E+00 0.  1.
         11    1    3    3    0    0  0.13746600023E+02  0.28519455650E+02 -0.23519372416E+01  0.31746810416E+02  0.00000000000E+00 0. -1.
        -13    1    4    4    0    0 -0.39749305327E+02 -0.31285937706E+02  0.19568926628E+02  0.54237994630E+02  0.00000000000E+00 0. -1.
         13    1    4    4    0    0 -0.26352700081E+02 -0.21135886978E+01 -0.66802226881E+02  0.71843368344E+02  0.00000000000E+00 0.  1.
         -2    1    1    2    0  502  0.34045640361E+02  0.37401514964E+02  0.27192273630E+03  0.27658624960E+03  0.00000000000E+00 0.  1.
<scales pt_clust_5="13000.00000" pt_clust_6="13000.00000" pt_clust_7="13000.00000" pt_clust_8="13000.00000" pt_clust_9="13000.00000"></scales>
<clustering>
<clus scale="   62.167">  5  6 -1 -1</clus>
<clus scale="   70.060">  2  5  1 -1</clus>
<clus scale="   90.446">  7  8 -1 -1</clus>
<clus scale="   51.069">  7  9 -1 -1</clus>
<clus scale="  334.149">  1  5  2 -1</clus>
</clustering>
</event>
<event>
 9    1  0.3312826E-006  0.4421368E+03  0.7546771E-02  0.1054454E+00
         21   -1    0    0  501  502  0.00000000000E+00  0.00000000000E+00  0.18266215638E+03  0.18266215638E+03  0.00000000000E+00 0. -1.
          2   -1    0    0  502    0 -0.00000000000E+00 -0.00000000000E+00 -0.84478555970E+03  0.84478555970E+03  0.00000000000E+00 0. -1.
         23    2    1    2    0    0 -0.18564140590E+03  0.68883773554E+02  0.14926098211E+02  0.21881864757E+03  0.91929898701E+02 0.  0.
         23    2    1    2    0    0  0.27395849034E+03 -0.10251103162E+03 -0.63540155223E+03  0.70535636363E+03  0.90723211493E+02 0.  0.
        -11    1    3    3    0    0 -0.85290257604E+02  0.40266788288E+02  0.52455799096E+02  0.10792336698E+03  0.00000000000E+00 0.  1.
         11    1    3    3    0    0 -0.10035114829E+03  0.28616985265E+02 -0.37529700885E+02  0.11089528059E+03  0.00000000000E+00 0. -1.
        -11    1    4    4    0    0  0.13214654648E+03 -0.42568510817E+02 -0.19941168361E+03  0.24298108449E+03  0.00000000000E+00 0.  1.
         11    1    4    4    0    0  0.14181194387E+03 -0.59942520803E+02 -0.43598986862E+03  0.46237527914E+03  0.00000000000E+00 0. -1.
          2    1    1    2  501    0 -0.88317084448E+02  0.33627258066E+02 -0.41647949306E+02  0.10327270487E+03  0.00000000000E+00 0. -1.
<scales pt_clust_5="13000.00000" pt_clust_6="13000.00000" pt_clust_7="13000.00000" pt_clust_8="13000.00000" pt_clust_9="13000.00000"></scales>
<clustering>
<clus scale="   90.723">  7  8 -1 -1</clus>
<clus scale="   91.930">  5  6 -1 -1</clus>
<clus scale="   94.502">  7  9 -1 -1</clus>
<clus scale="  218.309">  2  5  1 -1</clus>
<clus scale="  442.137">  1  5  2 -1</clus>
</clustering>
</event>
<event>
 9    1  0.3312826E-006  0.2058794E+03  0.7546771E-02  0.1176516E+00
         21   -1    0    0  501  502  0.00000000000E+00  0.00000000000E+00  0.19511914864E+03  0.19511914864E+03  0.00000000000E+00 0.  1.
         -3   -1    0    0    0  501 -0.00000000000E+00 -0.00000000000E+00 -0.18500869196E+03  0.18500869196E+03  0.00000000000E+00 0.  1.
         23    2    1    2    0    0 -0.29447090653E+02  0.18513049564E+02 -0.10515888980E+03  0.14417581864E+03  0.92295235109E+02 0.  0.
         23    2    1    2    0    0  0.31533581134E+01 -0.11295236461E+02 -0.24976171424E+02  0.93080532538E+02  0.88896852388E+02 0.  0.
        -11    1    3    3    0    0 -0.58669060481E+02  0.53248547556E+01 -0.92585582942E+02  0.10973833835E+03  0.00000000000E+00 0.  1.
         11    1    3    3    0    0  0.29221969828E+02  0.13188194808E+02 -0.12573306857E+02  0.34437480283E+02  0.00000000000E+00 0. -1.
        -11    1    4    4    0    0 -0.23654859088E+02 -0.31721455399E+02 -0.39923751868E+02  0.56211289385E+02  0.00000000000E+00 0. -1.
         11    1    4    4    0    0  0.26808217201E+02  0.20426218938E+02  0.14947580443E+02  0.36869243153E+02  0.00000000000E+00 0.  1.
         -3    1    1    2    0  502  0.26293732540E+02 -0.72178131026E+01  0.14024551790E+03  0.14287148942E+03  0.00000000000E+00 0.  1.
<scales pt_clust_5="13000.00000" pt_clust_6="13000.00000" pt_clust_7="13000.00000" pt_clust_8="13000.00000" pt_clust_9="13000.00000"></scales>
<clustering>
<clus scale="   88.897">  7  8 -1 -1</clus>
<clus scale="   27.266">  7  9 -1 -1</clus>
<clus scale="   92.295">  5  6 -1 -1</clus>
<clus scale="   98.632">  2  5  1 -1</clus>
<clus scale="  205.879">  1  5  2 -1</clus>
</clustering>
</event>
<event>
 9    1  0.3312826E-006  0.1703146E+03  0.7546771E-02  0.1189424E+00
          2   -1    0    0  502    0 -0.00000000000E+00  0.00000000000E+00  0.21782382308E+03  0.21782382308E+03  0.00000000000E+00 0. -1.
         21   -1    0    0  501  502  0.00000000000E+00 -0.00000000000E+00 -0.20586821663E+03  0.20586821663E+03  0.00000000000E+00 0. -1.
         23    2    1    2    0    0  0.93165818846E+02 -0.16127911778E+02  0.15402575058E+03  0.20190163382E+03  0.90001991965E+02 0.  0.
         23    2    1    2    0    0 -0.35327863439E+02  0.42749388009E+02 -0.96559539532E+02  0.14352708617E+03  0.90557780882E+02 0.  0.
        -13    1    3    3    0    0  0.36247278997E+02 -0.28883444393E+02  0.13140424372E+03  0.13933841489E+03  0.00000000000E+00 0.  1.
         13    1    3    3    0    0  0.56918539849E+02  0.12755532615E+02  0.22621506859E+02  0.62563218934E+02  0.00000000000E+00 0. -1.
        -13    1    4    4    0    0 -0.16552315283E+02 -0.19228214205E+02  0.21591505388E+01  0.25463018160E+02  0.00000000000E+00 0.  1.
         13    1    4    4    0    0 -0.18775548156E+02  0.61977602214E+02 -0.98718690071E+02  0.11806406801E+03  0.00000000000E+00 0. -1.
          2    1    1    2  501    0 -0.57837955408E+02 -0.26621476231E+02 -0.45510604596E+02  0.78263319717E+02  0.00000000000E+00 0. -1.
<scales pt_clust_5="13000.00000" pt_clust_6="13000.00000" pt_clust_7="13000.00000" pt_clust_8="13000.00000" pt_clust_9="13000.00000"></scales>
<clustering>
<clus scale="   90.002">  5  6 -1 -1</clus>
<clus scale="   90.558">  7  8 -1 -1</clus>
<clus scale="   63.671">  7  9 -1 -1</clus>
<clus scale="  130.539">  1  5  2 -1</clus>
<clus scale="  170.315">  2  5  1 -1</clus>
</clustering>
</event>
<event>
 9    1  0.3312826E-006  0.4012119E+03  0.7546771E-02  0.1082531E+00
         21   -1    0    0  501  502  0.00000000000E+00  0.00000000000E+00  0.70352692273E+03  0.70352692273E+03  0.00000000000E+00 0. -1.
          2   -1    0    0  502    0 -0.00000000000E+00 -0.00000000000E+00 -0.19316903975E+03  0.19316903975E+03  0.00000000000E+00 0. -1.
         23    2    1    2    0    0  0.45699005277E+02 -0.83440306805E+02 -0.98882599667E+02  0.16721332027E+03  0.95560672229E+02 0.  0.
         23    2    1    2    0    0  0.46206370334E+02 -0.66645335966E+02  0.35683398558E+02  0.12953262183E+03  0.94492146342E+02 0.  0.
        -11    1    3    3    0    0  0.16402187052E+02  0.20830866326E+02 -0.20614790157E+02  0.33584614114E+02  0.00000000000E+00 0.  1.
         11    1    3    3    0    0  0.29296818224E+02 -0.10427117313E+03 -0.78267809511E+02  0.13362870616E+03  0.00000000000E+00 0. -1.
        -13    1    4    4    0    0 -0.21684421777E+02 -0.40675969198E+02  0.33191763421E+02  0.56801776178E+02  0.00000000000E+00 0.  1.
         13    1    4    4    0    0  0.67890792111E+02 -0.25969366768E+02  0.24916351371E+01  0.72730845653E+02  0.00000000000E+00 0. -1.
          2    1    1    2  501    0 -0.91905375611E+02  0.15008564277E+03  0.57355708409E+03  0.59995002037E+03  0.00000000000E+00 0. -1.
<scales pt_clust_5="13000.00000" pt_clust_6="13000.00000" pt_clust_7="13000.00000" pt_clust_8="13000.00000" pt_clust_9="13000.00000"></scales>
<clustering>
<clus scale="   94.492">  7  8 -1 -1</clus>
<clus scale="   95.561">  5  6 -1 -1</clus>
<clus scale="  134.843">  2  5  1 -1</clus>
<clus scale="  155.135">  7  9 -1 -1</clus>
<clus scale="  401.212">  1  5  2 -1</clus>
</clustering>
</event>
<event>
 9    1  0.3312826E-006  0.1575624E+03  0.7546771E-02  0.1204722E+00
         21   -1    0    0  501  502  0.00000000000E+00  0.00000000000E+00  0.76197865975E+02  0.76197865975E+02  0.00000000000E+00 0.  1.
         -1   -1    0    0    0  501 -0.00000000000E+00 -0.00000000000E+00 -0.25338002253E+03  0.25338002253E+03  0.00000000000E+00 0.  1.
         23    2    1    2    0    0  0.40410061770E+02  0.61678470286E+02 -0.96934231194E+02  0.15275693981E+03  0.92202118707E+02 0.  0.
         23    2    1    2    0    0 -0.98138354293E+01 -0.12435395975E+02 -0.66996053466E+02  0.11735144775E+03  0.95036522820E+02 0.  0.
        -13    1    4    4    0    0 -0.14397745674E+02  0.40041679646E+02 -0.21149869352E+02  0.47517872037E+02  0.00000000000E+00 0. -1.
         13    1    4    4    0    0  0.45839102449E+01 -0.52477075620E+02 -0.45846184114E+02  0.69833575711E+02  0.00000000000E+00 0.  1.
        -13    1    3    3    0    0 -0.59776419607E+01  0.33078755828E+02  0.79664420875E+01  0.34545629102E+02  0.00000000000E+00 0.  1.
         13    1    3    3    0    0  0.46387703731E+02  0.28599714458E+02 -0.10490067328E+03  0.11821131071E+03  0.00000000000E+00 0. -1.
         -1    1    1    2    0  502 -0.30596226341E+02 -0.49243074311E+02 -0.13251871895E+02  0.59469500945E+02  0.00000000000E+00 0.  1.
<scales pt_clust_5="13000.00000" pt_clust_6="13000.00000" pt_clust_7="13000.00000" pt_clust_8="13000.00000" pt_clust_9="13000.00000"></scales>
<clustering>
<clus scale="   92.202">  7  8 -1 -1</clus>
<clus scale="   95.037">  5  6 -1 -1</clus>
<clus scale="   57.974">  5  9 -1 -1</clus>
<clus scale="  118.061">  2  7  1 -1</clus>
<clus scale="  157.562">  1  5  2 -1</clus>
</clustering>
</event>
<event>
 9    1  0.3312826E-006  0.1863988E+03  0.7546771E-02  0.1176324E+00
          1   -1    0    0  502    0 -0.00000000000E+00  0.00000000000E+00  0.24371412877E+03  0.24371412877E+03  0.00000000000E+00 0. -1.
         21   -1    0    0  501  502  0.00000000000E+00 -0.00000000000E+00 -0.18941760492E+03  0.18941760492E+03  0.00000000000E+00 0.  1.
         23    2    1    2    0    0  0.12368851211E+02  0.95961549493E+02  0.16816708104E+03  0.21470318382E+03  0.91954785277E+02 0.  0.
         23    2    1    2    0    0 -0.33808162212E+02 -0.11923920783E+03 -0.95488870348E+02  0.18183101110E+03  0.92646703772E+02 0.  0.
        -13    1    3    3    0    0 -0.24308293903E+02  0.91507270762E+02  0.10387126899E+03  0.14054790740E+03  0.00000000000E+00 0. -1.
         13    1    3    3    0    0  0.36677145114E+02  0.44542787312E+01  0.64295812049E+02  0.74155276412E+02  0.00000000000E+00 0.  1.
        -13    1    4    4    0    0 -0.58695591773E+02 -0.11140794033E+03 -0.90984187393E+02  0.15535451077E+03  0.00000000000E+00 0.  1.
         13    1    4    4    0    0  0.24887429561E+02 -0.78312674999E+01 -0.45046829552E+01  0.26476500323E+02  0.00000000000E+00 0. -1.
          1    1    1    2  501    0  0.21439311000E+02  0.23277658336E+02 -0.18381686833E+02  0.36597538778E+02  0.00000000000E+00 0. -1.
<scales pt_clust_5="13000.00000" pt_clust_6="13000.00000" pt_clust_7="13000.00000" pt_clust_8="13000.00000" pt_clust_9="13000.00000"></scales>
<clustering>
<clus scale="   91.955">  5  6 -1 -1</clus>
<clus scale="   92.647">  7  8 -1 -1</clus>
<clus scale="   31.646">  7  9 -1 -1</clus>
<clus scale="  133.481">  1  5  2 -1</clus>
<clus scale="  186.399">  2  5  1 -1</clus>
</clustering>
</event>
<event>
 9    1  0.3312826E-006  0.1864420E+03  0.7546771E-02  0.1187626E+00
         21   -1    0    0  501  502  0.00000000000E+00  0.00000000000E+00  0.43535024790E+03  0.43535024790E+03  0.00000000000E+00 0. -1.
         -1   -1    0    0    0  501 -0.00000000000E+00 -0.00000000000E+00 -0.55852049602E+02  0.55852049602E+02  0.00000000000E+00 0.  1.
         23    2    1    2    0    0 -0.23328992507E+02 -0.43965421290E+02  0.55747267971E+02  0.11760455758E+03  0.90806794437E+02 0.  0.
         23    2    1    2    0    0  0.28308502100E+02 -0.39112933872E+02  0.15105479151E+03  0.18189284960E+03  0.89085721700E+02 0.  0.
        -13    1    4    4    0    0 -0.11179540302E+02 -0.50029437947E+02  0.11997731271E+03  0.13047023549E+03  0.00000000000E+00 0. -1.
         13    1    4    4    0    0  0.39488042403E+02  0.10916504075E+02  0.31077478804E+02  0.51422614119E+02  0.00000000000E+00 0.  1.
        -13    1    3    3    0    0  0.19341758717E+02  0.18147830831E+02  0.24219632702E+02  0.35917099024E+02  0.00000000000E+00 0.  1.
         13    1    3    3    0    0 -0.42670751224E+02 -0.62113252121E+02  0.31527635269E+02  0.81687458552E+02  0.00000000000E+00 0. -1.
         -1    1    1    2    0  502 -0.49795095928E+01  0.83078355162E+02  0.17269613882E+03  0.19170489033E+03  0.00000000000E+00 0.  1.
<scales pt_clust_5="13000.00000" pt_clust_6="13000.00000" pt_clust_7="13000.00000" pt_clust_8="13000.00000" pt_clust_9="13000.00000"></scales>
<clustering>
<clus scale="   89.086">  5  6 -1 -1</clus>
<clus scale="   83.227">  5  9 -1 -1</clus>
<clus scale="   90.807">  7  8 -1 -1</clus>
<clus scale="  103.552">  2  7  1 -1</clus>
<clus scale="  186.442">  1  5  2 -1</clus>
</clustering>
</event>
<event>
 9    1  0.3312826E-006  0.3473483E+03  0.7546771E-02  0.1104401E+00
          2   -1    0    0  502    0 -0.00000000000E+00  0.00000000000E+00  0.83022826405E+02  0.83022826405E+02  0.00000000000E+00 0. -1.
         21   -1    0    0  501  502  0.00000000000E+00 -0.00000000000E+00 -0.85399143626E+03  0.85399143626E+03  0.00000000000E+00 0. -1.
         23    2    1    2    0    0  0.68213479393E+02 -0.21765013154E+02 -0.44691789223E+03  0.46197770570E+03  0.92525691567E+02 0.  0.
         23    2    1    2    0    0  0.55067637304E+02  0.12816209504E+03 -0.92117682711E+02  0.19164371046E+03  0.93721272965E+02 0.  0.
        -11    1    4    4    0    0  0.29288727644E+02  0.12547831137E+03 -0.10155464045E+03  0.16406090695E+03  0.00000000000E+00 0. -1.
         11    1    4    4    0    0  0.25778909659E+02  0.26837836698E+01  0.94369577401E+01  0.27582803509E+02  0.00000000000E+00 0.  1.
        -13    1    3    3    0    0  0.83964796728E+02  0.29204722591E+01 -0.27378196627E+03  0.28638292775E+03  0.00000000000E+00 0. -1.
         13    1    3    3    0    0 -0.15751317335E+02 -0.24685485413E+02 -0.17313592595E+03  0.17559477795E+03  0.00000000000E+00 0.  1.
          2    1    1    2  501    0 -0.12328111670E+03 -0.10639708189E+03 -0.23193303492E+03  0.28339284651E+03  0.00000000000E+00 0. -1.
<scales pt_clust_5="13000.00000" pt_clust_6="13000.00000" pt_clust_7="13000.00000" pt_clust_8="13000.00000" pt_clust_9="13000.00000"></scales>
<clustering>
<clus scale="   92.526">  7  8 -1 -1</clus>
<clus scale="   93.721">  5  6 -1 -1</clus>
<clus scale="  116.995">  1  7  2 -1</clus>
<clus scale="  151.527">  5  9 -1 -1</clus>
<clus scale="  347.348">  2  5  1 -1</clus>
</clustering>
</event>
<event>
 9    1  0.3312826E-006  0.3479435E+03  0.7546771E-02  0.1103021E+00
          4   -1    0    0  502    0 -0.00000000000E+00  0.00000000000E+00  0.58565591564E+03  0.58565591564E+03  0.00000000000E+00 0. -1.
         21   -1    0    0  501  502  0.00000000000E+00 -0.00000000000E+00 -0.18257471382E+03  0.18257471382E+03  0.00000000000E+00 0. -1.
         23    2    1    2    0    0  0.56926960628E+02  0.52858931038E+02  0.40260894145E+03  0.42028678681E+03  0.92262007314E+02 0.  0.
         23    2    1    2    0    0 -0.58582800606E+02  0.37528014761E+01  0.15197115297E+03  0.18620471776E+03  0.90171711407E+02 0.  0.
        -11    1    4    4    0    0 -0.47686558061E+02  0.44594148821E+02  0.94636326619E+02  0.11497251952E+03  0.00000000000E+00 0. -1.
         11    1    4    4    0    0 -0.10896242545E+02 -0.40841347345E+02  0.57334826348E+02  0.71232198245E+02  0.00000000000E+00 0.  1.
        -13    1    3    3    0    0  0.81203853437E+02  0.31356647744E+02  0.26598406046E+03  0.27986572778E+03  0.00000000000E+00 0.  1.
         13    1    3    3    0    0 -0.24276892809E+02  0.21502283294E+02  0.13662488099E+03  0.14042105902E+03  0.00000000000E+00 0. -1.
          4    1    1    2  501    0  0.16558399783E+01 -0.56611732514E+02 -0.15149889259E+03  0.16173912489E+03  0.00000000000E+00 0. -1.
<scales pt_clust_5="13000.00000" pt_clust_6="13000.00000" pt_clust_7="13000.00000" pt_clust_8="13000.00000" pt_clust_9="13000.00000"></scales>
<clustering>
<clus scale="   90.172">  5  6 -1 -1</clus>
<clus scale="   56.636">  5  9 -1 -1</clus>
<clus scale="   92.262">  7  8 -1 -1</clus>
<clus scale="  120.611">  1  7  2 -1</clus>
<clus scale="  347.944">  2  5  1 -1</clus>
</clustering>
</event>
<event>
 9    1  0.3312826E-006  0.1990815E+03  0.7546771E-02  0.1175655E+00
         21   -1    0    0  501  502  0.00000000000E+00  0.00000000000E+00  0.12424809273E+03  0.12424809273E+03  0.00000000000E+00 0.  1.
         -4   -1    0    0    0  501 -0.00000000000E+00 -0.00000000000E+00 -0.24523748343E+03  0.24523748343E+03  0.00000000000E+00 0.  1.
         23    2    1    2    0    0  0.60367582161E+02  0.97264022492E+01 -0.12888616749E+03  0.17024747514E+03  0.92917763350E+02 0.  0.
         23    2    1    2    0    0 -0.10416225282E+03 -0.16080639808E+02 -0.16296341633E+02  0.14880342552E+03  0.10377151251E+03 0.  0.
        -11    1    3    3    0    0 -0.11586733028E+02 -0.25771373202E+02 -0.18465584843E+02  0.33754909015E+02  0.00000000000E+00 0.  1.
         11    1    3    3    0    0  0.71954315189E+02  0.35497775452E+02 -0.11042058265E+03  0.13649256613E+03  0.00000000000E+00 0. -1.
        -11    1    4    4    0    0 -0.42793450443E+02 -0.10303860068E+02 -0.59150109120E+02  0.73730484482E+02  0.00000000000E+00 0.  1.
         11    1    4    4    0    0 -0.61368802374E+02 -0.57767797396E+01  0.42853767486E+02  0.75072941042E+02  0.00000000000E+00 0. -1.
         -4    1    1    2    0  502  0.43794670656E+02  0.63542375584E+01  0.24193118418E+02  0.50434675488E+02  0.00000000000E+00 0.  1.
<scales pt_clust_5="13000.00000" pt_clust_6="13000.00000" pt_clust_7="13000.00000" pt_clust_8="13000.00000" pt_clust_9="13000.00000"></scales>
<clustering>
<clus scale="   92.918">  5  6 -1 -1</clus>
<clus scale="  103.772">  7  8 -1 -1</clus>
<clus scale="   44.253">  7  9 -1 -1</clus>
<clus scale="  111.232">  2  5  1 -1</clus>
<clus scale="  199.082">  1  5  2 -1</clus>
</clustering>
</event>
<event>
 9    1  0.3312826E-006  0.2363452E+03  0.7546771E-02  0.1160721E+00
         -3   -1    0    0    0  501 -0.00000000000E+00  0.00000000000E+00  0.73285686562E+03  0.73285686562E+03  0.00000000000E+00 0.  1.
         21   -1    0    0  501  502  0.00000000000E+00 -0.00000000000E+00 -0.41858457226E+02  0.41858457226E+02  0.00000000000E+00 0.  1.
         23    2    1    2    0    0  0.59956625110E+01 -0.19039054348E+02  0.33158258683E+03  0.34455397195E+03  0.91498601814E+02 0.  0.
         23    2    1    2    0    0 -0.95727173297E+02 -0.53457775497E+01  0.14594643416E+03  0.19731903642E+03  0.91881289961E+02 0.  0.
        -11    1    4    4    0    0 -0.10666816966E+03 -0.24848769248E+02  0.11185246441E+03  0.15654562768E+03  0.00000000000E+00 0.  1.
         11    1    4    4    0    0  0.10940996366E+02  0.19502991698E+02  0.34093969755E+02  0.40773408740E+02  0.00000000000E+00 0. -1.
        -13    1    3    3    0    0  0.10118516280E+02  0.35066855168E+02  0.93613115244E+02  0.10047628600E+03  0.00000000000E+00 0. -1.
         13    1    3    3    0    0 -0.41228537688E+01 -0.54105909516E+02  0.23796947159E+03  0.24407768595E+03  0.00000000000E+00 0.  1.
         -3    1    1    2    0  502  0.89731510786E+02  0.24384831898E+02  0.21346938740E+03  0.23284231447E+03  0.00000000000E+00 0.  1.
<scales pt_clust_5="13000.00000" pt_clust_6="13000.00000" pt_clust_7="13000.00000" pt_clust_8="13000.00000" pt_clust_9="13000.00000"></scales>
<clustering>
<clus scale="   91.499">  7  8 -1 -1</clus>
<clus scale="   91.881">  5  6 -1 -1</clus>
<clus scale="   92.986">  5  9 -1 -1</clus>
<clus scale="   93.651">  1  7  2 -1</clus>
<clus scale="  236.345">  2  5  1 -1</clus>
</clustering>
</event>
<event>
 9    1  0.3312826E-006  0.1348195E+03  0.7546771E-02  0.1238508E+00
         -3   -1    0    0    0  501 -0.00000000000E+00  0.00000000000E+00  0.12082270839E+03  0.12082270839E+03  0.00000000000E+00 0.  1.
         21   -1    0    0  501  502  0.00000000000E+00 -0.00000000000E+00 -0.15271142156E+03  0.15271142156E+03  0.00000000000E+00 0.  1.
         23    2    1    2    0    0  0.75559270428E+01  0.15074122180E+02 -0.87589283010E+02  0.12766140371E+03  0.91330336178E+02 0.  0.
         23    2    1    2    0    0  0.27093667991E+02 -0.26262868694E+02  0.40558840501E+02  0.10643854751E+03  0.90886411169E+02 0.  0.
        -11    1    4    4    0    0  0.68474307253E+01 -0.55836111188E+02  0.42564306106E+02  0.70542744307E+02  0.00000000000E+00 0.  1.
         11    1    4    4    0    0  0.20246237265E+02  0.29573242494E+02 -0.20054656050E+01  0.35895803199E+02  0.00000000000E+00 0. -1.
        -11    1    3    3    0    0  0.45211306833E+02  0.27210256156E+02 -0.56807911022E+02  0.77534502386E+02  0.00000000000E+00 0.  1.
         11    1    3    3    0    0 -0.37655379790E+02 -0.12136133976E+02 -0.30781371989E+02  0.50126901326E+02  0.00000000000E+00 0. -1.
         -3    1    1    2    0  502 -0.34649595034E+02  0.11188746514E+02  0.15141729336E+02  0.39434178726E+02  0.00000000000E+00 0.  1.
<scales pt_clust_5="13000.00000" pt_clust_6="13000.00000" pt_clust_7="13000.00000" pt_clust_8="13000.00000" pt_clust_9="13000.00000"></scales>
<clustering>
<clus scale="   90.886">  5  6 -1 -1</clus>
<clus scale="   36.411">  5  9 -1 -1</clus>
<clus scale="   91.330">  7  8 -1 -1</clus>
<clus scale="   92.874">  1  7  2 -1</clus>
<clus scale="  134.820">  2  5  1 -1</clus>
</clustering>
</event>
<event>
 9    1  0.3312826E-006  0.2630145E+03  0.7546771E-02  0.1142334E+00
         21   -1    0    0  501  502  0.00000000000E+00  0.00000000000E+00  0.52869424102E+02  0.52869424102E+02  0.00000000000E+00 0.  1.
         -1   -1    0    0    0  501 -0.00000000000E+00 -0.00000000000E+00 -0.64183862638E+03  0.64183862638E+03  0.00000000000E+00 0.  1.
         23    2    1    2    0    0 -0.48114424568E+02  0.18838024651E+02 -0.15242110780E+03  0.18505045986E+03  0.91332412467E+02 0.  0.
         23    2    1    2    0    0  0.98104673158E+02 -0.25095003885E+02 -0.43839172236E+03  0.45924356770E+03  0.91994924435E+02 0.  0.
        -11    1    4    4    0    0  0.83208426712E+02 -0.54701491886E+02 -0.27374083468E+03  0.29129013039E+03  0.00000000000E+00 0.  1.
         11    1    4    4    0    0  0.14896246446E+02  0.29606488001E+02 -0.16465088768E+03  0.16795343731E+03  0.00000000000E+00 0. -1.
        -13    1    3    3    0    0 -0.23715566532E+02  0.55703901887E+02 -0.93474986863E+02  0.11136842439E+03  0.00000000000E+00 0.  1.
         13    1    3    3    0    0 -0.24398858037E+02 -0.36865877236E+02 -0.58946120938E+02  0.73682035474E+02  0.00000000000E+00 0. -1.
         -1    1    1    2    0  502 -0.49990248590E+02  0.62569792336E+01  0.18436278863E+01  0.50414022920E+02  0.00000000000E+00 0.  1.
<scales pt_clust_5="13000.00000" pt_clust_6="13000.00000" pt_clust_7="13000.00000" pt_clust_8="13000.00000" pt_clust_9="13000.00000"></scales>
<clustering>
<clus scale="   91.332">  7  8 -1 -1</clus>
<clus scale="   91.995">  5  6 -1 -1</clus>
<clus scale="   50.380">  5  9 -1 -1</clus>
<clus scale="  104.936">  2  7  1 -1</clus>
<clus scale="  263.014">  1  5  2 -1</clus>
</clustering>
</event>
<event>
 9    1  0.3312826E-006  0.3271880E+03  0.7546771E-02  0.1120297E+00
         21   -1    0    0  501  502  0.00000000000E+00  0.00000000000E+00  0.18338941392E+03  0.18338941392E+03  0.00000000000E+00 0.  1.
         -1   -1    0    0    0  501 -0.00000000000E+00 -0.00000000000E+00 -0.31682402953E+03  0.31682402953E+03  0.00000000000E+00 0.  1.
         23    2    1    2    0    0 -0.21490247100E+02  0.16938317912E+02 -0.14530826843E+03  0.17281011617E+03  0.89443311886E+02 0.  0.
         23    2    1    2    0    0  0.12335073426E+03  0.34542842916E+02 -0.82311800306E+02  0.17942776056E+03  0.94923533179E+02 0.  0.
        -11    1    4    4    0    0  0.10609885188E+03  0.63980450296E+02 -0.73984829282E+02  0.14430599209E+03  0.00000000000E+00 0.  1.
         11    1    4    4    0    0  0.17251882386E+02 -0.29437607380E+02 -0.83269710242E+01  0.35121768472E+02  0.00000000000E+00 0. -1.
        -13    1    3    3    0    0  0.16504958497E+01  0.40632766618E+02 -0.13020752052E+03  0.13641020585E+03  0.00000000000E+00 0. -1.
         13    1    3    3    0    0 -0.23140742949E+02 -0.23694448706E+02 -0.15100747912E+02  0.36399910319E+02  0.00000000000E+00 0.  1.
         -1    1    1    2    0  502 -0.10186048716E+03 -0.51481160828E+02  0.94185453127E+02  0.14797556672E+03  0.00000000000E+00 0.  1.
<scales pt_clust_5="13000.00000" pt_clust_6="13000.00000" pt_clust_7="13000.00000" pt_clust_8="13000.00000" pt_clust_9="13000.00000"></scales>
<clustering>
<clus scale="   89.443">  7  8 -1 -1</clus>
<clus scale="   93.535">  2  7  1 -1</clus>
<clus scale="   94.924">  5  6 -1 -1</clus>
<clus scale="  116.175">  5  9 -1 -1</clus>
<clus scale="  327.188">  1  5  2 -1</clus>
</clustering>
</event>
<event>
 9    1  0.3312826E-006  0.1688568E+03  0.7546771E-02  0.1206013E+00
         -1   -1    0    0    0  501 -0.00000000000E+00  0.00000000000E+00  0.15982954553E+03  0.15982954553E+03  0.00000000000E+00 0.  1.
         21   -1    0    0  501  502  0.00000000000E+00 -0.00000000000E+00 -0.11597616517E+03  0.11597616517E+03  0.00000000000E+00 0.  1.
         23    2    1    2    0    0  0.52834022695E+01 -0.85295294852E+01  0.51902515649E+02  0.10675715021E+03  0.92749936811E+02 0.  0.
         23    2    1    2    0    0  0.15565899572E+01  0.33226727720E+02  0.36823262462E+02  0.11737391318E+03  0.10636843719E+03 0.  0.
        -11    1    3    3    0    0  0.97725085026E+01 -0.36090493095E+02  0.65712067069E+02  0.75604903100E+02  0.00000000000E+00 0.  1.
         11    1    3    3    0    0 -0.44891062331E+01  0.27560963610E+02 -0.13809551420E+02  0.31152247115E+02  0.00000000000E+00 0. -1.
        -11    1    4    4    0    0 -0.41038865753E+02 -0.15171631709E+02  0.28851982369E+02  0.52409958955E+02  0.00000000000E+00 0.  1.
         11    1    4    4    0    0  0.42595455710E+02  0.48398359429E+02  0.79712800931E+01  0.64963954228E+02  0.00000000000E+00 0. -1.
         -1    1    1    2    0  502 -0.68399922267E+01 -0.24697198234E+02 -0.44872397745E+02  0.51674647301E+02  0.00000000000E+00 0.  1.
<scales pt_clust_5="13000.00000" pt_clust_6="13000.00000" pt_clust_7="13000.00000" pt_clust_8="13000.00000" pt_clust_9="13000.00000"></scales>
<clustering>
<clus scale="   92.750">  5  6 -1 -1</clus>
<clus scale="   93.291">  1  5  2 -1</clus>
<clus scale="  106.368">  7  8 -1 -1</clus>
<clus scale="   25.916">  7  9 -1 -1</clus>
<clus scale="  168.857">  2  5  1 -1</clus>
</clustering>
</event>
<event>
 9    1  0.3312826E-006  0.2507678E+03  0.7546771E-02  0.1142051E+00
         21   -1    0    0  501  502  0.00000000000E+00  0.00000000000E+00  0.16737950856E+03  0.16737950856E+03  0.00000000000E+00 0.  1.
          3   -1    0    0  502    0 -0.00000000000E+00 -0.00000000000E+00 -0.39176300418E+03  0.39176300418E+03  0.00000000000E+00 0. -1.
         23    2    1    2    0    0  0.48866465802E+02  0.42712536474E+02 -0.27724833804E+03  0.30286305348E+03  0.10318476614E+03 0.  0.
         23    2    1    2    0    0 -0.12813215278E+03  0.57812809832E+01  0.29608784940E+02  0.16049040105E+03  0.91810766785E+02 0.  0.
        -11    1    4    4    0    0 -0.66978113463E+02  0.10919297901E+01 -0.31399800980E+02  0.73981129319E+02  0.00000000000E+00 0. -1.
         11    1    4    4    0    0 -0.61154039318E+02  0.46893511931E+01  0.61008585920E+02  0.86509271731E+02  0.00000000000E+00 0.  1.
        -11    1    3    3    0    0  0.69345940153E+02 -0.36717546895E+01 -0.13435114884E+03  0.15123680899E+03  0.00000000000E+00 0. -1.
         11    1    3    3    0    0 -0.20479474351E+02  0.46384291163E+02 -0.14289718920E+03  0.15162624449E+03  0.00000000000E+00 0.  1.
          3    1    1    2  501    0  0.79265686978E+02 -0.48493817457E+02  0.23256057488E+02  0.95789058214E+02  0.00000000000E+00 0. -1.
<scales pt_clust_5="13000.00000" pt_clust_6="13000.00000" pt_clust_7="13000.00000" pt_clust_8="13000.00000" pt_clust_9="13000.00000"></scales>
<clustering>
<clus scale="   91.811">  5  6 -1 -1</clus>
<clus scale="   92.923">  5  9 -1 -1</clus>
<clus scale="  103.185">  7  8 -1 -1</clus>
<clus scale="  121.899">  2  7  1 -1</clus>
<clus scale="  250.768">  1  5  2 -1</clus>
</clustering>
</event>
<event>
 9    1  0.3312826E-006  0.2377527E+03  0.7546771E-02  0.1129214E+00
          2   -1    0    0  502    0 -0.00000000000E+00  0.00000000000E+00  0.10704239708E+04  0.10704239708E+04  0.00000000000E+00 0. -1.
         21   -1    0    0  501  502  0.00000000000E+00 -0.00000000000E+00 -0.89784667411E+02  0.89784667411E+02  0.00000000000E+00 0. -1.
         23    2    1    2    0    0  0.61043494090E+02 -0.15288382234E+03  0.88101212169E+03  0.90242593929E+03  0.10531118665E+03 0.  0.
         23    2    1    2    0    0 -0.15196146344E+02  0.33482756680E+02  0.22903766814E+01  0.97056075766E+02  0.89792082942E+02 0.  0.
        -11    1    4    4    0    0 -0.39126075364E+02  0.43096080846E+02  0.24373236457E+02  0.63104489642E+02  0.00000000000E+00 0.  1.
         11    1    4    4    0    0  0.23929929020E+02 -0.96133241656E+01 -0.22082859776E+02  0.33951586123E+02  0.00000000000E+00 0. -1.
        -13    1    3    3    0    0 -0.13220790799E+02 -0.29006419877E+02  0.52509470434E+02  0.61428057016E+02  0.00000000000E+00 0.  1.
         13    1    3    3    0    0  0.74264284888E+02 -0.12387740246E+03  0.82850265126E+03  0.84099788228E+03  0.00000000000E+00 0. -1.
          2    1    1    2  501    0 -0.45847347746E+02  0.11940106566E+03  0.97336804982E+02  0.16072662312E+03  0.00000000000E+00 0. -1.
<scales pt_clust_5="13000.00000" pt_clust_6="13000.00000" pt_clust_7="13000.00000" pt_clust_8="13000.00000" pt_clust_9="13000.00000"></scales>
<clustering>
<clus scale="   89.792">  5  6 -1 -1</clus>
<clus scale="  105.311">  7  8 -1 -1</clus>
<clus scale="  127.901">  5  9 -1 -1</clus>
<clus scale="  195.423">  1  7  2 -1</clus>
<clus scale="  237.753">  2  5  1 -1</clus>
</clustering>
</event>
<event>
 9    1  0.3312826E-006  0.2418414E+03  0.7546771E-02  0.1150091E+00
          3   -1    0    0  502    0 -0.00000000000E+00  0.00000000000E+00  0.19845060937E+03  0.19845060937E+03  0.00000000000E+00 0. -1.
         21   -1    0    0  501  502  0.00000000000E+00 -0.00000000000E+00 -0.16748891839E+03  0.16748891839E+03  0.00000000000E+00 0. -1.
         23    2    1    2    0    0 -0.49763998777E+02 -0.39692956410E+02 -0.30814461285E+02  0.11633276850E+03  0.92367719680E+02 0.  0.
         23    2    1    2    0    0  0.55606858236E+02 -0.18494464167E+02  0.12206755252E+03  0.16561290314E+03  0.95357109962E+02 0.  0.
        -11    1    3    3    0    0 -0.28602980996E+02  0.28507423185E+02 -0.15796306939E+02  0.43362737591E+02  0.00000000000E+00 0.  1.
         11    1    3    3    0    0 -0.21161017781E+02 -0.68200379595E+02 -0.15018154346E+02  0.72970030905E+02  0.00000000000E+00 0. -1.
        -13    1    4    4    0    0  0.71103672656E+02  0.13325422448E+02  0.10161543038E+03  0.12473569994E+03  0.00000000000E+00 0.  1.
         13    1    4    4    0    0 -0.15496814420E+02 -0.31819886615E+02  0.20452122146E+02  0.40877203202E+02  0.00000000000E+00 0. -1.
          3    1    1    2  501    0 -0.58428594591E+01  0.58187420577E+02 -0.60291400261E+02  0.83993856117E+02  0.00000000000E+00 0. -1.
<scales pt_clust_5="13000.00000" pt_clust_6="13000.00000" pt_clust_7="13000.00000" pt_clust_8="13000.00000" pt_clust_9="13000.00000"></scales>
<clustering>
<clus scale="   92.368">  5  6 -1 -1</clus>
<clus scale="   95.357">  7  8 -1 -1</clus>
<clus scale="   58.480">  7  9 -1 -1</clus>
<clus scale="  112.178">  1  5  2 -1</clus>
<clus scale="  241.841">  2  5  1 -1</clus>
</clustering>
</event>
<event>
 9    1  0.3312826E-006  0.7251369E+03  0.7546771E-02  0.1032789E+00
         21   -1    0    0  501  502  0.00000000000E+00  0.00000000000E+00  0.59888041970E+03  0.59888041970E+03  0.00000000000E+00 0.  1.
         -2   -1    0    0    0  501 -0.00000000000E+00 -0.00000000000E+00 -0.37230848833E+03  0.37230848833E+03  0.00000000000E+00 0.  1.
         23    2    1    2    0    0  0.10895314630E+02  0.15406393040E+02 -0.13281885057E+03  0.16187733704E+03  0.90594483023E+02 0.  0.
         23    2    1    2    0    0  0.10225198199E+03  0.32798006232E+03  0.23911691112E+03  0.42828352417E+03  0.90683464822E+02 0.  0.
        -11    1    4    4    0    0  0.68286238363E+02  0.80759681224E+02  0.69439664239E+02  0.12651878687E+03  0.00000000000E+00 0.  1.
         11    1    4    4    0    0  0.33965743625E+02  0.24722038110E+03  0.16967724688E+03  0.30176473730E+03  0.00000000000E+00 0. -1.
        -11    1    3    3    0    0 -0.89116284873E+00  0.32575982358E+02 -0.13683994937E+03  0.14066684237E+03  0.00000000000E+00 0.  1.
         11    1    3    3    0    0  0.11786477479E+02 -0.17169589318E+02  0.40210988036E+01  0.21210494674E+02  0.00000000000E+00 0. -1.
         -2    1    1    2    0  502 -0.11314729662E+03 -0.34338645536E+03  0.12027387082E+03  0.38102804681E+03  0.00000000000E+00 0.  1.
<scales pt_clust_5="13000.00000" pt_clust_6="13000.00000" pt_clust_7="13000.00000" pt_clust_8="13000.00000" pt_clust_9="13000.00000"></scales>
<clustering>
<clus scale="   90.594">  7  8 -1 -1</clus>
<clus scale="   90.683">  5  6 -1 -1</clus>
<clus scale="   92.539">  2  7  1 -1</clus>
<clus scale="  351.106">  5  9 -1 -1</clus>
<clus scale="  725.137">  1  5  2 -1</clus>
</clustering>
</event>
<event>
 9    1  0.3312826E-006  0.1853045E+03  0.7546771E-02  0.1187121E+00
          2   -1    0    0  502    0 -0.00000000000E+00  0.00000000000E+00  0.98292628111E+02  0.98292628111E+02  0.00000000000E+00 0. -1.
         21   -1    0    0  501  502  0.00000000000E+00 -0.00000000000E+00 -0.53845100022E+03  0.53845100022E+03  0.00000000000E+00 0. -1.
         23    2    1    2    0    0 -0.53047172476E+02  0.15270799370E+02  0.46234774857E+02  0.11624764811E+03  0.91261500443E+02 0.  0.
         23    2    1    2    0    0 -0.14573578480E+02 -0.39207597047E+01 -0.14631025130E+03  0.17356981332E+03  0.92152205149E+02 0.  0.
        -11    1    3    3    0    0 -0.60643392681E+02 -0.14071049665E+02  0.15753063141E+01  0.62274369563E+02  0.00000000000E+00 0.  1.
         11    1    3    3    0    0  0.75962202048E+01  0.29341849035E+02  0.44659468543E+02  0.53973278543E+02  0.00000000000E+00 0. -1.
        -13    1    4    4    0    0  0.83122211374E+01 -0.45250666739E+02 -0.76745270311E+02  0.89479340496E+02  0.00000000000E+00 0.  1.
         13    1    4    4    0    0 -0.22885799617E+02  0.41329907034E+02 -0.69564980991E+02  0.84090472825E+02  0.00000000000E+00 0. -1.
          2    1    1    2  501    0  0.67620750956E+02 -0.11350039665E+02 -0.34008289567E+03  0.34692616691E+03  0.00000000000E+00 0. -1.
<scales pt_clust_5="13000.00000" pt_clust_6="13000.00000" pt_clust_7="13000.00000" pt_clust_8="13000.00000" pt_clust_9="13000.00000"></scales>
<clustering>
<clus scale="   91.262">  5  6 -1 -1</clus>
<clus scale="   92.152">  7  8 -1 -1</clus>
<clus scale="   68.567">  7  9 -1 -1</clus>
<clus scale="  106.658">  1  5  2 -1</clus>
<clus scale="  185.305">  2  5  1 -1</clus>
</clustering>
</event>
<event>
 9    1  0.3312826E-006  0.2058630E+03  0.7546771E-02  0.1174108E+00
          2   -1    0    0  502    0 -0.00000000000E+00  0.00000000000E+00  0.69333549334E+03  0.69333549334E+03  0.00000000000E+00 0.  1.
         21   -1    0    0  501  502  0.00000000000E+00 -0.00000000000E+00 -0.55636595070E+02  0.55636595070E+02  0.00000000000E+00 0.  1.
         23    2    1    2    0    0  0.49424439074E+02 -0.12889107440E+02  0.47579838413E+03  0.48707254706E+03  0.90811119850E+02 0.  0.
         23    2    1    2    0    0 -0.11250891707E+03  0.15562513365E+02  0.11109672227E+03  0.18085743050E+03  0.86408797158E+02 0.  0.
        -11    1    4    4    0    0 -0.27149711824E+02 -0.34753565141E+01  0.85437032855E+02  0.89714388691E+02  0.00000000000E+00 0. -1.
         11    1    4    4    0    0 -0.85359205245E+02  0.19037869879E+02  0.25659689413E+02  0.91143041809E+02  0.00000000000E+00 0.  1.
        -13    1    3    3    0    0  0.16222283961E+02  0.39196548993E+02  0.19479395886E+03  0.19935952036E+03  0.00000000000E+00 0. -1.
         13    1    3    3    0    0  0.33202155113E+02 -0.52085656433E+02  0.28100442527E+03  0.28771302670E+03  0.00000000000E+00 0.  1.
          2    1    1    2  501    0  0.63084477994E+02 -0.26734059244E+01  0.50803791874E+02  0.81042110855E+02  0.00000000000E+00 0.  1.
<scales pt_clust_5="13000.00000" pt_clust_6="13000.00000" pt_clust_7="13000.00000" pt_clust_8="13000.00000" pt_clust_9="13000.00000"></scales>
<clustering>
<clus scale="   86.409">  5  6 -1 -1</clus>
<clus scale="   63.141">  5  9 -1 -1</clus>
<clus scale="   90.811">  7  8 -1 -1</clus>
<clus scale="  104.190">  1  7  2 -1</clus>
<clus scale="  205.863">  2  5  1 -1</clus>
</clustering>
</event>
<event>
 9    1  0.3312826E-006  0.4196581E+03  0.7546771E-02  0.1082995E+00
         21   -1    0    0  501  502  0.00000000000E+00  0.00000000000E+00  0.30380995349E+03  0.30380995349E+03  0.00000000000E+00 0. -1.
          2   -1    0    0  502    0 -0.00000000000E+00 -0.00000000000E+00 -0.55740886551E+03  0.55740886551E+03  0.00000000000E+00 0. -1.
         23    2    1    2    0    0 -0.47207819017E+02  0.53889806063E+02 -0.40013312304E+03  0.41671324492E+03  0.91709993785E+02 0.  0.
         23    2    1    2    0    0 -0.10068858366E+03  0.10755948901E+03 -0.12584203590E+02  0.17384362503E+03  0.91411209531E+02 0.  0.
        -11    1    4    4    0    0 -0.10013135934E+02  0.43116964652E+02 -0.39572314418E+02  0.59374267157E+02  0.00000000000E+00 0.  1.
         11    1    4    4    0    0 -0.90675447722E+02  0.64442524358E+02  0.26988110828E+02  0.11446935787E+03  0.00000000000E+00 0. -1.
        -11    1    3    3    0    0  0.18075058622E+02 -0.13491736509E+02 -0.76754946962E+02  0.80000353632E+02  0.00000000000E+00 0.  1.
         11    1    3    3    0    0 -0.65282877638E+02  0.67381542573E+02 -0.32337817608E+03  0.33671289128E+03  0.00000000000E+00 0. -1.
          2    1    1    2  501    0  0.14789640267E+03 -0.16144929507E+03  0.15911841461E+03  0.27066194906E+03  0.00000000000E+00 0. -1.
<scales pt_clust_5="13000.00000" pt_clust_6="13000.00000" pt_clust_7="13000.00000" pt_clust_8="13000.00000" pt_clust_9="13000.00000"></scales>
<clustering>
<clus scale="   91.411">  5  6 -1 -1</clus>
<clus scale="   91.710">  7  8 -1 -1</clus>
<clus scale="  116.376">  2  7  1 -1</clus>
<clus scale="  192.139">  5  9 -1 -1</clus>
<clus scale="  419.658">  1  5  2 -1</clus>
</clustering>
</event>
<event>
 9    1  0.3312826E-006  0.1563537E+03  0.7546771E-02  0.1215249E+00
         21   -1    0    0  501  502  0.00000000000E+00  0.00000000000E+00  0.43503057964E+03  0.43503057964E+03  0.00000000000E+00 0. -1.
         -3   -1    0    0    0  501 -0.00000000000E+00 -0.00000000000E+00 -0.12194664670E+03  0.12194664670E+03  0.00000000000E+00 0.  1.
         23    2    1    2    0    0  0.14696256749E+02  0.20437191718E+02 -0.85435680657E+02  0.12888334397E+03  0.93155794536E+02 0.  0.
         23    2    1    2    0    0  0.30751538389E+02  0.76844996625E+01  0.18855829586E+03  0.21143727260E+03  0.90259518381E+02 0.  0.
        -13    1    4    4    0    0  0.30383456522E+02 -0.37074956954E+02  0.71194340902E+02  0.85827390965E+02  0.00000000000E+00 0. -1.
         13    1    4    4    0    0  0.36808186680E+00  0.44759456616E+02  0.11736395496E+03  0.12560988163E+03  0.00000000000E+00 0.  1.
        -13    1    3    3    0    0  0.54117893778E+02  0.74699615089E+01 -0.42950940783E+02  0.69493381455E+02  0.00000000000E+00 0. -1.
         13    1    3    3    0    0 -0.39421637028E+02  0.12967230209E+02 -0.42484739874E+02  0.59389962514E+02  0.00000000000E+00 0.  1.
         -3    1    1    2    0  502 -0.45447795138E+02 -0.28121691380E+02  0.20996131774E+03  0.21665660977E+03  0.00000000000E+00 0.  1.
<scales pt_clust_5="13000.00000" pt_clust_6="13000.00000" pt_clust_7="13000.00000" pt_clust_8="13000.00000" pt_clust_9="13000.00000"></scales>
<clustering>
<clus scale="   90.260">  5  6 -1 -1</clus>
<clus scale="   53.445">  5  9 -1 -1</clus>
<clus scale="   93.156">  7  8 -1 -1</clus>
<clus scale="   96.497">  2  7  1 -1</clus>
<clus scale="  156.354">  1  5  2 -1</clus>
</clustering>
</event>
<event>
 9    1  0.3312826E-006  0.3088534E+03  0.7546771E-02  0.1126990E+00
          1   -1    0    0  502    0 -0.00000000000E+00  0.00000000000E+00  0.32085931144E+03  0.32085931144E+03  0.00000000000E+00 0. -1.
         21   -1    0    0  501  502  0.00000000000E+00 -0.00000000000E+00 -0.12751803608E+03  0.12751803608E+03  0.00000000000E+00 0. -1.
         23    2    1    2    0    0 -0.14853991720E+02  0.16925036771E+02  0.29049449297E+02  0.98545670299E+02  0.91434570544E+02 0.  0.
         23    2    1    2    0    0 -0.78536717434E+01 -0.90303347547E+02  0.22084113676E+03  0.25444908440E+03  0.88074707653E+02 0.  0.
        -11    1    3    3    0    0  0.36731719605E+02 -0.61904831056E+01  0.71838214939E+01  0.37936112050E+02  0.00000000000E+00 0. -1.
         11    1    3    3    0    0 -0.51585711324E+02  0.23115519876E+02  0.21865627803E+02  0.60609558250E+02  0.00000000000E+00 0.  1.
        -13    1    4    4    0    0  0.13584766327E+02 -0.86299883974E+02  0.10508675683E+03  0.13665812201E+03  0.00000000000E+00 0. -1.
         13    1    4    4    0    0 -0.21438438071E+02 -0.40034635735E+01  0.11575437994E+03  0.11779096240E+03  0.00000000000E+00 0.  1.
          1    1    1    2  501    0  0.22707663463E+02  0.73378310777E+02 -0.56549310701E+02  0.95382592820E+02  0.00000000000E+00 0. -1.
<scales pt_clust_5="13000.00000" pt_clust_6="13000.00000" pt_clust_7="13000.00000" pt_clust_8="13000.00000" pt_clust_9="13000.00000"></scales>
<clustering>
<clus scale="   88.075">  7  8 -1 -1</clus>
<clus scale="   76.812">  7  9 -1 -1</clus>
<clus scale="   91.435">  5  6 -1 -1</clus>
<clus scale="   94.167">  1  5  2 -1</clus>
<clus scale="  308.853">  2  5  1 -1</clus>
</clustering>
</event>
<event>
 9    1  0.3312826E-006  0.1273254E+03  0.7546771E-02  0.1247446E+00
         21   -1    0    0  501  502  0.00000000000E+00  0.00000000000E+00  0.45843746845E+03  0.45843746845E+03  0.00000000000E+00 0.  1.
          3   -1    0    0  502    0 -0.00000000000E+00 -0.00000000000E+00 -0.27021104576E+02  0.27021104576E+02  0.00000000000E+00 0. -1.
         23    2    1    2    0    0 -0.25285483052E+02  0.31728604658E+01  0.14127476627E+03  0.16860859463E+03  0.88435716202E+02 0.  0.
         23    2    1    2    0    0  0.43258589962E+02  0.78319423887E+01  0.20418924493E+03  0.22835170052E+03  0.92296297094E+02 0.  0.
        -11    1    3    3    0    0 -0.43257967631E+02  0.34273338588E+02  0.96932945122E+02  0.11154330707E+03  0.00000000000E+00 0.  1.
         11    1    3    3    0    0  0.17972484579E+02 -0.31100478122E+02  0.44341821148E+02  0.57065287558E+02  0.00000000000E+00 0. -1.
        -11    1    4    4    0    0  0.46262647396E+02  0.35410603165E+02  0.18664881814E+03  0.19552985622E+03  0.00000000000E+00 0.  1.
         11    1    4    4    0    0 -0.30040574340E+01 -0.27578660776E+02  0.17540426796E+02  0.32821844303E+02  0.00000000000E+00 0. -1.
          3    1    1    2  501    0 -0.17973106910E+02 -0.11004802855E+02  0.85952352676E+02  0.88498277884E+02  0.00000000000E+00 0. -1.
<scales pt_clust_5="13000.00000" pt_clust_6="13000.00000" pt_clust_7="13000.00000" pt_clust_8="13000.00000" pt_clust_9="13000.00000"></scales>
<clustering>
<clus scale="   88.436">  5  6 -1 -1</clus>
<clus scale="   92.034">  2  5  1 -1</clus>
<clus scale="   92.296">  7  8 -1 -1</clus>
<clus scale="   23.022">  7  9 -1 -1</clus>
<clus scale="  127.325">  1  5  2 -1</clus>
</clustering>
</event>
<event>
 9    1  0.3312826E-006  0.2365683E+03  0.7546771E-02  0.1157399E+00
         21   -1    0    0  501  502  0.00000000000E+00  0.00000000000E+00  0.30565382239E+03  0.30565382239E+03  0.00000000000E+00 0. -1.
          3   -1    0    0  502    0 -0.00000000000E+00 -0.00000000000E+00 -0.14686321630E+03  0.14686321630E+03  0.00000000000E+00 0. -1.
         23    2    1    2    0    0  0.28360754913E+02  0.36725557962E+02 -0.70475589469E+02  0.12308183469E+03  0.89605972417E+02 0.  0.
         23    2    1    2    0    0 -0.25104246360E+02  0.36010189010E+02 -0.44519499665E+00  0.88461311877E+02  0.76800056007E+02 0.  0.
        -11    1    3    3    0    0 -0.24634001952E+02 -0.10857252427E+02 -0.73360861006E+01  0.27902188834E+02  0.00000000000E+00 0.  1.
         11    1    3    3    0    0  0.52994756865E+02  0.47582810389E+02 -0.63139503369E+02  0.95179645856E+02  0.00000000000E+00 0. -1.
        -13    1    4    4    0    0 -0.20432334500E+02  0.68072019526E+01 -0.36162217159E+02  0.42089478987E+02  0.00000000000E+00 0. -1.
         13    1    4    4    0    0 -0.46719118599E+01  0.29202987057E+02  0.35717022162E+02  0.46371832890E+02  0.00000000000E+00 0.  1.
          3    1    1    2  501    0 -0.32565085523E+01 -0.72735746971E+02  0.22971139056E+03  0.24097389213E+03  0.00000000000E+00 0. -1.
<scales pt_clust_5="13000.00000" pt_clust_6="13000.00000" pt_clust_7="13000.00000" pt_clust_8="13000.00000" pt_clust_9="13000.00000"></scales>
<clustering>
<clus scale="   76.800">  7  8 -1 -1</clus>
<clus scale="   72.809">  7  9 -1 -1</clus>
<clus scale="   89.606">  5  6 -1 -1</clus>
<clus scale="  100.908">  2  5  1 -1</clus>
<clus scale="  236.568">  1  5  2 -1</clus>
</clustering>
</event>
<event>
 9    1  0.3312826E-006  0.3059952E+03  0.7546771E-02  0.1115431E+00
         21   -1    0    0  501  502  0.00000000000E+00  0.00000000000E+00  0.15398271740E+03  0.15398271740E+03  0.00000000000E+00 0. -1.
          2   -1    0    0  502    0 -0.00000000000E+00 -0.00000000000E+00 -0.34658362141E+03  0.34658362141E+03  0.00000000000E+00 0. -1.
         23    2    1    2    0    0  0.77549040312E+02 -0.49970471542E+02 -0.13923987073E+03  0.18995327961E+03  0.90463280703E+02 0.  0.
         23    2    1    2    0    0  0.15104968184E+02 -0.34692322281E+02 -0.12948003192E+03  0.16382526712E+03  0.92961939478E+02 0.  0.
        -11    1    3    3    0    0  0.48521048959E+00 -0.49905196420E+02 -0.72439882171E+02  0.87967611016E+02  0.00000000000E+00 0.  1.
         11    1    3    3    0    0  0.77063829822E+02 -0.65275122742E-01 -0.66799988556E+02  0.10198566859E+03  0.00000000000E+00 0. -1.
        -13    1    4    4    0    0 -0.34508677426E+02  0.12192342240E+01 -0.71901430478E+02  0.79763093311E+02  0.00000000000E+00 0.  1.
         13    1    4    4    0    0  0.49613645610E+02 -0.35911556505E+02 -0.57578601447E+02  0.84062173812E+02  0.00000000000E+00 0. -1.
          2    1    1    2  501    0 -0.92654008496E+02  0.84662793824E+02  0.76118998647E+02  0.14678779208E+03  0.00000000000E+00 0. -1.
<scales pt_clust_5="13000.00000" pt_clust_6="13000.00000" pt_clust_7="13000.00000" pt_clust_8="13000.00000" pt_clust_9="13000.00000"></scales>
<clustering>
<clus scale="   90.463">  5  6 -1 -1</clus>
<clus scale="   92.962">  7  8 -1 -1</clus>
<clus scale="  125.509">  7  9 -1 -1</clus>
<clus scale="  129.207">  2  5  1 -1</clus>
<clus scale="  305.995">  1  5  2 -1</clus>
</clustering>
</event>
<event>
 9    1  0.3312826E-006  0.4075620E+03  0.7546771E-02  0.1095126E+00
          1   -1    0    0  502    0 -0.00000000000E+00  0.00000000000E+00  0.30917244185E+03  0.30917244185E+03  0.00000000000E+00 0. -1.
         21   -1    0    0  501  502  0.00000000000E+00 -0.00000000000E+00 -0.22859630128E+03  0.22859630128E+03  0.00000000000E+00 0.  1.
         23    2    1    2    0    0 -0.91677994832E+01 -0.13152491931E+02 -0.56130752700E+02  0.10789019278E+03  0.90733652564E+02 0.  0.
         23    2    1    2    0    0 -0.18702845877E+03 -0.14345912281E+02  0.73250115848E+02  0.22184995475E+03  0.93093358297E+02 0.  0.
        -11    1    3    3    0    0 -0.32422219135E+01  0.27521075473E+02  0.10473117878E+02  0.29624445922E+02  0.00000000000E+00 0. -1.
         11    1    3    3    0    0 -0.59255775697E+01 -0.40673567404E+02 -0.66603870579E+02  0.78265746856E+02  0.00000000000E+00 0.  1.
        -13    1    4    4    0    0 -0.75583031978E+02  0.37954327357E+02  0.15981243723E+02  0.86073955637E+02  0.00000000000E+00 0.  1.
         13    1    4    4    0    0 -0.11144542680E+03 -0.52300239638E+02  0.57268872126E+02  0.13577599911E+03  0.00000000000E+00 0. -1.
          1    1    1    2  501    0  0.19619625826E+03  0.27498404212E+02  0.63456777417E+02  0.20802859560E+03  0.00000000000E+00 0. -1.
<scales pt_clust_5="13000.00000" pt_clust_6="13000.00000" pt_clust_7="13000.00000" pt_clust_8="13000.00000" pt_clust_9="13000.00000"></scales>
<clustering>
<clus scale="   90.734">  5  6 -1 -1</clus>
<clus scale="   92.139">  1  5  2 -1</clus>
<clus scale="   93.093">  7  8 -1 -1</clus>
<clus scale="  192.971">  7  9 -1 -1</clus>
<clus scale="  407.562">  2  5  1 -1</clus>
</clustering>
</event>
<event>
 9    1  0.3312826E-006  0.1228028E+03  0.7546771E-02  0.1250415E+00
         21   -1    0    0  501  502  0.00000000000E+00  0.00000000000E+00  0.22479157551E+03  0.22479157551E+03  0.00000000000E+00 0. -1.
         -1   -1    0    0    0  501 -0.00000000000E+00 -0.00000000000E+00 -0.56792017036E+02  0.56792017036E+02  0.00000000000E+00 0.  1.
         23    2    1    2    0    0  0.46341372131E+00 -0.28776515595E+02  0.41240751360E+02  0.10509475030E+03  0.92281115971E+02 0.  0.
         23    2    1    2    0    0  0.12845209920E+02  0.92781998525E+01  0.73430269485E+02  0.11816871960E+03  0.91218185716E+02 0.  0.
        -11    1    3    3    0    0 -0.74600867621E+01 -0.56670483181E+02  0.31820345854E+01  0.57247898674E+02  0.00000000000E+00 0. -1.
         11    1    3    3    0    0  0.79235004835E+01  0.27893967586E+02  0.38058716775E+02  0.47846851622E+02  0.00000000000E+00 0.  1.
        -13    1    4    4    0    0  0.46063530472E+02  0.18647647013E+02  0.66414330181E+02  0.82948458889E+02  0.00000000000E+00 0.  1.
         13    1    4    4    0    0 -0.33218320552E+02 -0.93694471608E+01  0.70159393043E+01  0.35220260713E+02  0.00000000000E+00 0. -1.
         -1    1    1    2    0  502 -0.13308623642E+02  0.19498315742E+02  0.53328537626E+02  0.58320122645E+02  0.00000000000E+00 0.  1.
<scales pt_clust_5="13000.00000" pt_clust_6="13000.00000" pt_clust_7="13000.00000" pt_clust_8="13000.00000" pt_clust_9="13000.00000"></scales>
<clustering>
<clus scale="   91.218">  7  8 -1 -1</clus>
<clus scale="   23.607">  7  9 -1 -1</clus>
<clus scale="   92.281">  5  6 -1 -1</clus>
<clus scale="   96.665">  2  5  1 -1</clus>
<clus scale="  122.803">  1  5  2 -1</clus>
</clustering>
</event>
<event>
 9    1  0.3312826E-006  0.1640630E+03  0.7546771E-02  0.1206898E+00
          3   -1    0    0  502    0 -0.00000000000E+00  0.00000000000E+00  0.14579848245E+03  0.14579848245E+03  0.00000000000E+00 0. -1.
         21   -1    0    0  501  502  0.00000000000E+00 -0.00000000000E+00 -0.12492373559E+03  0.12492373559E+03  0.00000000000E+00 0.  1.
         23    2    1    2    0    0 -0.68000010835E+01 -0.41514660164E+02  0.35705383969E+02  0.10599025781E+03  0.90495045628E+02 0.  0.
         23    2    1    2    0    0  0.36264270569E+02  0.15572736136E+02  0.32581865671E+02  0.10317652166E+03  0.89589113291E+02 0.  0.
        -13    1    4    4    0    0  0.35470089159E+01  0.48655879642E+02  0.48866087792E+01  0.49029122380E+02  0.00000000000E+00 0. -1.
         13    1    4    4    0    0  0.32717261654E+02 -0.33083143506E+02  0.27695256892E+02  0.54147399279E+02  0.00000000000E+00 0.  1.
        -13    1    3    3    0    0  0.25397662956E+02 -0.25182599539E+02  0.54577219443E+02  0.65252413636E+02  0.00000000000E+00 0.  1.
         13    1    3    3    0    0 -0.32197664039E+02 -0.16332060625E+02 -0.18871835474E+02  0.40737844175E+02  0.00000000000E+00 0. -1.
          3    1    1    2  501    0 -0.29464269486E+02  0.25941924028E+02 -0.47412502771E+02  0.61555438571E+02  0.00000000000E+00 0. -1.
<scales pt_clust_5="13000.00000" pt_clust_6="13000.00000" pt_clust_7="13000.00000" pt_clust_8="13000.00000" pt_clust_9="13000.00000"></scales>
<clustering>
<clus scale="   89.589">  5  6 -1 -1</clus>
<clus scale="   39.257">  5  9 -1 -1</clus>
<clus scale="   90.495">  7  8 -1 -1</clus>
<clus scale="   99.795">  1  7  2 -1</clus>
<clus scale="  164.063">  2  5  1 -1</clus>
</clustering>
</event>
<event>
 9    1  0.3312826E-006  0.1529866E+03  0.7546771E-02  0.1198307E+00
         21   -1    0    0  501  502  0.00000000000E+00  0.00000000000E+00  0.25352125559E+02  0.25352125559E+02  0.00000000000E+00 0.  1.
          2   -1    0    0  502    0 -0.00000000000E+00 -0.00000000000E+00 -0.90481595205E+03  0.90481595205E+03  0.00000000000E+00 0. -1.
         23    2    1    2    0    0  0.11531708541E+03 -0.10486277478E+02 -0.38327894156E+03  0.41093369500E+03  0.92497364490E+02 0.  0.
         23    2    1    2    0    0 -0.75321395034E+02  0.70666899186E+01 -0.40591662999E+03  0.42044315487E+03  0.79252036698E+02 0.  0.
        -13    1    3    3    0    0  0.43584731246E+02  0.28822924610E+02 -0.71221635351E+02  0.88334088114E+02  0.00000000000E+00 0. -1.
         13    1    3    3    0    0  0.71732354168E+02 -0.39309202088E+02 -0.31205730621E+03  0.32259960689E+03  0.00000000000E+00 0.  1.
        -13    1    4    4    0    0 -0.19724961827E+02 -0.20370832833E+02 -0.38405084591E+02  0.47738825623E+02  0.00000000000E+00 0.  1.
         13    1    4    4    0    0 -0.55596433206E+02  0.27437522752E+02 -0.36751154540E+03  0.37270432925E+03  0.00000000000E+00 0. -1.
          2    1    1    2  501    0 -0.39995690380E+02  0.34195875596E+01 -0.90268254939E+02  0.98791227737E+02  0.00000000000E+00 0. -1.
<scales pt_clust_5="13000.00000" pt_clust_6="13000.00000" pt_clust_7="13000.00000" pt_clust_8="13000.00000" pt_clust_9="13000.00000"></scales>
<clustering>
<clus scale="   79.252">  7  8 -1 -1</clus>
<clus scale="   40.142">  7  9 -1 -1</clus>
<clus scale="   92.497">  5  6 -1 -1</clus>
<clus scale="  148.202">  2  5  1 -1</clus>
<clus scale="  152.987">  1  5  2 -1</clus>
</clustering>
</event>
<event>
 9    1  0.3312826E-006  0.1226274E+03  0.7546771E-02  0.1252410E+00
         21   -1    0    0  501  502  0.00000000000E+00  0.00000000000E+00  0.30819909245E+02  0.30819909245E+02  0.00000000000E+00 0. -1.
          3   -1    0    0  502    0 -0.00000000000E+00 -0.00000000000E+00 -0.57456179588E+03  0.57456179588E+03  0.00000000000E+00 0. -1.
         23    2    1    2    0    0  0.49262587259E+01 -0.20404404380E+02 -0.42344375095E+03  0.43359951759E+03  0.90902825519E+02 0.  0.
         23    2    1    2    0    0  0.15309594345E+02  0.75167984709E+01 -0.11563800347E+03  0.14734252780E+03  0.89703883494E+02 0.  0.
        -13    1    4    4    0    0  0.52673924574E+02  0.14258660549E-01 -0.74788858951E+02  0.91476313637E+02  0.00000000000E+00 0. -1.
         13    1    4    4    0    0 -0.37364330229E+02  0.75025398104E+01 -0.40849144522E+02  0.55866214166E+02  0.00000000000E+00 0.  1.
        -13    1    3    3    0    0  0.41038466659E+02 -0.35362040192E+02 -0.25182478993E+03  0.25758562548E+03  0.00000000000E+00 0. -1.
         13    1    3    3    0    0 -0.36112207933E+02  0.14957635813E+02 -0.17161896103E+03  0.17601389211E+03  0.00000000000E+00 0.  1.
          3    1    1    2  501    0 -0.20235853070E+02  0.12887605909E+02 -0.46601322046E+01  0.24439659730E+02  0.00000000000E+00 0. -1.
<scales pt_clust_5="13000.00000" pt_clust_6="13000.00000" pt_clust_7="13000.00000" pt_clust_8="13000.00000" pt_clust_9="13000.00000"></scales>
<clustering>
<clus scale="   89.704">  5  6 -1 -1</clus>
<clus scale="   23.991">  5  9 -1 -1</clus>
<clus scale="   90.903">  7  8 -1 -1</clus>
<clus scale="   93.295">  2  7  1 -1</clus>
<clus scale="  122.627">  1  5  2 -1</clus>
</clustering>
</event>
<event>
 9    1  0.3312826E-006  0.4359634E+03  0.7546771E-02  0.1051142E+00
         21   -1    0    0  501  502  0.00000000000E+00  0.00000000000E+00  0.10651011808E+03  0.10651011808E+03  0.00000000000E+00 0. -1.
          2   -1    0    0  502    0 -0.00000000000E+00 -0.00000000000E+00 -0.11297140293E+04  0.11297140293E+04  0.00000000000E+00 0. -1.
         23    2    1    2    0    0 -0.23236413862E+03  0.27061963892E+01 -0.46425900296E+03  0.52736346980E+03  0.92603407244E+02 0.  0.
         23    2    1    2    0    0  0.51434784245E+02  0.33887371830E+02 -0.50433606311E+03  0.51635964779E+03  0.92078935241E+02 0.  0.
        -11    1    4    4    0    0  0.76092476771E+02  0.39045883093E+02 -0.39677104041E+03  0.40588410231E+03  0.00000000000E+00 0.  1.
         11    1    4    4    0    0 -0.24657692525E+02 -0.51585112636E+01 -0.10756502271E+03  0.11047554548E+03  0.00000000000E+00 0. -1.
        -13    1    3    3    0    0 -0.13797066782E+03  0.34763551869E+02 -0.33626582841E+03  0.36512890474E+03  0.00000000000E+00 0. -1.
         13    1    3    3    0    0 -0.94393470794E+02 -0.32057355480E+02 -0.12799317455E+03  0.16223456506E+03  0.00000000000E+00 0.  1.
          2    1    1    2  501    0  0.18092935437E+03 -0.36593568219E+02 -0.54608845180E+02  0.19250102981E+03  0.00000000000E+00 0. -1.
<scales pt_clust_5="13000.00000" pt_clust_6="13000.00000" pt_clust_7="13000.00000" pt_clust_8="13000.00000" pt_clust_9="13000.00000"></scales>
<clustering>
<clus scale="   92.079">  5  6 -1 -1</clus>
<clus scale="   92.603">  7  8 -1 -1</clus>
<clus scale="  184.593">  5  9 -1 -1</clus>
<clus scale="  250.152">  2  7  1 -1</clus>
<clus scale="  435.963">  1  5  2 -1</clus>
</clustering>
</event>
<event>
 9    1  0.3312826E-006  0.3293251E+03  0.7546771E-02  0.1073067E+00
          1   -1    0    0  502    0 -0.00000000000E+00  0.00000000000E+00  0.67375301585E+02  0.67375301585E+02  0.00000000000E+00 0. -1.
         21   -1    0    0  501  502  0.00000000000E+00 -0.00000000000E+00 -0.16101600481E+04  0.16101600481E+04  0.00000000000E+00 0. -1.
         23    2    1    2    0    0 -0.28798422885E+03  0.87675812158E+02 -0.58025623325E+03  0.66022704841E+03  0.92630961992E+02 0.  0.
         23    2    1    2    0    0  0.14904024383E+03 -0.31353911470E+02 -0.57937170449E+03  0.60586361778E+03  0.90570907787E+02 0.  0.
        -11    1    3    3    0    0 -0.71305834750E+01  0.26375253800E+02 -0.56859316322E+02  0.63083128381E+02  0.00000000000E+00 0.  1.
         11    1    3    3    0    0 -0.28085364537E+03  0.61300558359E+02 -0.52339691693E+03  0.59714392003E+03  0.00000000000E+00 0. -1.
        -13    1    4    4    0    0  0.32953367787E+02  0.12470539677E-01 -0.33833234424E+02  0.47229359043E+02  0.00000000000E+00 0. -1.
         13    1    4    4    0    0  0.11608687605E+03 -0.31366382010E+02 -0.54553847007E+03  0.55863425874E+03  0.00000000000E+00 0.  1.
          1    1    1    2  501    0  0.13894398501E+03 -0.56321900688E+02 -0.38315680874E+03  0.41144468346E+03  0.00000000000E+00 0. -1.
<scales pt_clust_5="13000.00000" pt_clust_6="13000.00000" pt_clust_7="13000.00000" pt_clust_8="13000.00000" pt_clust_9="13000.00000"></scales>
<clustering>
<clus scale="   90.571">  7  8 -1 -1</clus>
<clus scale="   92.631">  5  6 -1 -1</clus>
<clus scale="  149.925">  7  9 -1 -1</clus>
<clus scale="  314.964">  1  5  2 -1</clus>
<clus scale="  329.325">  2  5  1 -1</clus>
</clustering>
</event>
<event>
 9    1  0.3312826E-006  0.2953616E+03  0.7546771E-02  0.1116102E+00
         21   -1    0    0  501  502  0.00000000000E+00  0.00000000000E+00  0.45687737145E+02  0.45687737145E+02  0.00000000000E+00 0.  1.
          2   -1    0    0  502    0 -0.00000000000E+00 -0.00000000000E+00 -0.10436742438E+04  0.10436742438E+04  0.00000000000E+00 0. -1.
         23    2    1    2    0    0 -0.63988406225E+02  0.82485396297E+02 -0.33425503662E+03  0.36287872103E+03  0.95163963462E+02 0.  0.
         23    2    1    2    0    0  0.23903613911E+02 -0.12853893457E+03 -0.64260071194E+03  0.66187499493E+03  0.89717297514E+02 0.  0.
        -11    1    3    3    0    0 -0.76526826370E+02  0.25656097175E+02 -0.22587046783E+03  0.23985841389E+03  0.00000000000E+00 0.  1.
         11    1    3    3    0    0  0.12538420145E+02  0.56829299122E+02 -0.10838456879E+03  0.12302030714E+03  0.00000000000E+00 0. -1.
        -13    1    4    4    0    0  0.48959655888E+02 -0.31213866473E+02 -0.23725581657E+03  0.24425739674E+03  0.00000000000E+00 0. -1.
         13    1    4    4    0    0 -0.25056041977E+02 -0.97325068095E+02 -0.40534489537E+03  0.41761759819E+03  0.00000000000E+00 0.  1.
          2    1    1    2  501    0  0.40084792313E+02  0.46053538271E+02 -0.21130758055E+02  0.64608264936E+02  0.00000000000E+00 0. -1.
<scales pt_clust_5="13000.00000" pt_clust_6="13000.00000" pt_clust_7="13000.00000" pt_clust_8="13000.00000" pt_clust_9="13000.00000"></scales>
<clustering>
<clus scale="   89.717">  7  8 -1 -1</clus>
<clus scale="   61.055">  7  9 -1 -1</clus>
<clus scale="   95.164">  5  6 -1 -1</clus>
<clus scale="  141.261">  2  5  1 -1</clus>
<clus scale="  295.362">  1  5  2 -1</clus>
</clustering>
</event>
<event>
 9    1  0.3312826E-006  0.2224068E+03  0.7546771E-02  0.1164877E+00
         21   -1    0    0  501  502  0.00000000000E+00  0.00000000000E+00  0.14154109862E+03  0.14154109862E+03  0.00000000000E+00 0.  1.
         -3   -1    0    0    0  501 -0.00000000000E+00 -0.00000000000E+00 -0.19900990171E+03  0.19900990171E+03  0.00000000000E+00 0.  1.
         23    2    1    2    0    0  0.38999000616E+02  0.25899564833E+02 -0.59478339223E+02  0.11813510824E+03  0.90700173398E+02 0.  0.
         23    2    1    2    0    0  0.36133104398E+02 -0.40904915673E+02 -0.62755088320E+02  0.12209415796E+03  0.89386626177E+02 0.  0.
        -11    1    4    4    0    0  0.11758128176E+02 -0.62626001884E+02 -0.17115346580E+02  0.65978820683E+02  0.00000000000E+00 0.  1.
         11    1    4    4    0    0  0.24374976222E+02  0.21721086212E+02 -0.45639741740E+02  0.56115337281E+02  0.00000000000E+00 0. -1.
        -13    1    3    3    0    0  0.17950287495E+02  0.53945824446E+02 -0.10369544225E+02  0.57791800835E+02  0.00000000000E+00 0. -1.
         13    1    3    3    0    0  0.21048713121E+02 -0.28046259613E+02 -0.49108794998E+02  0.60343307405E+02  0.00000000000E+00 0.  1.
         -3    1    1    2    0  502 -0.75132105014E+02  0.15005350840E+02  0.64764624450E+02  0.10032173413E+03  0.00000000000E+00 0.  1.
<scales pt_clust_5="13000.00000" pt_clust_6="13000.00000" pt_clust_7="13000.00000" pt_clust_8="13000.00000" pt_clust_9="13000.00000"></scales>
<clustering>
<clus scale="   89.387">  5  6 -1 -1</clus>
<clus scale="   76.616">  5  9 -1 -1</clus>
<clus scale="   90.700">  7  8 -1 -1</clus>
<clus scale="  102.070">  2  7  1 -1</clus>
<clus scale="  222.407">  1  5  2 -1</clus>
</clustering>
</event>
<event>
 9    1  0.3312826E-006  0.5160230E+03  0.7546771E-02  0.1073468E+00
         21   -1    0    0  501  502  0.00000000000E+00  0.00000000000E+00  0.20969875031E+03  0.20969875031E+03  0.00000000000E+00 0. -1.
          1   -1    0    0  502    0 -0.00000000000E+00 -0.00000000000E+00 -0.42788503576E+03  0.42788503576E+03  0.00000000000E+00 0. -1.
         23    2    1    2    0    0 -0.29906236958E+02 -0.11032111740E+02 -0.48428844684E+02  0.94355212093E+02  0.74441000486E+02 0.  0.
         23    2    1    2    0    0  0.25108167753E+03  0.84504723896E+02 -0.66471895857E+02  0.28830759791E+03  0.92302225985E+02 0.  0.
        -11    1    3    3    0    0  0.24911395596E+02  0.68516462802E+00 -0.15208535434E+02  0.29194976129E+02  0.00000000000E+00 0. -1.
         11    1    3    3    0    0 -0.54817632554E+02 -0.11717276369E+02 -0.33220309250E+02  0.65160235965E+02  0.00000000000E+00 0.  1.
        -13    1    4    4    0    0  0.21451261649E+03  0.37213756895E+02 -0.34244191857E+02  0.22039326445E+03  0.00000000000E+00 0. -1.
         13    1    4    4    0    0  0.36569061040E+02  0.47290967001E+02 -0.32227704001E+02  0.67914333468E+02  0.00000000000E+00 0.  1.
          1    1    1    2  501    0 -0.22117544058E+03 -0.73472612155E+02 -0.10328554490E+03  0.25492097606E+03  0.00000000000E+00 0. -1.
<scales pt_clust_5="13000.00000" pt_clust_6="13000.00000" pt_clust_7="13000.00000" pt_clust_8="13000.00000" pt_clust_9="13000.00000"></scales>
<clustering>
<clus scale="   74.441">  5  6 -1 -1</clus>
<clus scale="   80.979">  2  5  1 -1</clus>
<clus scale="   92.302">  7  8 -1 -1</clus>
<clus scale="  249.066">  7  9 -1 -1</clus>
<clus scale="  516.023">  1  5  2 -1</clus>
</clustering>
</event>
<event>
 9    1  0.3312826E-006  0.2624733E+03  0.7546771E-02  0.1147832E+00
          2   -1    0    0  502    0 -0.00000000000E+00  0.00000000000E+00  0.91546183035E+03  0.91546183035E+03  0.00000000000E+00 0. -1.
         21   -1    0    0  501  502  0.00000000000E+00 -0.00000000000E+00 -0.43021368594E+02  0.43021368594E+02  0.00000000000E+00 0. -1.
         23    2    1    2    0    0  0.41919141581E+01 -0.10477358144E+02  0.46278365896E+03  0.47195373981E+03  0.91892711005E+02 0.  0.
         23    2    1    2    0    0 -0.10927989900E+03 -0.35275902824E+02  0.25612009061E+03  0.29492996165E+03  0.90552171823E+02 0.  0.
        -11    1    4    4    0    0 -0.48133527168E+02 -0.32739579837E+02  0.21103589675E+03  0.21891748729E+03  0.00000000000E+00 0.  1.
         11    1    4    4    0    0 -0.61146371833E+02 -0.25363229875E+01  0.45084193859E+02  0.76012474361E+02  0.00000000000E+00 0. -1.
        -11    1    3    3    0    0 -0.42035430847E+02  0.57410479965E+01  0.17792936881E+03  0.18291746052E+03  0.00000000000E+00 0. -1.
         11    1    3    3    0    0  0.46227345005E+02 -0.16218406140E+02  0.28485429016E+03  0.28903627929E+03  0.00000000000E+00 0.  1.
          2    1    1    2  501    0  0.10508798484E+03  0.45753260968E+02  0.15353671218E+03  0.19159949748E+03  0.00000000000E+00 0. -1.
<scales pt_clust_5="13000.00000" pt_clust_6="13000.00000" pt_clust_7="13000.00000" pt_clust_8="13000.00000" pt_clust_9="13000.00000"></scales>
<clustering>
<clus scale="   90.552">  5  6 -1 -1</clus>
<clus scale="   91.893">  7  8 -1 -1</clus>
<clus scale="   92.583">  1  7  2 -1</clus>
<clus scale="  114.568">  5  9 -1 -1</clus>
<clus scale="  262.473">  2  5  1 -1</clus>
</clustering>
</event>
<event>
 9    1  0.3312826E-006  0.1924492E+03  0.7546771E-02  0.1185755E+00
         21   -1    0    0  501  502  0.00000000000E+00  0.00000000000E+00  0.15308656926E+03  0.15308656926E+03  0.00000000000E+00 0.  1.
          1   -1    0    0  502    0 -0.00000000000E+00 -0.00000000000E+00 -0.17226346214E+03  0.17226346214E+03  0.00000000000E+00 0. -1.
         23    2    1    2    0    0  0.26659521414E+02 -0.22021579421E+02 -0.76614365237E+02  0.12451239531E+03  0.91858018605E+02 0.  0.
         23    2    1    2    0    0 -0.34456139635E+02  0.73912611665E+02 -0.10011649947E+01  0.12229757741E+03  0.91133942019E+02 0.  0.
        -13    1    4    4    0    0 -0.33871949556E+02 -0.11932930944E+02  0.49111417717E+01  0.36246698073E+02  0.00000000000E+00 0. -1.
         13    1    4    4    0    0 -0.58419007823E+00  0.85845542609E+02 -0.59123067664E+01  0.86050879340E+02  0.00000000000E+00 0.  1.
        -13    1    3    3    0    0 -0.14455941733E+02  0.23910594953E+02 -0.24137620087E+01  0.28044911293E+02  0.00000000000E+00 0.  1.
         13    1    3    3    0    0  0.41115463147E+02 -0.45932174374E+02 -0.74200603228E+02  0.96467484013E+02  0.00000000000E+00 0. -1.
          1    1    1    2  501    0  0.77966182209E+01 -0.51891032245E+02  0.58438637345E+02  0.78540058682E+02  0.00000000000E+00 0. -1.
<scales pt_clust_5="13000.00000" pt_clust_6="13000.00000" pt_clust_7="13000.00000" pt_clust_8="13000.00000" pt_clust_9="13000.00000"></scales>
<clustering>
<clus scale="   91.134">  5  6 -1 -1</clus>
<clus scale="   52.474">  5  9 -1 -1</clus>
<clus scale="   91.858">  7  8 -1 -1</clus>
<clus scale="   98.151">  2  7  1 -1</clus>
<clus scale="  192.449">  1  5  2 -1</clus>
</clustering>
</event>
<event>
 9    1  0.3312826E-006  0.1759930E+03  0.7546771E-02  0.1198434E+00
          1   -1    0    0  502    0 -0.00000000000E+00  0.00000000000E+00  0.46325975600E+03  0.46325975600E+03  0.00000000000E+00 0. -1.
         21   -1    0    0  501  502  0.00000000000E+00 -0.00000000000E+00 -0.40310075262E+02  0.40310075262E+02  0.00000000000E+00 0. -1.
         23    2    1    2    0    0 -0.24937326486E+02 -0.26931591390E+01  0.14052472093E+03  0.17079752019E+03  0.93784179649E+02 0.  0.
         23    2    1    2    0    0 -0.39091909201E+02 -0.27120694344E+02  0.19660733057E+03  0.22162702611E+03  0.90555987319E+02 0.  0.
        -11    1    3    3    0    0 -0.75113717639E-01  0.43379436864E+02  0.77979614776E+02  0.89233410252E+02  0.00000000000E+00 0. -1.
         11    1    3    3    0    0 -0.24862212769E+02 -0.46072596003E+02  0.62545106158E+02  0.81564109941E+02  0.00000000000E+00 0.  1.
        -13    1    4    4    0    0  0.15684228625E+02 -0.42103115919E+02  0.75304001288E+02  0.87688995932E+02  0.00000000000E+00 0.  1.
         13    1    4    4    0    0 -0.54776137826E+02  0.14982421575E+02  0.12130332929E+03  0.13393803018E+03  0.00000000000E+00 0. -1.
          1    1    1    2  501    0  0.64029235687E+02  0.29813853483E+02  0.85817629234E+02  0.11114528496E+03  0.00000000000E+00 0. -1.
<scales pt_clust_5="13000.00000" pt_clust_6="13000.00000" pt_clust_7="13000.00000" pt_clust_8="13000.00000" pt_clust_9="13000.00000"></scales>
<clustering>
<clus scale="   90.556">  7  8 -1 -1</clus>
<clus scale="   70.630">  7  9 -1 -1</clus>
<clus scale="   93.784">  5  6 -1 -1</clus>
<clus scale="   97.080">  1  5  2 -1</clus>
<clus scale="  175.993">  2  5  1 -1</clus>
</clustering>
</event>
<event>
 9    1  0.3312826E-006  0.7491104E+03  0.7546771E-02  0.1020184E+00
         21   -1    0    0  501  502  0.00000000000E+00  0.00000000000E+00  0.38152444333E+03  0.38152444333E+03  0.00000000000E+00 0. -1.
          2   -1    0    0  502    0 -0.00000000000E+00 -0.00000000000E+00 -0.71900236716E+03  0.71900236716E+03  0.00000000000E+00 0. -1.
         23    2    1    2    0    0 -0.19377538726E+02  0.74930432454E+02 -0.32939061583E+03  0.35137274943E+03  0.94734220481E+02 0.  0.
         23    2    1    2    0    0  0.70774749989E+02 -0.74680659452E+02 -0.36425495614E+03  0.38929696541E+03  0.91017515163E+02 0.  0.
        -13    1    3    3    0    0 -0.52763340936E+02  0.49563029460E+02 -0.14246574155E+03  0.15980285214E+03  0.00000000000E+00 0.  1.
         13    1    3    3    0    0  0.33385802210E+02  0.25367402994E+02 -0.18692487428E+03  0.19156989729E+03  0.00000000000E+00 0. -1.
        -13    1    4    4    0    0  0.85741542242E+02 -0.39048416866E+02 -0.20815591551E+03  0.22848473929E+03  0.00000000000E+00 0. -1.
         13    1    4    4    0    0 -0.14966792253E+02 -0.35632242587E+02 -0.15609904063E+03  0.16081222612E+03  0.00000000000E+00 0.  1.
          2    1    1    2  501    0 -0.51397211263E+02 -0.24977300151E+00  0.35616764815E+03  0.35985709566E+03  0.00000000000E+00 0. -1.
<scales pt_clust_5="13000.00000" pt_clust_6="13000.00000" pt_clust_7="13000.00000" pt_clust_8="13000.00000" pt_clust_9="13000.00000"></scales>
<clustering>
<clus scale="   91.018">  7  8 -1 -1</clus>
<clus scale="   51.398">  7  9 -1 -1</clus>
<clus scale="   94.734">  5  6 -1 -1</clus>
<clus scale="  122.330">  2  5  1 -1</clus>
<clus scale="  749.110">  1  5  2 -1</clus>
</clustering>
</event>
<event>
 9    1  0.3312826E-006  0.2937720E+03  0.7546771E-02  0.1093024E+00
          1   -1    0    0  502    0 -0.00000000000E+00  0.00000000000E+00  0.15158021941E+04  0.15158021941E+04  0.00000000000E+00 0. -1.
         21   -1    0    0  501  502  0.00000000000E+00 -0.00000000000E+00 -0.54171145754E+02  0.54171145754E+02  0.00000000000E+00 0.  1.
         23    2    1    2    0    0 -0.14126888519E+03  0.19820608600E+03  0.89108708525E+03  0.92823943180E+03  0.91376686299E+02 0.  0.
         23    2    1    2    0    0  0.48631583986E+02 -0.59656133866E+02  0.17854043472E+03  0.21577085207E+03  0.93576110743E+02 0.  0.
        -13    1    4    4    0    0  0.69761379700E+02 -0.47517120595E+02  0.87706303183E+02  0.12172478164E+03  0.00000000000E+00 0.  1.
         13    1    4    4    0    0 -0.21129795714E+02 -0.12139013271E+02  0.90834131540E+02  0.94046070427E+02  0.00000000000E+00 0. -1.
        -13    1    3    3    0    0 -0.35510693234E+02  0.28241194410E+02  0.72466465536E+02  0.85498321755E+02  0.00000000000E+00 0. -1.
         13    1    3    3    0    0 -0.10575819196E+03  0.16996489159E+03  0.81862061971E+03  0.84274111005E+03  0.00000000000E+00 0.  1.
          1    1    1    2  501    0  0.92637301205E+02 -0.13854995214E+03  0.39200352841E+03  0.42596305603E+03  0.00000000000E+00 0. -1.
<scales pt_clust_5="13000.00000" pt_clust_6="13000.00000" pt_clust_7="13000.00000" pt_clust_8="13000.00000" pt_clust_9="13000.00000"></scales>
<clustering>
<clus scale="   91.377">  7  8 -1 -1</clus>
<clus scale="   93.576">  5  6 -1 -1</clus>
<clus scale="  166.667">  5  9 -1 -1</clus>
<clus scale="  259.985">  1  7  2 -1</clus>
<clus scale="  293.772">  2  5  1 -1</clus>
</clustering>
</event>
<event>
 9    1  0.3312826E-006  0.2962235E+03  0.7546771E-02  0.1097929E+00
         21   -1    0    0  501  502  0.00000000000E+00  0.00000000000E+00  0.10176430329E+04  0.10176430329E+04  0.00000000000E+00 0. -1.
          2   -1    0    0  502    0 -0.00000000000E+00 -0.00000000000E+00 -0.77069233518E+02  0.77069233518E+02  0.00000000000E+00 0. -1.
         23    2    1    2    0    0 -0.29602798939E+02 -0.20073584598E+03  0.61674327354E+03  0.65583351073E+03  0.92596559240E+02 0.  0.
         23    2    1    2    0    0  0.10449688627E+03  0.10450760166E+03  0.17601964913E+03  0.24726180811E+03  0.91181395164E+02 0.  0.
        -13    1    4    4    0    0  0.14337701429E+02  0.53422962931E+02  0.17761296879E+02  0.58095148829E+02  0.00000000000E+00 0. -1.
         13    1    4    4    0    0  0.90159184844E+02  0.51084638726E+02  0.15825835225E+03  0.18916665928E+03  0.00000000000E+00 0.  1.
        -13    1    3    3    0    0 -0.38144422702E+02 -0.99812659833E+02  0.43336248016E+03  0.44634135285E+03  0.00000000000E+00 0. -1.
         13    1    3    3    0    0  0.85416237631E+01 -0.10092318615E+03  0.18338079337E+03  0.20949215789E+03  0.00000000000E+00 0.  1.
          2    1    1    2  501    0 -0.74894087334E+02  0.96228244326E+02  0.14781087673E+03  0.19161694759E+03  0.00000000000E+00 0. -1.
<scales pt_clust_5="13000.00000" pt_clust_6="13000.00000" pt_clust_7="13000.00000" pt_clust_8="13000.00000" pt_clust_9="13000.00000"></scales>
<clustering>
<clus scale="   91.181">  5  6 -1 -1</clus>
<clus scale="   92.597">  7  8 -1 -1</clus>
<clus scale="  121.939">  5  9 -1 -1</clus>
<clus scale="  223.037">  2  7  1 -1</clus>
<clus scale="  296.223">  1  5  2 -1</clus>
</clustering>
</event>
<event>
 9    1  0.3312826E-006  0.2855993E+03  0.7546771E-02  0.1136904E+00
          1   -1    0    0  502    0 -0.00000000000E+00  0.00000000000E+00  0.44624963166E+03  0.44624963166E+03  0.00000000000E+00 0. -1.
         21   -1    0    0  501  502  0.00000000000E+00 -0.00000000000E+00 -0.87813756411E+02  0.87813756411E+02  0.00000000000E+00 0. -1.
         23    2    1    2    0    0  0.20658919727E+02 -0.10137319426E+02  0.16338150350E+03  0.18821199117E+03  0.90557615494E+02 0.  0.
         23    2    1    2    0    0  0.23819582850E+02 -0.11646030440E+03  0.13137397768E+03  0.19732366165E+03  0.86874221763E+02 0.  0.
        -13    1    4    4    0    0  0.45415771787E+02 -0.10641382212E+03  0.12915813218E+03  0.17340218272E+03  0.00000000000E+00 0. -1.
         13    1    4    4    0    0 -0.21596188937E+02 -0.10046482279E+02  0.22158455044E+01  0.23921478927E+02  0.00000000000E+00 0.  1.
        -13    1    3    3    0    0  0.39006457104E+02 -0.29403072980E+02  0.15130560811E+03  0.15899506736E+03  0.00000000000E+00 0. -1.
         13    1    3    3    0    0 -0.18347537377E+02  0.19265753554E+02  0.12075895390E+02  0.29216923816E+02  0.00000000000E+00 0.  1.
          1    1    1    2  501    0 -0.44478502577E+02  0.12659762383E+03  0.63680394063E+02  0.14852773525E+03  0.00000000000E+00 0. -1.
<scales pt_clust_5="13000.00000" pt_clust_6="13000.00000" pt_clust_7="13000.00000" pt_clust_8="13000.00000" pt_clust_9="13000.00000"></scales>
<clustering>
<clus scale="   86.874">  5  6 -1 -1</clus>
<clus scale="   90.558">  7  8 -1 -1</clus>
<clus scale="   93.436">  1  7  2 -1</clus>
<clus scale="  127.902">  5  9 -1 -1</clus>
<clus scale="  285.599">  2  5  1 -1</clus>
</clustering>
</event>
<event>
 9    1  0.3312826E-006  0.2884791E+03  0.7546771E-02  0.1119925E+00
         21   -1    0    0  501  502  0.00000000000E+00  0.00000000000E+00  0.42008339410E+03  0.42008339410E+03  0.00000000000E+00 0. -1.
          3   -1    0    0  502    0 -0.00000000000E+00 -0.00000000000E+00 -0.11576817342E+03  0.11576817342E+03  0.00000000000E+00 0. -1.
         23    2    1    2    0    0 -0.10235759372E+03  0.54920654180E+01  0.16665765317E+03  0.21621145065E+03  0.92007490229E+02 0.  0.
         23    2    1    2    0    0  0.26733449619E+02 -0.14329547555E+01 -0.57076072439E+02  0.11069831139E+03  0.90992897585E+02 0.  0.
        -11    1    4    4    0    0 -0.32457448656E+02  0.69679015795E+00 -0.34335623646E+02  0.47253640505E+02  0.00000000000E+00 0. -1.
         11    1    4    4    0    0  0.59190898275E+02 -0.21297449135E+01 -0.22740448793E+02  0.63444670882E+02  0.00000000000E+00 0.  1.
        -13    1    3    3    0    0 -0.87858341935E+02  0.27711502422E+02  0.69236146709E+02  0.11524174428E+03  0.00000000000E+00 0. -1.
         13    1    3    3    0    0 -0.14499251785E+02 -0.22219437004E+02  0.97421506465E+02  0.10096970637E+03  0.00000000000E+00 0.  1.
          3    1    1    2  501    0  0.75624144100E+02 -0.40591106625E+01  0.19473363994E+03  0.20894180547E+03  0.00000000000E+00 0. -1.
<scales pt_clust_5="13000.00000" pt_clust_6="13000.00000" pt_clust_7="13000.00000" pt_clust_8="13000.00000" pt_clust_9="13000.00000"></scales>
<clustering>
<clus scale="   90.993">  5  6 -1 -1</clus>
<clus scale="   75.733">  5  9 -1 -1</clus>
<clus scale="   92.007">  7  8 -1 -1</clus>
<clus scale="  137.741">  2  7  1 -1</clus>
<clus scale="  288.479">  1  5  2 -1</clus>
</clustering>
</event>
<event>
 9    1  0.3312826E-006  0.1789096E+03  0.7546771E-02  0.1180991E+00
          1   -1    0    0  502    0 -0.00000000000E+00  0.00000000000E+00  0.11905662138E+04  0.11905662138E+04  0.00000000000E+00 0. -1.
         21   -1    0    0  501  502  0.00000000000E+00 -0.00000000000E+00 -0.22075721298E+02  0.22075721298E+02  0.00000000000E+00 0.  1.
         23    2    1    2    0    0 -0.13675773745E+02  0.10104367963E+03  0.36501444295E+03  0.38948800638E+03  0.89824893924E+02 0.  0.
         23    2    1    2    0    0  0.51276299593E+02 -0.72198795390E+02  0.48626541246E+03  0.50242286509E+03  0.90181811135E+02 0.  0.
        -11    1    3    3    0    0 -0.16149575803E+02  0.64367730970E+02  0.33645742776E+03  0.34293966566E+03  0.00000000000E+00 0. -1.
         11    1    3    3    0    0  0.24738020577E+01  0.36675948659E+02  0.28557015187E+02  0.46548340712E+02  0.00000000000E+00 0.  1.
        -13    1    4    4    0    0  0.37469768017E+02 -0.93070619059E+02  0.36102888150E+03  0.37471052417E+03  0.00000000000E+00 0.  1.
         13    1    4    4    0    0  0.13806531576E+02  0.20871823669E+02  0.12523653096E+03  0.12771234093E+03  0.00000000000E+00 0. -1.
          1    1    1    2  501    0 -0.37600525847E+02 -0.28844884239E+02  0.31721063705E+03  0.32073106359E+03  0.00000000000E+00 0. -1.
<scales pt_clust_5="13000.00000" pt_clust_6="13000.00000" pt_clust_7="13000.00000" pt_clust_8="13000.00000" pt_clust_9="13000.00000"></scales>
<clustering>
<clus scale="   89.825">  5  6 -1 -1</clus>
<clus scale="   90.182">  7  8 -1 -1</clus>
<clus scale="   47.390">  7  9 -1 -1</clus>
<clus scale="  135.887">  1  5  2 -1</clus>
<clus scale="  178.910">  2  5  1 -1</clus>
</clustering>
</event>
<event>
 9    1  0.3312826E-006  0.2055599E+03  0.7546771E-02  0.1168447E+00
          1   -1    0    0  502    0 -0.00000000000E+00  0.00000000000E+00  0.46547022646E+03  0.46547022646E+03  0.00000000000E+00 0. -1.
         21   -1    0    0  501  502  0.00000000000E+00 -0.00000000000E+00 -0.97902791259E+02  0.97902791259E+02  0.00000000000E+00 0. -1.
         23    2    1    2    0    0 -0.76935367288E+01 -0.74927239115E+02  0.33463412959E+03  0.35519167231E+03  0.92237962498E+02 0.  0.
         23    2    1    2    0    0 -0.68612161675E+02  0.48854617340E+02  0.15114924035E+02  0.12559904744E+03  0.91936159503E+02 0.  0.
        -11    1    4    4    0    0 -0.40318678700E+02  0.58645980030E+02  0.44265931535E+02  0.83811810149E+02  0.00000000000E+00 0.  1.
         11    1    4    4    0    0 -0.28293482975E+02 -0.97913626903E+01 -0.29151007499E+02  0.41787237291E+02  0.00000000000E+00 0. -1.
        -13    1    3    3    0    0 -0.30575672877E+02 -0.80616109887E+02  0.30694007700E+03  0.31881976070E+03  0.00000000000E+00 0. -1.
         13    1    3    3    0    0  0.22882136148E+02  0.56888707719E+01  0.27694052582E+02  0.36371911604E+02  0.00000000000E+00 0.  1.
          1    1    1    2  501    0  0.76305698404E+02  0.26072621775E+02  0.17818381575E+02  0.82582297965E+02  0.00000000000E+00 0. -1.
<scales pt_clust_5="13000.00000" pt_clust_6="13000.00000" pt_clust_7="13000.00000" pt_clust_8="13000.00000" pt_clust_9="13000.00000"></scales>
<clustering>
<clus scale="   91.936">  5  6 -1 -1</clus>
<clus scale="   80.637">  5  9 -1 -1</clus>
<clus scale="   92.238">  7  8 -1 -1</clus>
<clus scale="  119.085">  1  7  2 -1</clus>
<clus scale="  205.560">  2  5  1 -1</clus>
</clustering>
</event>
<event>
 9    1  0.3312826E-006  0.3362304E+03  0.7546771E-02  0.1111598E+00
         21   -1    0    0  501  502  0.00000000000E+00  0.00000000000E+00  0.11446289600E+03  0.11446289600E+03  0.00000000000E+00 0.  1.
         -1   -1    0    0    0  501 -0.00000000000E+00 -0.00000000000E+00 -0.48602743665E+03  0.48602743665E+03  0.00000000000E+00 0.  1.
         23    2    1    2    0    0  0.32534815320E+02  0.45858419594E+02 -0.19040267580E+03  0.21856036043E+03  0.91399908894E+02 0.  0.
         23    2    1    2    0    0  0.12038355062E+03 -0.60209141290E+02 -0.28657045538E+02  0.16548670073E+03  0.91909095877E+02 0.  0.
        -11    1    3    3    0    0  0.28676932743E+02 -0.22061473635E+02 -0.92663269660E+02  0.99476412453E+02  0.00000000000E+00 0.  1.
         11    1    3    3    0    0  0.38578825772E+01  0.67919893229E+02 -0.97739406137E+02  0.11908394798E+03  0.00000000000E+00 0. -1.
        -13    1    4    4    0    0  0.41384093314E+02  0.21839013461E+02 -0.21122460896E+02  0.51339497881E+02  0.00000000000E+00 0.  1.
         13    1    4    4    0    0  0.78999457306E+02 -0.82048154751E+02 -0.75345846422E+01  0.11414720285E+03  0.00000000000E+00 0. -1.
         -1    1    1    2    0  502 -0.15291836594E+03  0.14350721696E+02 -0.15250481932E+03  0.21644327149E+03  0.00000000000E+00 0.  1.
<scales pt_clust_5="13000.00000" pt_clust_6="13000.00000" pt_clust_7="13000.00000" pt_clust_8="13000.00000" pt_clust_9="13000.00000"></scales>
<clustering>
<clus scale="   91.400">  5  6 -1 -1</clus>
<clus scale="   91.909">  7  8 -1 -1</clus>
<clus scale="  107.310">  2  5  1 -1</clus>
<clus scale="  138.888">  7  9 -1 -1</clus>
<clus scale="  336.230">  1  5  2 -1</clus>
</clustering>
</event>
<event>
 9    1  0.3312826E-006  0.2573593E+03  0.7546771E-02  0.1116697E+00
          3   -1    0    0  502    0 -0.00000000000E+00  0.00000000000E+00  0.22358936965E+03  0.22358936965E+03  0.00000000000E+00 0. -1.
         21   -1    0    0  501  502  0.00000000000E+00 -0.00000000000E+00 -0.38064636878E+03  0.38064636878E+03  0.00000000000E+00 0. -1.
         23    2    1    2    0    0 -0.57428902472E+02 -0.18173454088E+03  0.10657503326E+03  0.23581250712E+03  0.89015608806E+02 0.  0.
         23    2    1    2    0    0  0.36154528433E+02  0.15803163533E+03 -0.11920158785E+03  0.22052265649E+03  0.90222368555E+02 0.  0.
        -11    1    3    3    0    0 -0.49535805381E+02 -0.51665213860E+02  0.72032693368E+01  0.71937315957E+02  0.00000000000E+00 0.  1.
         11    1    3    3    0    0 -0.78930970910E+01 -0.13006932702E+03  0.99371763920E+02  0.16387519116E+03  0.00000000000E+00 0. -1.
        -13    1    4    4    0    0  0.23997810464E+02 -0.27297818066E+01 -0.12552859640E+02  0.27219862250E+02  0.00000000000E+00 0. -1.
         13    1    4    4    0    0  0.12156717969E+02  0.16076141714E+03 -0.10664872821E+03  0.19330279424E+03  0.00000000000E+00 0.  1.
          3    1    1    2  501    0  0.21274374039E+02  0.23702905550E+02 -0.14443044454E+03  0.14790057482E+03  0.00000000000E+00 0. -1.
<scales pt_clust_5="13000.00000" pt_clust_6="13000.00000" pt_clust_7="13000.00000" pt_clust_8="13000.00000" pt_clust_9="13000.00000"></scales>
<clustering>
<clus scale="   89.016">  5  6 -1 -1</clus>
<clus scale="   90.222">  7  8 -1 -1</clus>
<clus scale="   31.850">  7  9 -1 -1</clus>
<clus scale="  210.355">  1  5  2 -1</clus>
<clus scale="  257.359">  2  5  1 -1</clus>
</clustering>
</event>
<event>
 9    1  0.3312826E-006  0.2905853E+03  0.7546771E-02  0.1131803E+00
         -1   -1    0    0    0  501 -0.00000000000E+00  0.00000000000E+00  0.34079433171E+03  0.34079433171E+03  0.00000000000E+00 0.  1.
         21   -1    0    0  501  502  0.00000000000E+00 -0.00000000000E+00 -0.13469318323E+03  0.13469318323E+03  0.00000000000E+00 0.  1.
         23    2    1    2    0    0 -0.16256774181E+02  0.35342080691E+02 -0.25801485451E+02  0.10370982622E+03  0.92610291155E+02 0.  0.
         23    2    1    2    0    0 -0.49935922143E+02  0.78858948108E+02  0.19542577744E+03  0.23483277613E+03  0.90790243077E+02 0.  0.
        -11    1    4    4    0    0 -0.70346598228E+02  0.31547632429E+02  0.13459939940E+03  0.15511574812E+03  0.00000000000E+00 0.  1.
         11    1    4    4    0    0  0.20410676086E+02  0.47311315679E+02  0.60826378043E+02  0.79717028014E+02  0.00000000000E+00 0. -1.
        -13    1    3    3    0    0  0.21620528171E+02  0.48988041234E+02  0.38853583513E+01  0.53687721426E+02  0.00000000000E+00 0.  1.
         13    1    3    3    0    0 -0.37877302352E+02 -0.13645960544E+02 -0.29686843802E+02  0.50022104789E+02  0.00000000000E+00 0. -1.
         -1    1    1    2    0  502  0.66192696324E+02 -0.11420102880E+03  0.36476856485E+02  0.13694491259E+03  0.00000000000E+00 0.  1.
<scales pt_clust_5="13000.00000" pt_clust_6="13000.00000" pt_clust_7="13000.00000" pt_clust_8="13000.00000" pt_clust_9="13000.00000"></scales>
<clustering>
<clus scale="   90.790">  5  6 -1 -1</clus>
<clus scale="   92.610">  7  8 -1 -1</clus>
<clus scale="  100.449">  1  7  2 -1</clus>
<clus scale="  120.876">  5  9 -1 -1</clus>
<clus scale="  290.585">  2  5  1 -1</clus>
</clustering>
</event>
<event>
 9    1  0.3312826E-006  0.1541499E+03  0.7546771E-02  0.1216920E+00
         21   -1    0    0  501  502  0.00000000000E+00  0.00000000000E+00  0.52410960971E+03  0.52410960971E+03  0.00000000000E+00 0. -1.
          3   -1    0    0  502    0 -0.00000000000E+00 -0.00000000000E+00 -0.18939280060E+03  0.18939280060E+03  0.00000000000E+00 0. -1.
         23    2    1    2    0    0  0.13347825718E+02  0.31850210424E+02 -0.16447613053E+03  0.19105070613E+03  0.90859091142E+02 0.  0.
         23    2    1    2    0    0 -0.47868564676E+02 -0.33173392835E+02  0.30181465335E+03  0.32207301239E+03  0.96161670415E+02 0.  0.
        -13    1    3    3    0    0  0.29965992702E+02 -0.23748742118E+02 -0.52706887874E+02  0.65115124972E+02  0.00000000000E+00 0.  1.
         13    1    3    3    0    0 -0.16618166983E+02  0.55598952542E+02 -0.11176924265E+03  0.12593558115E+03  0.00000000000E+00 0. -1.
        -13    1    4    4    0    0  0.28839684657E+02  0.59284100865E-02  0.75878555546E+02  0.81174396444E+02  0.00000000000E+00 0.  1.
         13    1    4    4    0    0 -0.76708249333E+02 -0.33179321245E+02  0.22593609780E+03  0.24089861594E+03  0.00000000000E+00 0. -1.
          3    1    1    2  501    0  0.34520738958E+02  0.13231824109E+01  0.19737828628E+03  0.20037869180E+03  0.00000000000E+00 0. -1.
<scales pt_clust_5="13000.00000" pt_clust_6="13000.00000" pt_clust_7="13000.00000" pt_clust_8="13000.00000" pt_clust_9="13000.00000"></scales>
<clustering>
<clus scale="   90.859">  5  6 -1 -1</clus>
<clus scale="   96.162">  7  8 -1 -1</clus>
<clus scale="   34.546">  7  9 -1 -1</clus>
<clus scale="   97.201">  2  5  1 -1</clus>
<clus scale="  154.150">  1  5  2 -1</clus>
</clustering>
</event>
<event>
 9    1  0.3312826E-006  0.3542774E+03  0.7546771E-02  0.1105541E+00
         21   -1    0    0  501  502  0.00000000000E+00  0.00000000000E+00  0.44273045231E+03  0.44273045231E+03  0.00000000000E+00 0.  1.
         -1   -1    0    0    0  501 -0.00000000000E+00 -0.00000000000E+00 -0.12478983747E+03  0.12478983747E+03  0.00000000000E+00 0.  1.
         23    2    1    2    0    0  0.41887641928E+02 -0.30572230840E+01  0.12325864782E+03  0.16327584885E+03  0.98500697449E+02 0.  0.
         23    2    1    2    0    0 -0.73573714301E+02  0.42920446402E+02 -0.64067344183E+02  0.14053192737E+03  0.91593350542E+02 0.  0.
        -13    1    4    4    0    0 -0.51043604323E+01  0.38999411727E+02  0.89708365826E+01  0.40342093643E+02  0.00000000000E+00 0. -1.
         13    1    4    4    0    0 -0.68469353868E+02  0.39210346742E+01 -0.73038180765E+02  0.10018983372E+03  0.00000000000E+00 0.  1.
        -13    1    3    3    0    0 -0.24728804989E+02  0.19259887151E+00  0.80108770413E+02  0.83838928831E+02  0.00000000000E+00 0.  1.
         13    1    3    3    0    0  0.66616446917E+02 -0.32498219555E+01  0.43149877403E+02  0.79436920021E+02  0.00000000000E+00 0. -1.
         -1    1    1    2    0  502  0.31686072372E+02 -0.39863223318E+02  0.25874931121E+03  0.26371251356E+03  0.00000000000E+00 0.  1.
<scales pt_clust_5="13000.00000" pt_clust_6="13000.00000" pt_clust_7="13000.00000" pt_clust_8="13000.00000" pt_clust_9="13000.00000"></scales>
<clustering>
<clus scale="   91.593">  5  6 -1 -1</clus>
<clus scale="   50.922">  5  9 -1 -1</clus>
<clus scale="   98.501">  7  8 -1 -1</clus>
<clus scale="  107.081">  2  7  1 -1</clus>
<clus scale="  354.277">  1  5  2 -1</clus>
</clustering>
</event>
<event>
 9    1  0.3312826E-006  0.2224349E+03  0.7546771E-02  0.1146269E+00
          2   -1    0    0  502    0 -0.00000000000E+00  0.00000000000E+00  0.35757749979E+03  0.35757749979E+03  0.00000000000E+00 0. -1.
         21   -1    0    0  501  502  0.00000000000E+00 -0.00000000000E+00 -0.22213600437E+03  0.22213600437E+03  0.00000000000E+00 0.  1.
         23    2    1    2    0    0 -0.10767241388E+03  0.34578001724E+02  0.27501575970E+03  0.31711444772E+03  0.11017675780E+03 0.  0.
         23    2    1    2    0    0  0.70457727176E+02 -0.83010154074E+02 -0.44267517015E+02  0.14940019443E+03  0.92227046116E+02 0.  0.
        -11    1    3    3    0    0 -0.38138551638E+02 -0.38105041864E+02  0.12893125763E+03  0.13974910566E+03  0.00000000000E+00 0. -1.
         11    1    3    3    0    0 -0.69533862242E+02  0.72683043588E+02  0.14608450206E+03  0.17736534207E+03  0.00000000000E+00 0.  1.
        -11    1    4    4    0    0  0.58545661552E+02 -0.13526699784E+02 -0.50687083239E+02  0.78611363687E+02  0.00000000000E+00 0.  1.
         11    1    4    4    0    0  0.11912065624E+02 -0.69483454290E+02  0.64195662237E+01  0.70788830744E+02  0.00000000000E+00 0. -1.
          2    1    1    2  501    0  0.37214686704E+02  0.48432152350E+02 -0.95306747261E+02  0.11319886201E+03  0.00000000000E+00 0. -1.
<scales pt_clust_5="13000.00000" pt_clust_6="13000.00000" pt_clust_7="13000.00000" pt_clust_8="13000.00000" pt_clust_9="13000.00000"></scales>
<clustering>
<clus scale="   92.227">  7  8 -1 -1</clus>
<clus scale="   61.079">  7  9 -1 -1</clus>
<clus scale="  110.177">  5  6 -1 -1</clus>
<clus scale="  157.886">  1  5  2 -1</clus>
<clus scale="  222.435">  2  5  1 -1</clus>
</clustering>
</event>
<event>
 9    1  0.3312826E-006  0.1825789E+03  0.7546771E-02  0.1179466E+00
          1   -1    0    0  502    0 -0.00000000000E+00  0.00000000000E+00  0.12408451979E+03  0.12408451979E+03  0.00000000000E+00 0. -1.
         21   -1    0    0  501  502  0.00000000000E+00 -0.00000000000E+00 -0.24883921352E+03  0.24883921352E+03  0.00000000000E+00 0.  1.
         23    2    1    2    0    0 -0.24637955588E+02  0.68058247986E+02 -0.13632554114E+03  0.18997856414E+03  0.11076212209E+03 0.  0.
         23    2    1    2    0    0 -0.27153488613E+02  0.16831811247E+01  0.14232994989E+02  0.96035401849E+02  0.90994918646E+02 0.  0.
        -11    1    4    4    0    0  0.29248946477E+02  0.86651469787E+01  0.23427653136E+02  0.38463496638E+02  0.00000000000E+00 0. -1.
         11    1    4    4    0    0 -0.56402435090E+02 -0.69819658540E+01 -0.91946581469E+01  0.57571905211E+02  0.00000000000E+00 0.  1.
        -13    1    3    3    0    0 -0.59013610740E+02  0.54009986387E+02 -0.45913949355E+02  0.92237604195E+02  0.00000000000E+00 0. -1.
         13    1    3    3    0    0  0.34375655153E+02  0.14048261598E+02 -0.90411591785E+02  0.97740959941E+02  0.00000000000E+00 0.  1.
          1    1    1    2  501    0  0.51791444201E+02 -0.69741429110E+02 -0.26621475763E+01  0.86909767325E+02  0.00000000000E+00 0. -1.
<scales pt_clust_5="13000.00000" pt_clust_6="13000.00000" pt_clust_7="13000.00000" pt_clust_8="13000.00000" pt_clust_9="13000.00000"></scales>
<clustering>
<clus scale="   90.995">  5  6 -1 -1</clus>
<clus scale="   86.869">  5  9 -1 -1</clus>
<clus scale="  110.762">  7  8 -1 -1</clus>
<clus scale="  132.315">  1  7  2 -1</clus>
<clus scale="  182.579">  2  5  1 -1</clus>
</clustering>
</event>
<event>
 9    1  0.3312826E-006  0.2720366E+03  0.7546771E-02  0.1130041E+00
          4   -1    0    0  502    0 -0.00000000000E+00  0.00000000000E+00  0.20049124285E+03  0.20049124285E+03  0.00000000000E+00 0. -1.
         21   -1    0    0  501  502  0.00000000000E+00 -0.00000000000E+00 -0.29687500082E+03  0.29687500082E+03  0.00000000000E+00 0. -1.
         23    2    1    2    0    0 -0.80693362551E+02  0.18288068858E+02  0.99626850995E+02  0.16206923565E+03  0.97442575312E+02 0.  0.
         23    2    1    2    0    0  0.21848665172E+02  0.92452917967E+02 -0.44911068441E+02  0.13893678873E+03  0.90892909429E+02 0.  0.
        -11    1    4    4    0    0 -0.20301402918E+02 -0.32800612543E+01  0.75630398444E+01  0.21911306077E+02  0.00000000000E+00 0.  1.
         11    1    4    4    0    0  0.42150068091E+02  0.95732979221E+02 -0.52474108286E+02  0.11702548266E+03  0.00000000000E+00 0. -1.
        -13    1    3    3    0    0  0.11212737351E+02 -0.22794915329E+02  0.31711203723E+02  0.40631688192E+02  0.00000000000E+00 0.  1.
         13    1    3    3    0    0 -0.91906099902E+02  0.41082984188E+02  0.67915647272E+02  0.12143754746E+03  0.00000000000E+00 0. -1.
          4    1    1    2  501    0  0.58844697379E+02 -0.11074098682E+03 -0.15109954052E+03  0.19636021928E+03  0.00000000000E+00 0. -1.
<scales pt_clust_5="13000.00000" pt_clust_6="13000.00000" pt_clust_7="13000.00000" pt_clust_8="13000.00000" pt_clust_9="13000.00000"></scales>
<clustering>
<clus scale="   90.893">  5  6 -1 -1</clus>
<clus scale="   97.443">  7  8 -1 -1</clus>
<clus scale="  125.404">  5  9 -1 -1</clus>
<clus scale="  127.832">  1  7  2 -1</clus>
<clus scale="  272.037">  2  5  1 -1</clus>
</clustering>
</event>
<event>
 9    1  0.3312826E-006  0.5025482E+03  0.7546771E-02  0.1068007E+00
         21   -1    0    0  501  502  0.00000000000E+00  0.00000000000E+00  0.23012004478E+03  0.23012004478E+03  0.00000000000E+00 0.  1.
          2   -1    0    0  502    0 -0.00000000000E+00 -0.00000000000E+00 -0.45156997862E+03  0.45156997862E+03  0.00000000000E+00 0. -1.
         23    2    1    2    0    0 -0.36116791193E+02 -0.18957030405E+02 -0.13917955610E+03  0.17245226716E+03  0.93300825318E+02 0.  0.
         23    2    1    2    0    0 -0.86643546128E+01 -0.13665330804E+03  0.15234133225E+03  0.22417182892E+03  0.91081994530E+02 0.  0.
        -11    1    4    4    0    0 -0.16554881429E+02 -0.43070865894E+02  0.11143862888E+01  0.46156315330E+02  0.00000000000E+00 0. -1.
         11    1    4    4    0    0  0.78905268164E+01 -0.93582442145E+02  0.15122694597E+03  0.17801551359E+03  0.00000000000E+00 0.  1.
        -11    1    3    3    0    0 -0.22446212620E+02 -0.51432031575E+02 -0.45108902174E+02  0.71999301304E+02  0.00000000000E+00 0.  1.
         11    1    3    3    0    0 -0.13670578573E+02  0.32475001169E+02 -0.94070653926E+02  0.10045296586E+03  0.00000000000E+00 0. -1.
          2    1    1    2  501    0  0.44781145806E+02  0.15561033844E+03 -0.23461171000E+03  0.28506592732E+03  0.00000000000E+00 0. -1.
<scales pt_clust_5="13000.00000" pt_clust_6="13000.00000" pt_clust_7="13000.00000" pt_clust_8="13000.00000" pt_clust_9="13000.00000"></scales>
<clustering>
<clus scale="   91.082">  5  6 -1 -1</clus>
<clus scale="   93.301">  7  8 -1 -1</clus>
<clus scale="  101.827">  2  7  1 -1</clus>
<clus scale="  139.567">  5  9 -1 -1</clus>
<clus scale="  502.548">  1  5  2 -1</clus>
</clustering>
</event>
<event>
 9    1  0.3312826E-006  0.3695323E+03  0.7546771E-02  0.1073424E+00
         -1   -1    0    0    0  501 -0.00000000000E+00  0.00000000000E+00  0.47299204055E+03  0.47299204055E+03  0.00000000000E+00 0.  1.
         21   -1    0    0  501  502  0.00000000000E+00 -0.00000000000E+00 -0.20586211372E+03  0.20586211372E+03  0.00000000000E+00 0.  1.
         23    2    1    2    0    0 -0.63406847698E+02  0.19167392775E+03  0.21043616487E+03  0.30499820806E+03  0.89337587393E+02 0.  0.
         23    2    1    2    0    0  0.25970112420E+02 -0.94565262638E+02  0.17361697707E+03  0.21732275415E+03  0.86425049076E+02 0.  0.
        -13    1    3    3    0    0 -0.77517167101E+02  0.11293468820E+03  0.10469010835E+03  0.17240410024E+03  0.00000000000E+00 0.  1.
         13    1    3    3    0    0  0.14110319403E+02  0.78739239549E+02  0.10574605652E+03  0.13259410782E+03  0.00000000000E+00 0. -1.
        -13    1    4    4    0    0  0.16567769295E+02  0.12261078429E+02  0.13598146273E+02  0.24692804735E+02  0.00000000000E+00 0.  1.
         13    1    4    4    0    0  0.94023431248E+01 -0.10682634107E+03  0.16001883080E+03  0.19262994941E+03  0.00000000000E+00 0. -1.
         -1    1    1    2    0  502  0.37436735278E+02 -0.97108665109E+02 -0.11692321510E+03  0.15653319206E+03  0.00000000000E+00 0.  1.
<scales pt_clust_5="13000.00000" pt_clust_6="13000.00000" pt_clust_7="13000.00000" pt_clust_8="13000.00000" pt_clust_9="13000.00000"></scales>
<clustering>
<clus scale="   86.425">  7  8 -1 -1</clus>
<clus scale="   89.338">  5  6 -1 -1</clus>
<clus scale="  104.075">  7  9 -1 -1</clus>
<clus scale="  220.773">  1  5  2 -1</clus>
<clus scale="  369.532">  2  5  1 -1</clus>
</clustering>
</event>
<event>
 9    1  0.3312826E-006  0.2866610E+03  0.7546771E-02  0.1137046E+00
          1   -1    0    0  502    0 -0.00000000000E+00  0.00000000000E+00  0.11259349698E+03  0.11259349698E+03  0.00000000000E+00 0. -1.
         21   -1    0    0  501  502  0.00000000000E+00 -0.00000000000E+00 -0.31929478966E+03  0.31929478966E+03  0.00000000000E+00 0. -1.
         23    2    1    2    0    0  0.16977860654E+02  0.14205087876E+02 -0.41168194977E+02  0.10086604917E+03  0.89381806449E+02 0.  0.
         23    2    1    2    0    0  0.24144998909E+02  0.29536705749E+00  0.53740636059E+02  0.10745496999E+03  0.89863487564E+02 0.  0.
        -13    1    3    3    0    0 -0.20842006983E+02 -0.21272686796E+02 -0.38859547184E+02  0.48958971251E+02  0.00000000000E+00 0.  1.
         13    1    3    3    0    0  0.37819867637E+02  0.35477774672E+02 -0.23086477932E+01  0.51907077922E+02  0.00000000000E+00 0. -1.
        -13    1    4    4    0    0  0.85911973121E+01  0.31201750669E+02  0.63700845797E+02  0.71450372087E+02  0.00000000000E+00 0. -1.
         13    1    4    4    0    0  0.15553801597E+02 -0.30906383611E+02 -0.99602097378E+01  0.36004597902E+02  0.00000000000E+00 0.  1.
          1    1    1    2  501    0 -0.41122859563E+02 -0.14500454934E+02 -0.21927373376E+03  0.22356726748E+03  0.00000000000E+00 0. -1.
<scales pt_clust_5="13000.00000" pt_clust_6="13000.00000" pt_clust_7="13000.00000" pt_clust_8="13000.00000" pt_clust_9="13000.00000"></scales>
<clustering>
<clus scale="   89.382">  5  6 -1 -1</clus>
<clus scale="   89.863">  7  8 -1 -1</clus>
<clus scale="   43.605">  7  9 -1 -1</clus>
<clus scale="   92.082">  1  5  2 -1</clus>
<clus scale="  286.661">  2  5  1 -1</clus>
</clustering>
</event>
<event>
 9    1  0.3312826E-006  0.5270374E+03  0.7546771E-02  0.1033626E+00
         21   -1    0    0  501  502  0.00000000000E+00  0.00000000000E+00  0.49740158722E+03  0.49740158722E+03  0.00000000000E+00 0. -1.
         -1   -1    0    0    0  501 -0.00000000000E+00 -0.00000000000E+00 -0.32213629023E+03  0.32213629023E+03  0.00000000000E+00 0.  1.
         23    2    1    2    0    0 -0.17400359834E+03  0.12756784381E+03  0.17395263285E+03  0.29249883697E+03  0.93516010106E+02 0.  0.
         23    2    1    2    0    0 -0.10126238965E+03  0.71528301399E+02 -0.85512125707E+02  0.17639793719E+03  0.91834302647E+02 0.  0.
        -11    1    4    4    0    0 -0.95665300944E+02  0.18979622393E+02 -0.35942008377E+02  0.10394182910E+03  0.00000000000E+00 0. -1.
         11    1    4    4    0    0 -0.55970887107E+01  0.52548679006E+02 -0.49570117330E+02  0.72456108089E+02  0.00000000000E+00 0.  1.
        -13    1    3    3    0    0 -0.25029904345E+02  0.42573067398E+02  0.87387584712E+02  0.10037704987E+03  0.00000000000E+00 0.  1.
         13    1    3    3    0    0 -0.14897369400E+03  0.84994776411E+02  0.86565048134E+02  0.19212178710E+03  0.00000000000E+00 0. -1.
         -1    1    1    2    0  502  0.27526598800E+03 -0.19909614521E+03  0.86824789849E+02  0.35064110329E+03  0.00000000000E+00 0.  1.
<scales pt_clust_5="13000.00000" pt_clust_6="13000.00000" pt_clust_7="13000.00000" pt_clust_8="13000.00000" pt_clust_9="13000.00000"></scales>
<clustering>
<clus scale="   91.834">  5  6 -1 -1</clus>
<clus scale="   93.516">  7  8 -1 -1</clus>
<clus scale="  235.151">  2  7  1 -1</clus>
<clus scale="  231.455">  5  9 -1 -1</clus>
<clus scale="  527.037">  1  5  2 -1</clus>
</clustering>
</event>
<event>
 9    1  0.3312826E-006  0.4137010E+03  0.7546771E-02  0.1044171E+00
         21   -1    0    0  501  502  0.00000000000E+00  0.00000000000E+00  0.56594234877E+03  0.56594234877E+03  0.00000000000E+00 0.  1.
          4   -1    0    0  502    0 -0.00000000000E+00 -0.00000000000E+00 -0.26744172087E+03  0.26744172087E+03  0.00000000000E+00 0. -1.
         23    2    1    2    0    0 -0.63239330569E+02  0.33962927798E+03  0.19375014349E+03  0.40662746951E+03  0.91975656932E+02 0.  0.
         23    2    1    2    0    0 -0.58515712662E+02 -0.15432969822E+03  0.69057171107E+02  0.20218091706E+03  0.94162019742E+02 0.  0.
        -11    1    3    3    0    0 -0.55165999183E+01  0.21465644547E+03  0.83999722566E+02  0.23057271271E+03  0.00000000000E+00 0. -1.
         11    1    3    3    0    0 -0.57722730651E+02  0.12497283251E+03  0.10975042092E+03  0.17605475680E+03  0.00000000000E+00 0.  1.
        -13    1    4    4    0    0 -0.67313647727E+02 -0.13080543989E+03  0.21870233797E+02  0.14872624988E+03  0.00000000000E+00 0. -1.
         13    1    4    4    0    0  0.87979350644E+01 -0.23524258326E+02  0.47186937310E+02  0.53454667185E+02  0.00000000000E+00 0.  1.
          4    1    1    2  501    0  0.12175504323E+03 -0.18529957976E+03  0.35693313307E+02  0.22457568307E+03  0.00000000000E+00 0. -1.
<scales pt_clust_5="13000.00000" pt_clust_6="13000.00000" pt_clust_7="13000.00000" pt_clust_8="13000.00000" pt_clust_9="13000.00000"></scales>
<clustering>
<clus scale="   91.976">  5  6 -1 -1</clus>
<clus scale="   94.162">  7  8 -1 -1</clus>
<clus scale="  221.721">  7  9 -1 -1</clus>
<clus scale="  357.501">  2  5  1 -1</clus>
<clus scale="  413.701">  1  5  2 -1</clus>
</clustering>
</event>
<event>
 9    1  0.3312826E-006  0.1443968E+03  0.7546771E-02  0.1227475E+00
         21   -1    0    0  501  502  0.00000000000E+00  0.00000000000E+00  0.57449170073E+02  0.57449170073E+02  0.00000000000E+00 0.  1.
          1   -1    0    0  502    0 -0.00000000000E+00 -0.00000000000E+00 -0.26034358296E+03  0.26034358296E+03  0.00000000000E+00 0. -1.
         23    2    1    2    0    0 -0.20878750787E+02  0.48080275742E-01 -0.11376599316E+03  0.14810390013E+03  0.92499402631E+02 0.  0.
         23    2    1    2    0    0  0.99505531160E+01 -0.20201472806E+02 -0.15213141831E+02  0.92299880556E+02  0.88208362729E+02 0.  0.
        -11    1    3    3    0    0  0.25021662650E+01  0.28894443748E+02 -0.10635641991E+03  0.11023991006E+03  0.00000000000E+00 0.  1.
         11    1    3    3    0    0 -0.23380917052E+02 -0.28846363473E+02 -0.74095732547E+01  0.37863990064E+02  0.00000000000E+00 0. -1.
        -13    1    4    4    0    0  0.20638529251E+02 -0.41334187649E+02  0.19607885682E+02  0.50188974278E+02  0.00000000000E+00 0.  1.
         13    1    4    4    0    0 -0.10687976135E+02  0.21132714843E+02 -0.34821027512E+02  0.42110906277E+02  0.00000000000E+00 0. -1.
          1    1    1    2  501    0  0.10928197671E+02  0.20153392530E+02 -0.73915277892E+02  0.77388972345E+02  0.00000000000E+00 0. -1.
<scales pt_clust_5="13000.00000" pt_clust_6="13000.00000" pt_clust_7="13000.00000" pt_clust_8="13000.00000" pt_clust_9="13000.00000"></scales>
<clustering>
<clus scale="   88.208">  7  8 -1 -1</clus>
<clus scale="   22.926">  7  9 -1 -1</clus>
<clus scale="   92.499">  5  6 -1 -1</clus>
<clus scale="   94.826">  2  5  1 -1</clus>
<clus scale="  144.397">  1  5  2 -1</clus>
</clustering>
</event>
<event>
 9    1  0.3312826E-006  0.2663562E+03  0.7546771E-02  0.1124785E+00
          1   -1    0    0  502    0 -0.00000000000E+00  0.00000000000E+00  0.62321553436E+03  0.62321553436E+03  0.00000000000E+00 0. -1.
         21   -1    0    0  501  502  0.00000000000E+00 -0.00000000000E+00 -0.93668179161E+02  0.93668179161E+02  0.00000000000E+00 0. -1.
         23    2    1    2    0    0  0.12119108082E+03  0.72159759725E+01  0.38228186934E+03  0.41252745012E+03  0.96437135495E+02 0.  0.
         23    2    1    2    0    0  0.42321648093E+01 -0.67236429969E+02  0.11716334976E+03  0.16209037135E+03  0.89484016573E+02 0.  0.
        -13    1    4    4    0    0 -0.42569616708E+02 -0.31417599409E+02  0.59834878132E+02  0.79871462115E+02  0.00000000000E+00 0.  1.
         13    1    4    4    0    0  0.46801781518E+02 -0.35818830560E+02  0.57328471627E+02  0.82218909230E+02  0.00000000000E+00 0. -1.
        -13    1    3    3    0    0  0.58393778044E+02  0.37842692451E+02  0.10066980555E+03  0.12237774486E+03  0.00000000000E+00 0.  1.
         13    1    3    3    0    0  0.62797302780E+02 -0.30626716479E+02  0.28161206378E+03  0.29014970527E+03  0.00000000000E+00 0. -1.
          1    1    1    2  501    0 -0.12542324563E+03  0.60020453996E+02  0.30102136105E+02  0.14226589205E+03  0.00000000000E+00 0. -1.
<scales pt_clust_5="13000.00000" pt_clust_6="13000.00000" pt_clust_7="13000.00000" pt_clust_8="13000.00000" pt_clust_9="13000.00000"></scales>
<clustering>
<clus scale="   89.484">  5  6 -1 -1</clus>
<clus scale="   96.437">  7  8 -1 -1</clus>
<clus scale="  139.045">  5  9 -1 -1</clus>
<clus scale="  155.047">  1  7  2 -1</clus>
<clus scale="  266.356">  2  5  1 -1</clus>
</clustering>
</event>
<event>
 9    1  0.3312826E-006  0.2684405E+03  0.7546771E-02  0.1132508E+00
         21   -1    0    0  501  502  0.00000000000E+00  0.00000000000E+00  0.42415849175E+02  0.42415849175E+02  0.00000000000E+00 0.  1.
          1   -1    0    0  502    0 -0.00000000000E+00 -0.00000000000E+00 -0.10036824316E+04  0.10036824316E+04  0.00000000000E+00 0. -1.
         23    2    1    2    0    0 -0.80077801686E+02  0.36120522504E+02 -0.46858748296E+03  0.48503409544E+03  0.89256361591E+02 0.  0.
         23    2    1    2    0    0  0.10398636392E+03  0.71998778346E+02 -0.26286538604E+03  0.30596470387E+03  0.92299517185E+02 0.  0.
        -11    1    3    3    0    0 -0.92693547407E+02  0.65601944794E+01 -0.35890010566E+03  0.37073496696E+03  0.00000000000E+00 0. -1.
         11    1    3    3    0    0  0.12615745721E+02  0.29560328025E+02 -0.10968737730E+03  0.11429912848E+03  0.00000000000E+00 0.  1.
        -13    1    4    4    0    0  0.10045610918E+03  0.34647300573E+02 -0.23884295149E+03  0.26141503550E+03  0.00000000000E+00 0.  1.
         13    1    4    4    0    0  0.35302547440E+01  0.37351477773E+02 -0.24022434546E+02  0.44549668370E+02  0.00000000000E+00 0. -1.
          1    1    1    2  501    0 -0.23908562237E+02 -0.10811930085E+03 -0.22981371345E+03  0.25509948149E+03  0.00000000000E+00 0. -1.
<scales pt_clust_5="13000.00000" pt_clust_6="13000.00000" pt_clust_7="13000.00000" pt_clust_8="13000.00000" pt_clust_9="13000.00000"></scales>
<clustering>
<clus scale="   89.256">  5  6 -1 -1</clus>
<clus scale="   92.300">  7  8 -1 -1</clus>
<clus scale="  110.731">  7  9 -1 -1</clus>
<clus scale="  125.235">  2  5  1 -1</clus>
<clus scale="  268.441">  1  5  2 -1</clus>
</clustering>
</event>
<event>
 9    1  0.3312826E-006  0.1677816E+03  0.7546771E-02  0.1203925E+00
         21   -1    0    0  501  502  0.00000000000E+00  0.00000000000E+00  0.16186906107E+03  0.16186906107E+03  0.00000000000E+00 0.  1.
          1   -1    0    0  502    0 -0.00000000000E+00 -0.00000000000E+00 -0.21258123254E+03  0.21258123254E+03  0.00000000000E+00 0. -1.
         23    2    1    2    0    0 -0.38730889016E+02 -0.10126576820E+02 -0.14963301847E+03  0.17967863406E+03  0.91059002842E+02 0.  0.
         23    2    1    2    0    0  0.74180325154E+02 -0.17432097171E+02  0.48162903539E+02  0.12700358552E+03  0.89463103039E+02 0.  0.
        -13    1    3    3    0    0 -0.10939877027E+02  0.17087881435E+02  0.44413627314E+01  0.20770226389E+02  0.00000000000E+00 0.  1.
         13    1    3    3    0    0 -0.27791011989E+02 -0.27214458256E+02 -0.15407438120E+03  0.15890840767E+03  0.00000000000E+00 0. -1.
        -13    1    4    4    0    0  0.45267409902E+02  0.51829861411E+01 -0.19864119326E+02  0.49704979440E+02  0.00000000000E+00 0.  1.
         13    1    4    4    0    0  0.28912915252E+02 -0.22615083312E+02  0.68027022865E+02  0.77298606078E+02  0.00000000000E+00 0. -1.
          1    1    1    2  501    0 -0.35449436137E+02  0.27558673992E+02  0.50757943458E+02  0.67768074037E+02  0.00000000000E+00 0. -1.
<scales pt_clust_5="13000.00000" pt_clust_6="13000.00000" pt_clust_7="13000.00000" pt_clust_8="13000.00000" pt_clust_9="13000.00000"></scales>
<clustering>
<clus scale="   89.463">  7  8 -1 -1</clus>
<clus scale="   44.902">  7  9 -1 -1</clus>
<clus scale="   91.059">  5  6 -1 -1</clus>
<clus scale="   99.470">  2  5  1 -1</clus>
<clus scale="  167.782">  1  5  2 -1</clus>
</clustering>
</event>
<event>
 9    1  0.3312826E-006  0.4094081E+03  0.7546771E-02  0.1090018E+00
          1   -1    0    0  502    0 -0.00000000000E+00  0.00000000000E+00  0.20238363397E+03  0.20238363397E+03  0.00000000000E+00 0. -1.
         21   -1    0    0  501  502  0.00000000000E+00 -0.00000000000E+00 -0.32588713337E+03  0.32588713337E+03  0.00000000000E+00 0.  1.
         23    2    1    2    0    0  0.51037324787E+02  0.11685371916E+02 -0.31649631876E+02  0.10868513530E+03  0.89829855839E+02 0.  0.
         23    2    1    2    0    0 -0.22313347944E+02 -0.32840866096E+01  0.14876282750E+03  0.17711492790E+03  0.93437937241E+02 0.  0.
        -11    1    4    4    0    0 -0.48504898312E+02 -0.18923780320E+02  0.44533923363E+02  0.68513538457E+02  0.00000000000E+00 0.  1.
         11    1    4    4    0    0  0.26191550368E+02  0.15639693711E+02  0.10422890414E+03  0.10860138944E+03  0.00000000000E+00 0. -1.
        -13    1    3    3    0    0  0.31140264955E+02  0.41552831519E+02  0.10862326243E+02  0.53050391518E+02  0.00000000000E+00 0.  1.
         13    1    3    3    0    0  0.19897059832E+02 -0.29867459603E+02 -0.42511958119E+02  0.55634743787E+02  0.00000000000E+00 0. -1.
          1    1    1    2  501    0 -0.28723976843E+02 -0.84012853064E+01 -0.24061669502E+03  0.24247070414E+03  0.00000000000E+00 0. -1.
<scales pt_clust_5="13000.00000" pt_clust_6="13000.00000" pt_clust_7="13000.00000" pt_clust_8="13000.00000" pt_clust_9="13000.00000"></scales>
<clustering>
<clus scale="   89.830">  7  8 -1 -1</clus>
<clus scale="   93.438">  5  6 -1 -1</clus>
<clus scale="   29.927">  5  9 -1 -1</clus>
<clus scale="  103.975">  1  7  2 -1</clus>
<clus scale="  409.408">  2  5  1 -1</clus>
</clustering>
</event>
<event>
 9    1  0.3312826E-006  0.2036301E+03  0.7546771E-02  0.1175828E+00
          1   -1    0    0  502    0 -0.00000000000E+00  0.00000000000E+00  0.50754759718E+03  0.50754759718E+03  0.00000000000E+00 0. -1.
         21   -1    0    0  501  502  0.00000000000E+00 -0.00000000000E+00 -0.50825890344E+02  0.50825890344E+02  0.00000000000E+00 0. -1.
         23    2    1    2    0    0  0.20755613042E+02  0.37311295979E+02  0.23793991131E+03  0.25949106528E+03  0.94325411657E+02 0.  0.
         23    2    1    2    0    0 -0.50511848678E+02  0.31531685266E+02  0.18858254488E+03  0.21803203965E+03  0.91809041209E+02 0.  0.
        -11    1    4    4    0    0 -0.32115910156E+01  0.55613732875E+02  0.10835145714E+03  0.12183283574E+03  0.00000000000E+00 0. -1.
         11    1    4    4    0    0 -0.47300257663E+02 -0.24082047610E+02  0.80231087739E+02  0.96199203904E+02  0.00000000000E+00 0.  1.
        -13    1    3    3    0    0  0.47546847174E+01  0.62895351627E+02  0.20647802269E+03  0.21589721197E+03  0.00000000000E+00 0.  1.
         13    1    3    3    0    0  0.16000928324E+02 -0.25584055648E+02  0.31461888624E+02  0.43593853310E+02  0.00000000000E+00 0. -1.
          1    1    1    2  501    0  0.29756235637E+02 -0.68842981245E+02  0.30199250639E+02  0.80850382591E+02  0.00000000000E+00 0. -1.
<scales pt_clust_5="13000.00000" pt_clust_6="13000.00000" pt_clust_7="13000.00000" pt_clust_8="13000.00000" pt_clust_9="13000.00000"></scales>
<clustering>
<clus scale="   91.809">  5  6 -1 -1</clus>
<clus scale="   74.999">  5  9 -1 -1</clus>
<clus scale="   94.325">  7  8 -1 -1</clus>
<clus scale="  103.538">  1  7  2 -1</clus>
<clus scale="  203.630">  2  5  1 -1</clus>
</clustering>
</event>
<event>
 9    1  0.3312826E-006  0.2800394E+03  0.7546771E-02  0.1114644E+00
         21   -1    0    0  501  502  0.00000000000E+00  0.00000000000E+00  0.87249449751E+02  0.87249449751E+02  0.00000000000E+00 0. -1.
          2   -1    0    0  502    0 -0.00000000000E+00 -0.00000000000E+00 -0.59036225195E+03  0.59036225195E+03  0.00000000000E+00 0. -1.
         23    2    1    2    0    0 -0.10559052299E+03  0.10153688635E+03 -0.16163711429E+03  0.23599230069E+03  0.90037278027E+02 0.  0.
         23    2    1    2    0    0  0.19852706549E+02 -0.92407890343E+02 -0.32842527718E+03  0.35441490022E+03  0.93879767012E+02 0.  0.
        -11    1    4    4    0    0  0.43346869183E+02 -0.98425343164E+02 -0.24568042455E+03  0.26818905692E+03  0.00000000000E+00 0. -1.
         11    1    4    4    0    0 -0.23494162634E+02  0.60174528215E+01 -0.82744852631E+02  0.86225843302E+02  0.00000000000E+00 0.  1.
        -13    1    3    3    0    0 -0.34041953029E+02 -0.96319571579E+01 -0.14631654274E+02  0.38284650600E+02  0.00000000000E+00 0.  1.
         13    1    3    3    0    0 -0.71548569962E+02  0.11116884350E+03 -0.14700546002E+03  0.19770765009E+03  0.00000000000E+00 0. -1.
          2    1    1    2  501    0  0.85737816442E+02 -0.91289960042E+01 -0.13050410720E+02  0.87204500780E+02  0.00000000000E+00 0. -1.
<scales pt_clust_5="13000.00000" pt_clust_6="13000.00000" pt_clust_7="13000.00000" pt_clust_8="13000.00000" pt_clust_9="13000.00000"></scales>
<clustering>
<clus scale="   90.037">  7  8 -1 -1</clus>
<clus scale="   93.880">  5  6 -1 -1</clus>
<clus scale="   86.222">  5  9 -1 -1</clus>
<clus scale="  171.947">  2  7  1 -1</clus>
<clus scale="  280.039">  1  5  2 -1</clus>
</clustering>
</event>
<event>
 9    1  0.3312826E-006  0.1732747E+03  0.7546771E-02  0.1199759E+00
         21   -1    0    0  501  502  0.00000000000E+00  0.00000000000E+00  0.17050884069E+03  0.17050884069E+03  0.00000000000E+00 0. -1.
          4   -1    0    0  502    0 -0.00000000000E+00 -0.00000000000E+00 -0.11002309045E+03  0.11002309045E+03  0.00000000000E+00 0. -1.
         23    2    1    2    0    0  0.75374763760E+01 -0.38586960212E+02  0.65095512474E+01  0.99044859530E+02  0.90673826948E+02 0.  0.
         23    2    1    2    0    0  0.91855337273E+01  0.85161015270E+02  0.28891743557E+02  0.12600706101E+03  0.87785386186E+02 0.  0.
        -11    1    4    4    0    0  0.42515467444E+02  0.43699899791E+02  0.38276871386E+02  0.71988645610E+02  0.00000000000E+00 0. -1.
         11    1    4    4    0    0 -0.33329933717E+02  0.41461115480E+02 -0.93851278285E+01  0.54018415404E+02  0.00000000000E+00 0.  1.
        -11    1    3    3    0    0 -0.13564424457E+02 -0.44833839540E+02 -0.30564684082E+02  0.55930909985E+02  0.00000000000E+00 0. -1.
         11    1    3    3    0    0  0.21101900833E+02  0.62468793279E+01  0.37074235329E+02  0.43113949545E+02  0.00000000000E+00 0.  1.
          4    1    1    2  501    0 -0.16723010103E+02 -0.46574055058E+02  0.25084455433E+02  0.55480010597E+02  0.00000000000E+00 0. -1.
<scales pt_clust_5="13000.00000" pt_clust_6="13000.00000" pt_clust_7="13000.00000" pt_clust_8="13000.00000" pt_clust_9="13000.00000"></scales>
<clustering>
<clus scale="   87.785">  5  6 -1 -1</clus>
<clus scale="   49.485">  5  9 -1 -1</clus>
<clus scale="   90.674">  7  8 -1 -1</clus>
<clus scale="   98.831">  2  7  1 -1</clus>
<clus scale="  173.275">  1  5  2 -1</clus>
</clustering>
</event>
<event>
 9    1  0.3312826E-006  0.1064926E+03  0.7546771E-02  0.1273474E+00
         21   -1    0    0  501  502  0.00000000000E+00  0.00000000000E+00  0.85747783574E+02  0.85747783574E+02  0.00000000000E+00 0.  1.
          1   -1    0    0  502    0 -0.00000000000E+00 -0.00000000000E+00 -0.12584086905E+03  0.12584086905E+03  0.00000000000E+00 0. -1.
         23    2    1    2    0    0 -0.11843472909E+02  0.11522656799E+02 -0.45946125496E+02  0.10493536474E+03  0.92883501526E+02 0.  0.
         23    2    1    2    0    0 -0.57748856295E+01  0.12414584677E+01 -0.38306033024E+01  0.82839381359E+02  0.82539681724E+02 0.  0.
        -11    1    3    3    0    0 -0.24222445179E+02 -0.29920160746E+02 -0.48125982417E+02  0.61628346182E+02  0.00000000000E+00 0. -1.
         11    1    3    3    0    0  0.12378972270E+02  0.41442817545E+02  0.21798569217E+01  0.43307018562E+02  0.00000000000E+00 0.  1.
        -13    1    4    4    0    0 -0.28327505335E+02  0.24010147294E+02  0.20670173109E+02  0.42499303382E+02  0.00000000000E+00 0.  1.
         13    1    4    4    0    0  0.22552619705E+02 -0.22768688826E+02 -0.24500776411E+02  0.40340077977E+02  0.00000000000E+00 0. -1.
          1    1    1    2  501    0  0.17618358539E+02 -0.12764115266E+02  0.96836433171E+01  0.23813906526E+02  0.00000000000E+00 0. -1.
<scales pt_clust_5="13000.00000" pt_clust_6="13000.00000" pt_clust_7="13000.00000" pt_clust_8="13000.00000" pt_clust_9="13000.00000"></scales>
<clustering>
<clus scale="   82.540">  7  8 -1 -1</clus>
<clus scale="   21.756">  7  9 -1 -1</clus>
<clus scale="   92.884">  5  6 -1 -1</clus>
<clus scale="   94.342">  2  5  1 -1</clus>
<clus scale="  106.493">  1  5  2 -1</clus>
</clustering>
</event>
<event>
 9    1  0.3312826E-006  0.1919633E+03  0.7546771E-02  0.1183848E+00
         21   -1    0    0  501  502  0.00000000000E+00  0.00000000000E+00  0.30940175915E+03  0.30940175915E+03  0.00000000000E+00 0. -1.
          1   -1    0    0  502    0 -0.00000000000E+00 -0.00000000000E+00 -0.12459518694E+03  0.12459518694E+03  0.00000000000E+00 0. -1.
         23    2    1    2    0    0 -0.19789744682E+02 -0.41840963579E+02 -0.62718287025E+02  0.12075828158E+03  0.92231658426E+02 0.  0.
         23    2    1    2    0    0  0.38386786423E+02  0.74609972196E+00  0.52278517411E+02  0.11284961342E+03  0.92346574545E+02 0.  0.
        -11    1    3    3    0    0 -0.26449806809E+01 -0.31418936034E+02 -0.85068308834E+02  0.90723550593E+02  0.00000000000E+00 0. -1.
         11    1    3    3    0    0 -0.17144764001E+02 -0.10422027545E+02  0.22350021809E+02  0.30034730991E+02  0.00000000000E+00 0.  1.
        -11    1    4    4    0    0  0.79378985034E+01  0.30550530063E+02 -0.13618632047E+02  0.34377496398E+02  0.00000000000E+00 0.  1.
         11    1    4    4    0    0  0.30448887919E+02 -0.29804430341E+02  0.65897149458E+02  0.78472117023E+02  0.00000000000E+00 0. -1.
          1    1    1    2  501    0 -0.18597041740E+02  0.41094863857E+02  0.19524634183E+03  0.20038905108E+03  0.00000000000E+00 0. -1.
<scales pt_clust_5="13000.00000" pt_clust_6="13000.00000" pt_clust_7="13000.00000" pt_clust_8="13000.00000" pt_clust_9="13000.00000"></scales>
<clustering>
<clus scale="   92.232">  5  6 -1 -1</clus>
<clus scale="   92.347">  7  8 -1 -1</clus>
<clus scale="   45.107">  7  9 -1 -1</clus>
<clus scale="  103.194">  2  5  1 -1</clus>
<clus scale="  191.963">  1  5  2 -1</clus>
</clustering>
</event>
<event>
 9    1  0.3312826E-006  0.4575382E+03  0.7546771E-02  0.1083018E+00
          2   -1    0    0  502    0 -0.00000000000E+00  0.00000000000E+00  0.10194119580E+04  0.10194119580E+04  0.00000000000E+00 0. -1.
         21   -1    0    0  501  502  0.00000000000E+00 -0.00000000000E+00 -0.85357586533E+02  0.85357586533E+02  0.00000000000E+00 0.  1.
         23    2    1    2    0    0  0.83768797164E+00  0.11780526134E+02  0.35823170924E+03  0.36930169794E+03  0.88962374512E+02 0.  0.
         23    2    1    2    0    0  0.14556857686E+03 -0.16597013275E+03  0.23743654324E+03  0.33582501268E+03  0.87555876689E+02 0.  0.
        -11    1    3    3    0    0  0.35418379403E+02 -0.21192064262E+02  0.14347319951E+03  0.14929207670E+03  0.00000000000E+00 0.  1.
         11    1    3    3    0    0 -0.34580691431E+02  0.32972590396E+02  0.21475850973E+03  0.22000962124E+03  0.00000000000E+00 0. -1.
        -13    1    4    4    0    0  0.59865794984E+02 -0.39746050542E+02  0.28938198430E+02  0.77466646185E+02  0.00000000000E+00 0.  1.
         13    1    4    4    0    0  0.85702781879E+02 -0.12622408221E+03  0.20849834481E+03  0.25835836650E+03  0.00000000000E+00 0. -1.
          2    1    1    2  501    0 -0.14640626484E+03  0.15418960662E+03  0.33838611897E+03  0.39964283390E+03  0.00000000000E+00 0. -1.
<scales pt_clust_5="13000.00000" pt_clust_6="13000.00000" pt_clust_7="13000.00000" pt_clust_8="13000.00000" pt_clust_9="13000.00000"></scales>
<clustering>
<clus scale="   87.556">  7  8 -1 -1</clus>
<clus scale="   88.962">  5  6 -1 -1</clus>
<clus scale="   89.743">  1  5  2 -1</clus>
<clus scale="  217.164">  7  9 -1 -1</clus>
<clus scale="  457.538">  2  5  1 -1</clus>
</clustering>
</event>
<event>
 9    1  0.3312826E-006  0.3912075E+03  0.7546771E-02  0.1052715E+00
         -3   -1    0    0    0  501 -0.00000000000E+00  0.00000000000E+00  0.81928978250E+03  0.81928978250E+03  0.00000000000E+00 0.  1.
         21   -1    0    0  501  502  0.00000000000E+00 -0.00000000000E+00 -0.20664976345E+03  0.20664976345E+03  0.00000000000E+00 0.  1.
         23    2    1    2    0    0  0.16908446289E+03 -0.26940408855E+03  0.53184906724E+03  0.62647677390E+03  0.91878176938E+02 0.  0.
         23    2    1    2    0    0 -0.84732518661E+02  0.89099254204E+02  0.94731239279E+02  0.19991474426E+03  0.12599055703E+03 0.  0.
        -11    1    4    4    0    0 -0.59801555331E+02  0.12100330480E+03  0.79550916528E+02  0.15667282506E+03  0.00000000000E+00 0.  1.
         11    1    4    4    0    0 -0.24930963331E+02 -0.31904050598E+02  0.15180322751E+02  0.43241919199E+02  0.00000000000E+00 0. -1.
        -11    1    3    3    0    0  0.12292162869E+02 -0.93053007946E+02  0.17665380854E+03  0.20004131480E+03  0.00000000000E+00 0. -1.
         11    1    3    3    0    0  0.15679230002E+03 -0.17635108060E+03  0.35519525870E+03  0.42643545910E+03  0.00000000000E+00 0.  1.
         -3    1    1    2    0  502 -0.84351944229E+02  0.18030483434E+03 -0.13940287466E+02  0.19954802780E+03  0.00000000000E+00 0.  1.
<scales pt_clust_5="13000.00000" pt_clust_6="13000.00000" pt_clust_7="13000.00000" pt_clust_8="13000.00000" pt_clust_9="13000.00000"></scales>
<clustering>
<clus scale="   91.878">  7  8 -1 -1</clus>
<clus scale="  125.991">  5  6 -1 -1</clus>
<clus scale="  199.061">  5  9 -1 -1</clus>
<clus scale="  331.074">  1  7  2 -1</clus>
<clus scale="  391.208">  2  5  1 -1</clus>
</clustering>
</event>
<event>
 9    1  0.3312826E-006  0.2952859E+03  0.7546771E-02  0.1112868E+00
         21   -1    0    0  501  502  0.00000000000E+00  0.00000000000E+00  0.57564787297E+02  0.57564787297E+02  0.00000000000E+00 0. -1.
          1   -1    0    0  502    0 -0.00000000000E+00 -0.00000000000E+00 -0.11322513157E+04  0.11322513157E+04  0.00000000000E+00 0. -1.
         23    2    1    2    0    0  0.96380501859E+02  0.73995536997E+02 -0.67888791156E+03  0.69600411117E+03  0.93639658646E+02 0.  0.
         23    2    1    2    0    0 -0.51854612830E+01  0.56054951735E+02 -0.27240601229E+03  0.29267671421E+03  0.91025144247E+02 0.  0.
        -11    1    4    4    0    0  0.36724637298E+02  0.45823549935E+02 -0.19949598391E+03  0.20795947757E+03  0.00000000000E+00 0. -1.
         11    1    4    4    0    0 -0.41910098581E+02  0.10231401799E+02 -0.72910028378E+02  0.84717236640E+02  0.00000000000E+00 0.  1.
        -13    1    3    3    0    0 -0.17200852797E+02  0.20417035375E+02 -0.90096036398E+02  0.93968188474E+02  0.00000000000E+00 0.  1.
         13    1    3    3    0    0  0.11358135466E+03  0.53578501622E+02 -0.58879187516E+03  0.60203592270E+03  0.00000000000E+00 0. -1.
          1    1    1    2  501    0 -0.91195040576E+02 -0.13005048873E+03 -0.12339260456E+03  0.20113527763E+03  0.00000000000E+00 0. -1.
<scales pt_clust_5="13000.00000" pt_clust_6="13000.00000" pt_clust_7="13000.00000" pt_clust_8="13000.00000" pt_clust_9="13000.00000"></scales>
<clustering>
<clus scale="   91.025">  5  6 -1 -1</clus>
<clus scale="   93.640">  7  8 -1 -1</clus>
<clus scale="  153.404">  2  7  1 -1</clus>
<clus scale="  117.306">  5  9 -1 -1</clus>
<clus scale="  295.286">  1  5  2 -1</clus>
</clustering>
</event>
<event>
 9    1  0.3312826E-006  0.1699593E+03  0.7546771E-02  0.1203236E+00
         -1   -1    0    0    0  501 -0.00000000000E+00  0.00000000000E+00  0.31143473784E+03  0.31143473784E+03  0.00000000000E+00 0.  1.
         21   -1    0    0  501  502  0.00000000000E+00 -0.00000000000E+00 -0.93480866451E+02  0.93480866451E+02  0.00000000000E+00 0.  1.
         23    2    1    2    0    0 -0.31891524009E+02 -0.19750490907E+01  0.21388660271E+03  0.23490767282E+03  0.91723311148E+02 0.  0.
         23    2    1    2    0    0 -0.38682629548E+02 -0.80796237636E+01  0.31587664240E+01  0.98715344388E+02  0.90405283382E+02 0.  0.
        -11    1    3    3    0    0  0.44057717321E+01 -0.42120484655E+02  0.10761389953E+03  0.11564729752E+03  0.00000000000E+00 0.  1.
         11    1    3    3    0    0 -0.36297295741E+02  0.40145435565E+02  0.10627270318E+03  0.11926037530E+03  0.00000000000E+00 0. -1.
        -13    1    4    4    0    0 -0.48834645961E+02 -0.33679582948E+02  0.24188960732E+02  0.64064364314E+02  0.00000000000E+00 0.  1.
         13    1    4    4    0    0  0.10152016413E+02  0.25599959184E+02 -0.21030194308E+02  0.34650980074E+02  0.00000000000E+00 0. -1.
         -1    1    1    2    0  502  0.70574153556E+02  0.10054672854E+02  0.90850225260E+00  0.71292587081E+02  0.00000000000E+00 0.  1.
<scales pt_clust_5="13000.00000" pt_clust_6="13000.00000" pt_clust_7="13000.00000" pt_clust_8="13000.00000" pt_clust_9="13000.00000"></scales>
<clustering>
<clus scale="   90.405">  7  8 -1 -1</clus>
<clus scale="   71.287">  7  9 -1 -1</clus>
<clus scale="   91.723">  5  6 -1 -1</clus>
<clus scale="   97.129">  1  5  2 -1</clus>
<clus scale="  169.959">  2  5  1 -1</clus>
</clustering>
</event>
<event>
 9    1  0.3312826E-006  0.1971640E+03  0.7546771E-02  0.1163392E+00
         21   -1    0    0  501  502  0.00000000000E+00  0.00000000000E+00  0.51595371157E+03  0.51595371157E+03  0.00000000000E+00 0.  1.
         -2   -1    0    0    0  501 -0.00000000000E+00 -0.00000000000E+00 -0.65930830564E+02  0.65930830564E+02  0.00000000000E+00 0.  1.
         23    2    1    2    0    0 -0.10985412699E+03  0.56759811552E+02  0.10476273969E+03  0.18429401859E+03  0.87746499844E+02 0.  0.
         23    2    1    2    0    0  0.41898108536E+02 -0.48113774824E+02  0.12352178489E+03  0.16551150014E+03  0.89811126876E+02 0.  0.
        -13    1    4    4    0    0  0.31063569741E+02 -0.74277365837E+02  0.10198175900E+03  0.12993210385E+03  0.00000000000E+00 0.  1.
         13    1    4    4    0    0  0.10834538795E+02  0.26163591013E+02  0.21540025885E+02  0.35579396295E+02  0.00000000000E+00 0. -1.
        -13    1    3    3    0    0 -0.60216905882E+02  0.69087599556E+02  0.95418680544E+02  0.13230229311E+03  0.00000000000E+00 0. -1.
         13    1    3    3    0    0 -0.49637221106E+02 -0.12327788004E+02  0.93440591497E+01  0.51991725473E+02  0.00000000000E+00 0.  1.
         -2    1    1    2    0  502  0.67956018453E+02 -0.86460367284E+01  0.22173835643E+03  0.23207902341E+03  0.00000000000E+00 0.  1.
<scales pt_clust_5="13000.00000" pt_clust_6="13000.00000" pt_clust_7="13000.00000" pt_clust_8="13000.00000" pt_clust_9="13000.00000"></scales>
<clustering>
<clus scale="   87.746">  7  8 -1 -1</clus>
<clus scale="   89.811">  5  6 -1 -1</clus>
<clus scale="   68.504">  5  9 -1 -1</clus>
<clus scale="  151.621">  2  7  1 -1</clus>
<clus scale="  197.164">  1  5  2 -1</clus>
</clustering>
</event>
<event>
 9    1  0.3312826E-006  0.3918692E+03  0.7546771E-02  0.1055749E+00
          1   -1    0    0  502    0 -0.00000000000E+00  0.00000000000E+00  0.37613280518E+03  0.37613280518E+03  0.00000000000E+00 0. -1.
         21   -1    0    0  501  502  0.00000000000E+00 -0.00000000000E+00 -0.33783988910E+03  0.33783988910E+03  0.00000000000E+00 0. -1.
         23    2    1    2    0    0  0.61259376733E+02 -0.28109404097E+03  0.97566869919E+02  0.31764599256E+03  0.92806849849E+02 0.  0.
         23    2    1    2    0    0 -0.30019111634E+02  0.46197094078E+01  0.35639875403E+02  0.10234941491E+03  0.91009412899E+02 0.  0.
        -11    1    3    3    0    0  0.33932112359E+02 -0.76112552309E+02 -0.11046895149E+02  0.84062731104E+02  0.00000000000E+00 0.  1.
         11    1    3    3    0    0  0.27327264374E+02 -0.20498148866E+03  0.10861376507E+03  0.23358326146E+03  0.00000000000E+00 0. -1.
        -13    1    4    4    0    0 -0.58565445530E+02  0.20997869724E+02  0.16871700828E+02  0.64462983424E+02  0.00000000000E+00 0.  1.
         13    1    4    4    0    0  0.28546333895E+02 -0.16378160317E+02  0.18768174575E+02  0.37886431491E+02  0.00000000000E+00 0. -1.
          1    1    1    2  501    0 -0.31240265099E+02  0.27647433156E+03 -0.94913829245E+02  0.29397728681E+03  0.00000000000E+00 0. -1.
<scales pt_clust_5="13000.00000" pt_clust_6="13000.00000" pt_clust_7="13000.00000" pt_clust_8="13000.00000" pt_clust_9="13000.00000"></scales>
<clustering>
<clus scale="   91.009">  7  8 -1 -1</clus>
<clus scale="   92.807">  5  6 -1 -1</clus>
<clus scale="  278.234">  7  9 -1 -1</clus>
<clus scale="  302.291">  1  5  2 -1</clus>
<clus scale="  391.869">  2  5  1 -1</clus>
</clustering>
</event>
<event>
 9    1  0.3312826E-006  0.1228721E+03  0.7546771E-02  0.1243788E+00
         -1   -1    0    0    0  501 -0.00000000000E+00  0.00000000000E+00  0.25827183597E+03  0.25827183597E+03  0.00000000000E+00 0.  1.
         21   -1    0    0  501  502  0.00000000000E+00 -0.00000000000E+00 -0.54273754574E+02  0.54273754574E+02  0.00000000000E+00 0. -1.
         23    2    1    2    0    0 -0.11317871822E+02 -0.56926755288E+02  0.69207004113E+02  0.13015540100E+03  0.93712695516E+02 0.  0.
         23    2    1    2    0    0 -0.12120579838E+01  0.36746145089E+02  0.11983078346E+03  0.15431766632E+03  0.90015427621E+02 0.  0.
        -13    1    3    3    0    0 -0.12773634198E+02  0.22186704512E+02  0.36389901794E+02  0.44493151611E+02  0.00000000000E+00 0.  1.
         13    1    3    3    0    0  0.14557623768E+01 -0.79113459800E+02  0.32817102319E+02  0.85662249388E+02  0.00000000000E+00 0. -1.
        -13    1    4    4    0    0 -0.43813350190E+02  0.11622082171E+02  0.40246432940E+02  0.60617306219E+02  0.00000000000E+00 0.  1.
         13    1    4    4    0    0  0.42601292206E+02  0.25124062918E+02  0.79584350520E+02  0.93700360100E+02  0.00000000000E+00 0. -1.
         -1    1    1    2    0  502  0.12529929805E+02  0.20180610199E+02  0.14960293818E+02  0.28072523222E+02  0.00000000000E+00 0.  1.
<scales pt_clust_5="13000.00000" pt_clust_6="13000.00000" pt_clust_7="13000.00000" pt_clust_8="13000.00000" pt_clust_9="13000.00000"></scales>
<clustering>
<clus scale="   90.015">  7  8 -1 -1</clus>
<clus scale="   23.754">  7  9 -1 -1</clus>
<clus scale="   93.713">  5  6 -1 -1</clus>
<clus scale="  110.231">  1  5  2 -1</clus>
<clus scale="  122.872">  2  5  1 -1</clus>
</clustering>
</event>
<event>
 9    1  0.3312826E-006  0.3916441E+03  0.7546771E-02  0.1048213E+00
         21   -1    0    0  501  502  0.00000000000E+00  0.00000000000E+00  0.86065851008E+02  0.86065851008E+02  0.00000000000E+00 0. -1.
          2   -1    0    0  502    0 -0.00000000000E+00 -0.00000000000E+00 -0.18566062871E+04  0.18566062871E+04  0.00000000000E+00 0. -1.
         23    2    1    2    0    0 -0.36145363647E+03  0.43206452059E+02 -0.11425893523E+04  0.12025993839E+04  0.90660472872E+02 0.  0.
         23    2    1    2    0    0  0.22506855850E+03  0.14474028067E+02 -0.39364637957E+03  0.46289659777E+03  0.91926245228E+02 0.  0.
        -11    1    4    4    0    0  0.69843279496E+02 -0.16839195905E+02 -0.60093116985E+02  0.93663359530E+02  0.00000000000E+00 0.  1.
         11    1    4    4    0    0  0.15522527900E+03  0.31313223972E+02 -0.33355326259E+03  0.36923323824E+03  0.00000000000E+00 0. -1.
        -11    1    3    3    0    0 -0.25190245026E+03 -0.12378291121E+02 -0.78088372886E+03  0.82060189162E+03  0.00000000000E+00 0. -1.
         11    1    3    3    0    0 -0.10955118621E+03  0.55584743180E+02 -0.36170562345E+03  0.38199749228E+03  0.00000000000E+00 0.  1.
          2    1    1    2  501    0  0.13638507798E+03 -0.57680480126E+02 -0.23430470423E+03  0.27717615645E+03  0.00000000000E+00 0. -1.
<scales pt_clust_5="13000.00000" pt_clust_6="13000.00000" pt_clust_7="13000.00000" pt_clust_8="13000.00000" pt_clust_9="13000.00000"></scales>
<clustering>
<clus scale="   90.660">  7  8 -1 -1</clus>
<clus scale="   91.926">  5  6 -1 -1</clus>
<clus scale="  148.081">  5  9 -1 -1</clus>
<clus scale="  375.146">  2  7  1 -1</clus>
<clus scale="  391.644">  1  5  2 -1</clus>
</clustering>
</event>
<event>
 9    1  0.3312826E-006  0.2113582E+03  0.7546771E-02  0.1166785E+00
         21   -1    0    0  501  502  0.00000000000E+00  0.00000000000E+00  0.19587212651E+03  0.19587212651E+03  0.00000000000E+00 0. -1.
         -3   -1    0    0    0  501 -0.00000000000E+00 -0.00000000000E+00 -0.31234719814E+03  0.31234719814E+03  0.00000000000E+00 0.  1.
         23    2    1    2    0    0 -0.21328695686E+02 -0.61606665997E+02 -0.23842942169E+03  0.26420052923E+03  0.93290063562E+02 0.  0.
         23    2    1    2    0    0 -0.62030233124E+02  0.64925906817E+02  0.66059455788E+02  0.14359983518E+03  0.90520372105E+02 0.  0.
        -11    1    3    3    0    0  0.15086476289E+02 -0.20353150334E+02 -0.69502506629E+01  0.26270867508E+02  0.00000000000E+00 0. -1.
         11    1    3    3    0    0 -0.36415171975E+02 -0.41253515663E+02 -0.23147917103E+03  0.23792966172E+03  0.00000000000E+00 0.  1.
        -13    1    4    4    0    0 -0.32803264226E+02  0.84745227464E+02  0.56539958895E+02  0.10702604671E+03  0.00000000000E+00 0. -1.
         13    1    4    4    0    0 -0.29226968897E+02 -0.19819320647E+02  0.95194968924E+01  0.36573788468E+02  0.00000000000E+00 0.  1.
         -3    1    1    2    0  502  0.83358928810E+02 -0.33192408205E+01  0.55894894275E+02  0.10041896025E+03  0.00000000000E+00 0.  1.
<scales pt_clust_5="13000.00000" pt_clust_6="13000.00000" pt_clust_7="13000.00000" pt_clust_8="13000.00000" pt_clust_9="13000.00000"></scales>
<clustering>
<clus scale="   90.520">  7  8 -1 -1</clus>
<clus scale="   83.425">  7  9 -1 -1</clus>
<clus scale="   93.290">  5  6 -1 -1</clus>
<clus scale="  113.813">  2  5  1 -1</clus>
<clus scale="  211.358">  1  5  2 -1</clus>
</clustering>
</event>
<event>
 9    1  0.3312826E-006  0.1876610E+03  0.7546771E-02  0.1189840E+00
         21   -1    0    0  501  502  0.00000000000E+00  0.00000000000E+00  0.65650515955E+02  0.65650515955E+02  0.00000000000E+00 0.  1.
          1   -1    0    0  502    0 -0.00000000000E+00 -0.00000000000E+00 -0.31587688513E+03  0.31587688513E+03  0.00000000000E+00 0. -1.
         23    2    1    2    0    0 -0.15543627738E+02  0.22519720528E+02 -0.11485984892E+03  0.15013868876E+03  0.92736717607E+02 0.  0.
         23    2    1    2    0    0 -0.31609992291E+02 -0.62684136915E+02 -0.49862896065E+02  0.12580692424E+03  0.91720124015E+02 0.  0.
        -11    1    4    4    0    0 -0.17131211629E+02  0.17720969591E+02 -0.34936998964E+02  0.42756345398E+02  0.00000000000E+00 0. -1.
         11    1    4    4    0    0 -0.14478780663E+02 -0.80405106507E+02 -0.14925897101E+02  0.83050578843E+02  0.00000000000E+00 0.  1.
        -13    1    3    3    0    0  0.27569156166E+02  0.26235863166E+02 -0.95363051488E+02  0.10267663063E+03  0.00000000000E+00 0. -1.
         13    1    3    3    0    0 -0.43112783904E+02 -0.37161426372E+01 -0.19496797431E+02  0.47462058132E+02  0.00000000000E+00 0.  1.
          1    1    1    2  501    0  0.47153620030E+02  0.40164416387E+02 -0.85503624189E+02  0.10558178808E+03  0.00000000000E+00 0. -1.
<scales pt_clust_5="13000.00000" pt_clust_6="13000.00000" pt_clust_7="13000.00000" pt_clust_8="13000.00000" pt_clust_9="13000.00000"></scales>
<clustering>
<clus scale="   91.720">  5  6 -1 -1</clus>
<clus scale="   61.941">  5  9 -1 -1</clus>
<clus scale="   92.737">  7  8 -1 -1</clus>
<clus scale="   96.689">  2  7  1 -1</clus>
<clus scale="  187.661">  1  5  2 -1</clus>
</clustering>
</event>
<event>
 9    1  0.3312826E-006  0.5709676E+03  0.7546771E-02  0.1054084E+00
         21   -1    0    0  501  502  0.00000000000E+00  0.00000000000E+00  0.11314005709E+04  0.11314005709E+04  0.00000000000E+00 0. -1.
         -3   -1    0    0    0  501 -0.00000000000E+00 -0.00000000000E+00 -0.10298707496E+03  0.10298707496E+03  0.00000000000E+00 0.  1.
         23    2    1    2    0    0  0.40303691256E+02 -0.17511005677E+02  0.92294049143E+02  0.13788246945E+03  0.92533026677E+02 0.  0.
         23    2    1    2    0    0 -0.14352420875E+03 -0.22968006615E+03  0.61372962306E+03  0.67734756920E+03  0.93720584713E+02 0.  0.
        -11    1    4    4    0    0 -0.69470498248E+01 -0.30183250477E+02  0.21595762809E+02  0.37758006858E+02  0.00000000000E+00 0.  1.
         11    1    4    4    0    0 -0.13657715892E+03 -0.19949681567E+03  0.59213386025E+03  0.63958956235E+03  0.00000000000E+00 0. -1.
        -13    1    3    3    0    0  0.66903039882E+02 -0.37969795560E+01  0.41181603377E+02  0.78653405876E+02  0.00000000000E+00 0.  1.
         13    1    3    3    0    0 -0.26599348626E+02 -0.13714026121E+02  0.51112445765E+02  0.59229063574E+02  0.00000000000E+00 0. -1.
         -3    1    1    2    0  502  0.10322051749E+03  0.24719107183E+03  0.32238982372E+03  0.41915760718E+03  0.00000000000E+00 0.  1.
<scales pt_clust_5="13000.00000" pt_clust_6="13000.00000" pt_clust_7="13000.00000" pt_clust_8="13000.00000" pt_clust_9="13000.00000"></scales>
<clustering>
<clus scale="   92.533">  7  8 -1 -1</clus>
<clus scale="   93.721">  5  6 -1 -1</clus>
<clus scale="  102.437">  2  7  1 -1</clus>
<clus scale="  268.808">  5  9 -1 -1</clus>
<clus scale="  570.968">  1  5  2 -1</clus>
</clustering>
</event>
<event>
 9    1  0.3312826E-006  0.2935422E+03  0.7546771E-02  0.1101652E+00
         21   -1    0    0  501  502  0.00000000000E+00  0.00000000000E+00  0.20766094602E+04  0.20766094602E+04  0.00000000000E+00 0.  1.
         -1   -1    0    0    0  501 -0.00000000000E+00 -0.00000000000E+00 -0.50014524336E+02  0.50014524336E+02  0.00000000000E+00 0.  1.
         23    2    1    2    0    0 -0.10447106855E+03  0.15474343103E+03  0.24696476070E+03  0.32294702013E+03  0.91888253739E+02 0.  0.
         23    2    1    2    0    0  0.51424126611E+02  0.17892502506E+02  0.52098345154E+03  0.53213903005E+03  0.93720905272E+02 0.  0.
        -11    1    3    3    0    0 -0.33282814931E+02  0.50572941575E+01  0.84026325836E+02  0.90519309694E+02  0.00000000000E+00 0. -1.
         11    1    3    3    0    0 -0.71188253620E+02  0.14968613687E+03  0.16293843486E+03  0.23242771044E+03  0.00000000000E+00 0.  1.
        -13    1    4    4    0    0  0.68489623551E+02  0.37727928782E+02  0.44393102298E+03  0.45076488140E+03  0.00000000000E+00 0.  1.
         13    1    4    4    0    0 -0.17065496940E+02 -0.19835426276E+02  0.77052428561E+02  0.81374148650E+02  0.00000000000E+00 0. -1.
         -1    1    1    2    0  502  0.53046941940E+02 -0.17263593353E+03  0.12586467236E+04  0.12715379343E+04  0.00000000000E+00 0.  1.
<scales pt_clust_5="13000.00000" pt_clust_6="13000.00000" pt_clust_7="13000.00000" pt_clust_8="13000.00000" pt_clust_9="13000.00000"></scales>
<clustering>
<clus scale="   91.888">  5  6 -1 -1</clus>
<clus scale="   93.721">  7  8 -1 -1</clus>
<clus scale="  180.602">  7  9 -1 -1</clus>
<clus scale="  208.094">  2  5  1 -1</clus>
<clus scale="  293.542">  1  5  2 -1</clus>
</clustering>
</event>
<event>
 9    1  0.3312826E-006  0.2265814E+03  0.7546771E-02  0.1160423E+00
          1   -1    0    0  502    0 -0.00000000000E+00  0.00000000000E+00  0.70112990062E+02  0.70112990062E+02  0.00000000000E+00 0. -1.
         21   -1    0    0  501  502  0.00000000000E+00 -0.00000000000E+00 -0.67410945984E+03  0.67410945984E+03  0.00000000000E+00 0. -1.
         23    2    1    2    0    0 -0.43797780777E+02  0.39731069809E+02 -0.46773677072E+03  0.47982532140E+03  0.89206775843E+02 0.  0.
         23    2    1    2    0    0 -0.28027604875E+01 -0.18379807863E+02  0.24654906516E+02  0.95515521696E+02  0.90386269234E+02 0.  0.
        -11    1    4    4    0    0  0.41036956139E+02 -0.12025550584E+02  0.27963900574E+02  0.51094279242E+02  0.00000000000E+00 0.  1.
         11    1    4    4    0    0 -0.43839716626E+02 -0.63542572785E+01 -0.33089940575E+01  0.44421242453E+02  0.00000000000E+00 0. -1.
        -11    1    3    3    0    0 -0.70083970923E+02  0.39274733535E+02 -0.36936992919E+03  0.37800583629E+03  0.00000000000E+00 0. -1.
         11    1    3    3    0    0  0.26286190146E+02  0.45633627328E+00 -0.98366841531E+02  0.10181948511E+03  0.00000000000E+00 0.  1.
          1    1    1    2  501    0  0.46600541265E+02 -0.21351261946E+02 -0.16091460558E+03  0.16888160681E+03  0.00000000000E+00 0. -1.
<scales pt_clust_5="13000.00000" pt_clust_6="13000.00000" pt_clust_7="13000.00000" pt_clust_8="13000.00000" pt_clust_9="13000.00000"></scales>
<clustering>
<clus scale="   89.207">  7  8 -1 -1</clus>
<clus scale="   90.386">  5  6 -1 -1</clus>
<clus scale="   51.259">  5  9 -1 -1</clus>
<clus scale="  107.026">  1  7  2 -1</clus>
<clus scale="  226.581">  2  5  1 -1</clus>
</clustering>
</event>
<event>
 9    1  0.3312826E-006  0.6924044E+03  0.7546771E-02  0.1025233E+00
         21   -1    0    0  501  502  0.00000000000E+00  0.00000000000E+00  0.91975235850E+03  0.91975235850E+03  0.00000000000E+00 0. -1.
          1   -1    0    0  502    0 -0.00000000000E+00 -0.00000000000E+00 -0.26385337441E+03  0.26385337441E+03  0.00000000000E+00 0. -1.
         23    2    1    2    0    0 -0.85541132380E+02 -0.36080234658E+02 -0.94010536452E+02  0.16292547766E+03  0.95329227661E+02 0.  0.
         23    2    1    2    0    0 -0.37227267634E+02  0.12588699571E+03 -0.79651005246E+02  0.17728947968E+03  0.88622073013E+02 0.  0.
        -11    1    3    3    0    0 -0.23100682167E+02  0.69142340021E+01 -0.82861647171E+02  0.86298903355E+02  0.00000000000E+00 0. -1.
         11    1    3    3    0    0 -0.62440450213E+02 -0.42994468660E+02 -0.11148889281E+02  0.76626574310E+02  0.00000000000E+00 0.  1.
        -11    1    4    4    0    0  0.19949759621E+02  0.16209929153E+02 -0.39729880317E+02  0.47320377239E+02  0.00000000000E+00 0.  1.
         11    1    4    4    0    0 -0.57177027256E+02  0.10967706656E+03 -0.39921124929E+02  0.12996910244E+03  0.00000000000E+00 0. -1.
          1    1    1    2  501    0  0.12276840001E+03 -0.89806761053E+02  0.82956052578E+03  0.84339077557E+03  0.00000000000E+00 0. -1.
<scales pt_clust_5="13000.00000" pt_clust_6="13000.00000" pt_clust_7="13000.00000" pt_clust_8="13000.00000" pt_clust_9="13000.00000"></scales>
<clustering>
<clus scale="   88.622">  7  8 -1 -1</clus>
<clus scale="   95.329">  5  6 -1 -1</clus>
<clus scale="  133.067">  2  5  1 -1</clus>
<clus scale="  149.727">  7  9 -1 -1</clus>
<clus scale="  692.404">  1  5  2 -1</clus>
</clustering>
</event>
<event>
 9    1  0.3312826E-006  0.1999553E+03  0.7546771E-02  0.1180676E+00
          1   -1    0    0  502    0 -0.00000000000E+00  0.00000000000E+00  0.12485746022E+03  0.12485746022E+03  0.00000000000E+00 0. -1.
         21   -1    0    0  501  502  0.00000000000E+00 -0.00000000000E+00 -0.21388411406E+03  0.21388411406E+03  0.00000000000E+00 0.  1.
         23    2    1    2    0    0 -0.31853393309E+02  0.18377567151E+02 -0.97962252353E+02  0.13858676230E+03  0.90869764816E+02 0.  0.
         23    2    1    2    0    0  0.34235529254E+02  0.46758624827E+02  0.54077706550E+02  0.12086920172E+03  0.91249795180E+02 0.  0.
        -11    1    4    4    0    0  0.44516675339E+02 -0.90389536876E+01  0.47233661564E+01  0.45669981989E+02  0.00000000000E+00 0. -1.
         11    1    4    4    0    0 -0.10281146085E+02  0.55797578515E+02  0.49354340394E+02  0.75199219734E+02  0.00000000000E+00 0.  1.
        -11    1    3    3    0    0 -0.37749556119E+02  0.47009677729E+02 -0.36374550551E+02  0.70413398690E+02  0.00000000000E+00 0. -1.
         11    1    3    3    0    0  0.58961628102E+01 -0.28632110577E+02 -0.61587701802E+02  0.68173363605E+02  0.00000000000E+00 0.  1.
          1    1    1    2  501    0 -0.23821359457E+01 -0.65136191978E+02 -0.45142108029E+02  0.79285610261E+02  0.00000000000E+00 0. -1.
<scales pt_clust_5="13000.00000" pt_clust_6="13000.00000" pt_clust_7="13000.00000" pt_clust_8="13000.00000" pt_clust_9="13000.00000"></scales>
<clustering>
<clus scale="   90.870">  7  8 -1 -1</clus>
<clus scale="   91.250">  5  6 -1 -1</clus>
<clus scale="   65.180">  5  9 -1 -1</clus>
<clus scale="   98.029">  1  7  2 -1</clus>
<clus scale="  199.955">  2  5  1 -1</clus>
</clustering>
</event>
<event>
 9    1  0.3312826E-006  0.3468226E+03  0.7546771E-02  0.1109399E+00
          3   -1    0    0  502    0 -0.00000000000E+00  0.00000000000E+00  0.44388926756E+02  0.44388926756E+02  0.00000000000E+00 0. -1.
         21   -1    0    0  501  502  0.00000000000E+00 -0.00000000000E+00 -0.13802480961E+04  0.13802480961E+04  0.00000000000E+00 0. -1.
         23    2    1    2    0    0  0.36651579634E+02 -0.31331067324E+02 -0.11134730662E+03  0.15195669609E+03  0.91474809254E+02 0.  0.
         23    2    1    2    0    0  0.72685347130E+02 -0.10247109902E+03 -0.35835476033E+03  0.38945571812E+03  0.86453087314E+02 0.  0.
        -11    1    4    4    0    0  0.92732418878E+02 -0.86016227978E+02 -0.29234384439E+03  0.31853259855E+03  0.00000000000E+00 0.  1.
         11    1    4    4    0    0 -0.20047071749E+02 -0.16454871039E+02 -0.66010915942E+02  0.70923119574E+02  0.00000000000E+00 0. -1.
        -11    1    3    3    0    0  0.49811150096E+02 -0.56294479030E+02 -0.79699168112E+02  0.10955444510E+03  0.00000000000E+00 0. -1.
         11    1    3    3    0    0 -0.13159570462E+02  0.24963411706E+02 -0.31648138504E+02  0.42402250996E+02  0.00000000000E+00 0.  1.
          3    1    1    2  501    0 -0.10933692676E+03  0.13380216634E+03 -0.86615710241E+03  0.88322460866E+03  0.00000000000E+00 0. -1.
<scales pt_clust_5="13000.00000" pt_clust_6="13000.00000" pt_clust_7="13000.00000" pt_clust_8="13000.00000" pt_clust_9="13000.00000"></scales>
<clustering>
<clus scale="   86.453">  5  6 -1 -1</clus>
<clus scale="   91.475">  7  8 -1 -1</clus>
<clus scale="  103.405">  1  7  2 -1</clus>
<clus scale="  156.009">  5  9 -1 -1</clus>
<clus scale="  346.823">  2  5  1 -1</clus>
</clustering>
</event>
<event>
 9    1  0.3312826E-006  0.2166040E+03  0.7546771E-02  0.1171728E+00
          1   -1    0    0  502    0 -0.00000000000E+00  0.00000000000E+00  0.10425950078E+03  0.10425950078E+03  0.00000000000E+00 0. -1.
         21   -1    0    0  501  502  0.00000000000E+00 -0.00000000000E+00 -0.25832309818E+03  0.25832309818E+03  0.00000000000E+00 0. -1.
         23    2    1    2    0    0 -0.14490061143E+02 -0.96511342341E+01  0.38887693778E+01  0.94503797588E+02  0.92804843448E+02 0.  0.
         23    2    1    2    0    0 -0.73175233303E+02  0.12235165377E+02 -0.47209374480E+02  0.12681347862E+03  0.91370779140E+02 0.  0.
        -13    1    3    3    0    0  0.34718978504E+02  0.14272648592E+01 -0.18444470618E+02  0.39340094684E+02  0.00000000000E+00 0.  1.
         13    1    3    3    0    0 -0.49209039647E+02 -0.11078399093E+02  0.22333239995E+02  0.55163702905E+02  0.00000000000E+00 0. -1.
        -13    1    4    4    0    0  0.85098933549E+01  0.32000531160E+02 -0.79514874202E+01  0.34054051618E+02  0.00000000000E+00 0.  1.
         13    1    4    4    0    0 -0.81685126658E+02 -0.19765365783E+02 -0.39257887060E+02  0.92759427004E+02  0.00000000000E+00 0. -1.
          1    1    1    2  501    0  0.87665294446E+02 -0.25840311429E+01 -0.11074299230E+03  0.14126532275E+03  0.00000000000E+00 0. -1.
<scales pt_clust_5="13000.00000" pt_clust_6="13000.00000" pt_clust_7="13000.00000" pt_clust_8="13000.00000" pt_clust_9="13000.00000"></scales>
<clustering>
<clus scale="   91.371">  7  8 -1 -1</clus>
<clus scale="   87.703">  7  9 -1 -1</clus>
<clus scale="   92.805">  5  6 -1 -1</clus>
<clus scale="   94.424">  1  5  2 -1</clus>
<clus scale="  216.604">  2  5  1 -1</clus>
</clustering>
</event>
<event>
 9    1  0.3312826E-006  0.2644467E+03  0.7546771E-02  0.1117099E+00
          1   -1    0    0  502    0 -0.00000000000E+00  0.00000000000E+00  0.12223027618E+04  0.12223027618E+04  0.00000000000E+00 0. -1.
         21   -1    0    0  501  502  0.00000000000E+00 -0.00000000000E+00 -0.45192068886E+02  0.45192068886E+02  0.00000000000E+00 0. -1.
         23    2    1    2    0    0 -0.15614964996E+03  0.64742520251E+02  0.65030738003E+03  0.67804273398E+03  0.90928287445E+02 0.  0.
         23    2    1    2    0    0  0.95448180312E+01 -0.57641658254E+02  0.29793080140E+03  0.31755868837E+03  0.93097227790E+02 0.  0.
        -11    1    4    4    0    0 -0.19913900406E+02 -0.67557984137E+02  0.25505690331E+03  0.26460285066E+03  0.00000000000E+00 0. -1.
         11    1    4    4    0    0  0.29458718437E+02  0.99163258822E+01  0.42873898090E+02  0.52955837718E+02  0.00000000000E+00 0.  1.
        -11    1    3    3    0    0 -0.14498858024E+03  0.39649597694E+02  0.61612084670E+03  0.63419135656E+03  0.00000000000E+00 0. -1.
         11    1    3    3    0    0 -0.11161069720E+02  0.25092922558E+02  0.34186533337E+02  0.43851377417E+02  0.00000000000E+00 0.  1.
          1    1    1    2  501    0  0.14660483193E+03 -0.71008619970E+01  0.22887251149E+03  0.27189340835E+03  0.00000000000E+00 0. -1.
<scales pt_clust_5="13000.00000" pt_clust_6="13000.00000" pt_clust_7="13000.00000" pt_clust_8="13000.00000" pt_clust_9="13000.00000"></scales>
<clustering>
<clus scale="   90.928">  7  8 -1 -1</clus>
<clus scale="   93.097">  5  6 -1 -1</clus>
<clus scale="  146.777">  5  9 -1 -1</clus>
<clus scale="  191.943">  1  7  2 -1</clus>
<clus scale="  264.447">  2  5  1 -1</clus>
</clustering>
</event>
<event>
 9    1  0.3312826E-006  0.7049087E+03  0.7546771E-02  0.1034907E+00
         21   -1    0    0  501  502  0.00000000000E+00  0.00000000000E+00  0.52822097249E+03  0.52822097249E+03  0.00000000000E+00 0. -1.
          1   -1    0    0  502    0 -0.00000000000E+00 -0.00000000000E+00 -0.45583761760E+03  0.45583761760E+03  0.00000000000E+00 0. -1.
         23    2    1    2    0    0  0.16855814255E+02 -0.12370733103E+02 -0.20558417867E+03  0.22632362411E+03  0.92305876306E+02 0.  0.
         23    2    1    2    0    0  0.88833831654E+02 -0.15742540209E+03 -0.17175453794E+03  0.26554499212E+03  0.91325323246E+02 0.  0.
        -11    1    3    3    0    0  0.49865205127E+01 -0.52166743769E+02 -0.12827230326E+03  0.13856413074E+03  0.00000000000E+00 0.  1.
         11    1    3    3    0    0  0.11869293742E+02  0.39796010666E+02 -0.77311875405E+02  0.87759493375E+02  0.00000000000E+00 0. -1.
        -11    1    4    4    0    0  0.38160657389E+02 -0.23928990012E+01 -0.44509208004E+02  0.58677349421E+02  0.00000000000E+00 0.  1.
         11    1    4    4    0    0  0.50673174265E+02 -0.15503250309E+03 -0.12724532994E+03  0.20686764270E+03  0.00000000000E+00 0. -1.
          1    1    1    2  501    0 -0.10568964591E+03  0.16979613519E+03  0.44972207149E+03  0.49218997386E+03  0.00000000000E+00 0. -1.
<scales pt_clust_5="13000.00000" pt_clust_6="13000.00000" pt_clust_7="13000.00000" pt_clust_8="13000.00000" pt_clust_9="13000.00000"></scales>
<clustering>
<clus scale="   91.325">  7  8 -1 -1</clus>
<clus scale="   92.306">  5  6 -1 -1</clus>
<clus scale="   94.644">  2  5  1 -1</clus>
<clus scale="  198.286">  7  9 -1 -1</clus>
<clus scale="  704.909">  1  5  2 -1</clus>
</clustering>
</event>
<event>
 9    1  0.3312826E-006  0.2789184E+03  0.7546771E-02  0.1120343E+00
         -1   -1    0    0    0  501 -0.00000000000E+00  0.00000000000E+00  0.59537493824E+03  0.59537493824E+03  0.00000000000E+00 0.  1.
         21   -1    0    0  501  502  0.00000000000E+00 -0.00000000000E+00 -0.21846606112E+03  0.21846606112E+03  0.00000000000E+00 0.  1.
         23    2    1    2    0    0  0.65758900359E+02  0.95887191863E+02  0.49013761436E+03  0.51281568283E+03  0.96054448123E+02 0.  0.
         23    2    1    2    0    0  0.27157169877E+02 -0.10540026803E+03  0.14506505608E+02  0.14278440212E+03  0.91270030180E+02 0.  0.
        -13    1    3    3    0    0 -0.20970656639E+02  0.92561075200E+01  0.38216110071E+02  0.44563606623E+02  0.00000000000E+00 0. -1.
         13    1    3    3    0    0  0.86729556998E+02  0.86631084343E+02  0.45192150429E+03  0.46825207621E+03  0.00000000000E+00 0.  1.
        -13    1    4    4    0    0  0.26140436634E+01 -0.10106653974E+03 -0.17097310677E+02  0.10253583135E+03  0.00000000000E+00 0.  1.
         13    1    4    4    0    0  0.24543126214E+02 -0.43337282882E+01  0.31603816286E+02  0.40248570770E+02  0.00000000000E+00 0. -1.
         -1    1    1    2    0  502 -0.92916070236E+02  0.95130761627E+01 -0.12773524285E+03  0.15824091441E+03  0.00000000000E+00 0.  1.
<scales pt_clust_5="13000.00000" pt_clust_6="13000.00000" pt_clust_7="13000.00000" pt_clust_8="13000.00000" pt_clust_9="13000.00000"></scales>
<clustering>
<clus scale="   91.270">  7  8 -1 -1</clus>
<clus scale="   93.402">  7  9 -1 -1</clus>
<clus scale="   96.054">  5  6 -1 -1</clus>
<clus scale="  150.815">  1  5  2 -1</clus>
<clus scale="  278.918">  2  5  1 -1</clus>
</clustering>
</event>
<event>
 9    1  0.3312826E-006  0.5231837E+03  0.7546771E-02  0.1067614E+00
         21   -1    0    0  501  502  0.00000000000E+00  0.00000000000E+00  0.18116375681E+04  0.18116375681E+04  0.00000000000E+00 0.  1.
          2   -1    0    0  502    0 -0.00000000000E+00 -0.00000000000E+00 -0.18380302367E+03  0.18380302367E+03  0.00000000000E+00 0. -1.
         23    2    1    2    0    0 -0.19591199821E+02 -0.75485340382E+01 -0.13145145248E+03  0.16000918516E+03  0.88784342645E+02 0.  0.
         23    2    1    2    0    0 -0.91198891139E+02  0.21904328620E+03  0.60026695102E+03  0.65207616698E+03  0.92659139192E+02 0.  0.
        -11    1    3    3    0    0 -0.12193163821E+01 -0.47338626693E+02 -0.70963591336E+02  0.85312739991E+02  0.00000000000E+00 0. -1.
         11    1    3    3    0    0 -0.18371883439E+02  0.39790092654E+02 -0.60487861146E+02  0.74696445167E+02  0.00000000000E+00 0.  1.
        -13    1    4    4    0    0 -0.87376417897E+02  0.14069635978E+03  0.48625695781E+03  0.51368855650E+03  0.00000000000E+00 0.  1.
         13    1    4    4    0    0 -0.38224732416E+01  0.78346926424E+02  0.11400999321E+03  0.13838761048E+03  0.00000000000E+00 0. -1.
          2    1    1    2  501    0  0.11079009096E+03 -0.21149475216E+03  0.11590190459E+04  0.11833552396E+04  0.00000000000E+00 0. -1.
<scales pt_clust_5="13000.00000" pt_clust_6="13000.00000" pt_clust_7="13000.00000" pt_clust_8="13000.00000" pt_clust_9="13000.00000"></scales>
<clustering>
<clus scale="   88.784">  5  6 -1 -1</clus>
<clus scale="   91.233">  2  5  1 -1</clus>
<clus scale="   92.659">  7  8 -1 -1</clus>
<clus scale="  238.081">  7  9 -1 -1</clus>
<clus scale="  523.184">  1  5  2 -1</clus>
</clustering>
</event>
<event>
 9    1  0.3312826E-006  0.1537582E+03  0.7546771E-02  0.1218598E+00
         21   -1    0    0  501  502  0.00000000000E+00  0.00000000000E+00  0.85550175038E+02  0.85550175038E+02  0.00000000000E+00 0. -1.
         -3   -1    0    0    0  501 -0.00000000000E+00 -0.00000000000E+00 -0.19123043429E+03  0.19123043429E+03  0.00000000000E+00 0.  1.
         23    2    1    2    0    0 -0.37554876856E+02 -0.83489309993E+01 -0.73352364732E+02  0.11966069368E+03  0.86359937336E+02 0.  0.
         23    2    1    2    0    0  0.56160999008E+02 -0.18790089408E+02 -0.44428089866E+02  0.12206098044E+03  0.97045878364E+02 0.  0.
        -11    1    4    4    0    0  0.68294549755E+02 -0.47042110923E+02 -0.33216712522E+02  0.89333396427E+02  0.00000000000E+00 0. -1.
         11    1    4    4    0    0 -0.12133550747E+02  0.28252021515E+02 -0.11211377343E+02  0.32727584014E+02  0.00000000000E+00 0.  1.
        -13    1    3    3    0    0  0.89287607058E+01  0.24989392683E+02 -0.52409104509E+02  0.58744418882E+02  0.00000000000E+00 0.  1.
         13    1    3    3    0    0 -0.46483637562E+02 -0.33338323683E+02 -0.20943260223E+02  0.60916274802E+02  0.00000000000E+00 0. -1.
         -3    1    1    2    0  502 -0.18606122152E+02  0.27139020407E+02  0.12100195346E+02  0.35058935204E+02  0.00000000000E+00 0.  1.
<scales pt_clust_5="13000.00000" pt_clust_6="13000.00000" pt_clust_7="13000.00000" pt_clust_8="13000.00000" pt_clust_9="13000.00000"></scales>
<clustering>
<clus scale="   86.360">  7  8 -1 -1</clus>
<clus scale="   94.542">  2  7  1 -1</clus>
<clus scale="   97.046">  5  6 -1 -1</clus>
<clus scale="   34.913">  5  9 -1 -1</clus>
<clus scale="  153.758">  1  5  2 -1</clus>
</clustering>
</event>
<event>
 9    1  0.3312826E-006  0.1889947E+03  0.7546771E-02  0.1171712E+00
          1   -1    0    0  502    0 -0.00000000000E+00  0.00000000000E+00  0.33777256707E+03  0.33777256707E+03  0.00000000000E+00 0. -1.
         21   -1    0    0  501  502  0.00000000000E+00 -0.00000000000E+00 -0.13009002275E+03  0.13009002275E+03  0.00000000000E+00 0.  1.
         23    2    1    2    0    0 -0.30911779948E+02  0.10091564809E+03  0.23721947850E+03  0.27657375551E+03  0.95291421886E+02 0.  0.
         23    2    1    2    0    0  0.99778953471E+01 -0.90457135512E+02  0.23682322544E+02  0.13315195019E+03  0.94268434151E+02 0.  0.
        -13    1    3    3    0    0 -0.10579168294E+02 -0.18245594996E+02  0.29989909944E+02  0.36663540977E+02  0.00000000000E+00 0.  1.
         13    1    3    3    0    0 -0.20332611655E+02  0.11916124309E+03  0.20722956856E+03  0.23991021453E+03  0.00000000000E+00 0. -1.
        -13    1    4    4    0    0 -0.13175005077E+02 -0.78551049249E+02 -0.20161889994E+02  0.82160513053E+02  0.00000000000E+00 0.  1.
         13    1    4    4    0    0  0.23152900424E+02 -0.11906086263E+02  0.43844212538E+02  0.50991437136E+02  0.00000000000E+00 0. -1.
          1    1    1    2  501    0  0.20933884601E+02 -0.10458512582E+02 -0.53219256718E+02  0.58136884123E+02  0.00000000000E+00 0. -1.
<scales pt_clust_5="13000.00000" pt_clust_6="13000.00000" pt_clust_7="13000.00000" pt_clust_8="13000.00000" pt_clust_9="13000.00000"></scales>
<clustering>
<clus scale="   94.268">  7  8 -1 -1</clus>
<clus scale="   23.401">  7  9 -1 -1</clus>
<clus scale="   95.291">  5  6 -1 -1</clus>
<clus scale="  142.197">  1  5  2 -1</clus>
<clus scale="  188.995">  2  5  1 -1</clus>
</clustering>
</event>
<event>
 9    1  0.3312826E-006  0.2118777E+03  0.7546771E-02  0.1172314E+00
         21   -1    0    0  501  502  0.00000000000E+00  0.00000000000E+00  0.60817461180E+02  0.60817461180E+02  0.00000000000E+00 0. -1.
          1   -1    0    0  502    0 -0.00000000000E+00 -0.00000000000E+00 -0.44115016921E+03  0.44115016921E+03  0.00000000000E+00 0. -1.
         23    2    1    2    0    0  0.39418275009E+02  0.90819173256E+01 -0.55021097324E+02  0.11374113831E+03  0.90958472761E+02 0.  0.
         23    2    1    2    0    0 -0.93810191216E+01  0.38397298596E+02 -0.31801427989E+03  0.33157171538E+03  0.85113830621E+02 0.  0.
        -13    1    3    3    0    0  0.51703431596E+02 -0.29133546218E+02 -0.34743972089E+02  0.68768829789E+02  0.00000000000E+00 0. -1.
         13    1    3    3    0    0 -0.12285156587E+02  0.38215463543E+02 -0.20277125235E+02  0.44972308524E+02  0.00000000000E+00 0.  1.
        -13    1    4    4    0    0  0.30287674146E+02  0.43815523568E+02 -0.19890955776E+03  0.20591783672E+03  0.00000000000E+00 0. -1.
         13    1    4    4    0    0 -0.39668693268E+02 -0.54182249724E+01 -0.11910472213E+03  0.12565387866E+03  0.00000000000E+00 0.  1.
          1    1    1    2  501    0 -0.30037255887E+02 -0.47479215921E+02 -0.72973308116E+01  0.56654776698E+02  0.00000000000E+00 0. -1.
<scales pt_clust_5="13000.00000" pt_clust_6="13000.00000" pt_clust_7="13000.00000" pt_clust_8="13000.00000" pt_clust_9="13000.00000"></scales>
<clustering>
<clus scale="   85.114">  7  8 -1 -1</clus>
<clus scale="   56.183">  7  9 -1 -1</clus>
<clus scale="   90.958">  5  6 -1 -1</clus>
<clus scale="   99.548">  2  5  1 -1</clus>
<clus scale="  211.878">  1  5  2 -1</clus>
</clustering>
</event>
<event>
 9    1  0.3312826E-006  0.2501182E+03  0.7546771E-02  0.1149483E+00
         21   -1    0    0  501  502  0.00000000000E+00  0.00000000000E+00  0.17455960073E+03  0.17455960073E+03  0.00000000000E+00 0. -1.
          1   -1    0    0  502    0 -0.00000000000E+00 -0.00000000000E+00 -0.18059718059E+03  0.18059718059E+03  0.00000000000E+00 0. -1.
         23    2    1    2    0    0  0.50223592797E+02  0.18026288061E+02  0.15818051043E+02  0.10408546162E+03  0.87955763009E+02 0.  0.
         23    2    1    2    0    0 -0.11962894777E+03 -0.51232493886E+02 -0.46384731277E+02  0.17031593494E+03  0.99599803331E+02 0.  0.
        -13    1    4    4    0    0 -0.57661923448E+02 -0.39544019140E+02 -0.73704797984E+02  0.10159244121E+03  0.00000000000E+00 0.  1.
         13    1    4    4    0    0 -0.61967024318E+02 -0.11688474746E+02  0.27320066706E+02  0.68723493724E+02  0.00000000000E+00 0. -1.
        -13    1    3    3    0    0  0.45651756846E+02  0.51641756672E+02  0.95337485676E+01  0.69583376586E+02  0.00000000000E+00 0.  1.
         13    1    3    3    0    0  0.45718359513E+01 -0.33615468611E+02  0.62843024752E+01  0.34502085031E+02  0.00000000000E+00 0. -1.
          1    1    1    2  501    0  0.69405354969E+02  0.33206205825E+02  0.24529100382E+02  0.80755384769E+02  0.00000000000E+00 0. -1.
<scales pt_clust_5="13000.00000" pt_clust_6="13000.00000" pt_clust_7="13000.00000" pt_clust_8="13000.00000" pt_clust_9="13000.00000"></scales>
<clustering>
<clus scale="   87.956">  7  8 -1 -1</clus>
<clus scale="   99.600">  5  6 -1 -1</clus>
<clus scale="   76.940">  5  9 -1 -1</clus>
<clus scale="  102.877">  2  7  1 -1</clus>
<clus scale="  250.118">  1  5  2 -1</clus>
</clustering>
</event>
<event>
 9    1  0.3312826E-006  0.1792085E+03  0.7546771E-02  0.1195904E+00
          3   -1    0    0  502    0 -0.00000000000E+00  0.00000000000E+00  0.19039428861E+03  0.19039428861E+03  0.00000000000E+00 0. -1.
         21   -1    0    0  501  502  0.00000000000E+00 -0.00000000000E+00 -0.16812992477E+03  0.16812992477E+03  0.00000000000E+00 0.  1.
         23    2    1    2    0    0 -0.72355042297E+01  0.34098367573E+02  0.11999253753E+03  0.15440051709E+03  0.90698728887E+02 0.  0.
         23    2    1    2    0    0  0.59464281710E+02 -0.10853448330E+02 -0.28216542645E+02  0.11412348341E+03  0.92596965649E+02 0.  0.
        -13    1    4    4    0    0  0.48081498283E+02 -0.49860450218E+02 -0.11638120454E+02  0.70237744986E+02  0.00000000000E+00 0.  1.
         13    1    4    4    0    0  0.11382783427E+02  0.39007001888E+02 -0.16578422191E+02  0.43885738426E+02  0.00000000000E+00 0. -1.
        -13    1    3    3    0    0  0.41400749369E+02  0.21812675982E+02  0.52887500322E+02  0.70618004589E+02  0.00000000000E+00 0.  1.
         13    1    3    3    0    0 -0.48636253599E+02  0.12285691591E+02  0.67105037211E+02  0.83782512501E+02  0.00000000000E+00 0. -1.
          3    1    1    2  501    0 -0.52228777480E+02 -0.23244919243E+02 -0.69511631051E+02  0.90000212883E+02  0.00000000000E+00 0. -1.
<scales pt_clust_5="13000.00000" pt_clust_6="13000.00000" pt_clust_7="13000.00000" pt_clust_8="13000.00000" pt_clust_9="13000.00000"></scales>
<clustering>
<clus scale="   90.699">  7  8 -1 -1</clus>
<clus scale="   92.597">  5  6 -1 -1</clus>
<clus scale="   57.168">  5  9 -1 -1</clus>
<clus scale="   97.166">  1  7  2 -1</clus>
<clus scale="  179.209">  2  5  1 -1</clus>
</clustering>
</event>
<event>
 9    1  0.3312826E-006  0.1476003E+03  0.7546771E-02  0.1212227E+00
         21   -1    0    0  501  502  0.00000000000E+00  0.00000000000E+00  0.35962353267E+03  0.35962353267E+03  0.00000000000E+00 0. -1.
         -4   -1    0    0    0  501 -0.00000000000E+00 -0.00000000000E+00 -0.53542257796E+02  0.53542257796E+02  0.00000000000E+00 0.  1.
         23    2    1    2    0    0  0.59030730496E+02 -0.56560189421E+02  0.18736844628E+03  0.22374936556E+03  0.90956922534E+02 0.  0.
         23    2    1    2    0    0 -0.50975168795E+02  0.22846226217E+02  0.10588990204E+03  0.15245765281E+03  0.94394102898E+02 0.  0.
        -11    1    3    3    0    0  0.58408131750E+02 -0.70424731117E+01  0.48272414694E+02  0.76100803560E+02  0.00000000000E+00 0.  1.
         11    1    3    3    0    0  0.62259874633E+00 -0.49517716310E+02  0.13909603159E+03  0.14764856200E+03  0.00000000000E+00 0. -1.
        -11    1    4    4    0    0 -0.60318563562E+02  0.51643344328E+02  0.77173007932E+02  0.11072956821E+03  0.00000000000E+00 0. -1.
         11    1    4    4    0    0  0.93433947673E+01 -0.28797118111E+02  0.28716894105E+02  0.41728084599E+02  0.00000000000E+00 0.  1.
         -4    1    1    2    0  502 -0.80555617011E+01  0.33713963204E+02  0.12822926559E+02  0.36958772095E+02  0.00000000000E+00 0.  1.
<scales pt_clust_5="13000.00000" pt_clust_6="13000.00000" pt_clust_7="13000.00000" pt_clust_8="13000.00000" pt_clust_9="13000.00000"></scales>
<clustering>
<clus scale="   90.957">  5  6 -1 -1</clus>
<clus scale="   94.394">  7  8 -1 -1</clus>
<clus scale="   34.663">  7  9 -1 -1</clus>
<clus scale="  122.298">  2  5  1 -1</clus>
<clus scale="  147.600">  1  5  2 -1</clus>
</clustering>
</event>
<event>
 9    1  0.3312826E-006  0.1611091E+03  0.7546771E-02  0.1207454E+00
         21   -1    0    0  501  502  0.00000000000E+00  0.00000000000E+00  0.25349768946E+03  0.25349768946E+03  0.00000000000E+00 0.  1.
          1   -1    0    0  502    0 -0.00000000000E+00 -0.00000000000E+00 -0.69742965972E+02  0.69742965972E+02  0.00000000000E+00 0. -1.
         23    2    1    2    0    0  0.25635523450E+02 -0.39562268375E+02  0.60920286323E+02  0.12064635723E+03  0.92854235690E+02 0.  0.
         23    2    1    2    0    0 -0.24230134282E+02  0.69934371385E+02  0.12588804792E+03  0.17203674106E+03  0.90944620281E+02 0.  0.
        -11    1    3    3    0    0  0.53762326305E+02 -0.50685182960E+02  0.43559500509E+02  0.85771822798E+02  0.00000000000E+00 0.  1.
         11    1    3    3    0    0 -0.28126802855E+02  0.11122914586E+02  0.17360785814E+02  0.34874534431E+02  0.00000000000E+00 0. -1.
        -13    1    4    4    0    0 -0.27972605784E+02  0.49094077410E+02  0.14066934507E+02  0.58228633485E+02  0.00000000000E+00 0. -1.
         13    1    4    4    0    0  0.37424715027E+01  0.20840293976E+02  0.11182111341E+03  0.11380810758E+03  0.00000000000E+00 0.  1.
          1    1    1    2  501    0 -0.14053891687E+01 -0.30372103011E+02 -0.30536107492E+01  0.30557557144E+02  0.00000000000E+00 0. -1.
<scales pt_clust_5="13000.00000" pt_clust_6="13000.00000" pt_clust_7="13000.00000" pt_clust_8="13000.00000" pt_clust_9="13000.00000"></scales>
<clustering>
<clus scale="   90.945">  7  8 -1 -1</clus>
<clus scale="   30.405">  7  9 -1 -1</clus>
<clus scale="   92.854">  5  6 -1 -1</clus>
<clus scale="  104.136">  2  5  1 -1</clus>
<clus scale="  161.109">  1  5  2 -1</clus>
</clustering>
</event>
<event>
 9    1  0.3312826E-006  0.2540106E+03  0.7546771E-02  0.1121045E+00
          1   -1    0    0  502    0 -0.00000000000E+00  0.00000000000E+00  0.12502272525E+04  0.12502272525E+04  0.00000000000E+00 0. -1.
         21   -1    0    0  501  502  0.00000000000E+00 -0.00000000000E+00 -0.49188354999E+02  0.49188354999E+02  0.00000000000E+00 0. -1.
         23    2    1    2    0    0 -0.13809402106E+02 -0.16740393417E+03  0.80770082793E+03  0.83118890829E+03  0.10138834774E+03 0.  0.
         23    2    1    2    0    0  0.60777812450E+02  0.16716933797E+03  0.26745580387E+03  0.33386736227E+03  0.91078419619E+02 0.  0.
        -11    1    4    4    0    0  0.46341141465E+02  0.40898345793E+02  0.14390724204E+03  0.15661886985E+03  0.00000000000E+00 0. -1.
         11    1    4    4    0    0  0.14436670984E+02  0.12627099218E+03  0.12354856183E+03  0.17724849242E+03  0.00000000000E+00 0.  1.
        -11    1    3    3    0    0  0.26368760384E+02 -0.13675034343E+03  0.67439949858E+03  0.68862954601E+03  0.00000000000E+00 0. -1.
         11    1    3    3    0    0 -0.40178162491E+02 -0.30653590735E+02  0.13330132935E+03  0.14255936227E+03  0.00000000000E+00 0.  1.
          1    1    1    2  501    0 -0.46968410343E+02  0.23459619547E+00  0.12588226566E+03  0.13435933691E+03  0.00000000000E+00 0. -1.
<scales pt_clust_5="13000.00000" pt_clust_6="13000.00000" pt_clust_7="13000.00000" pt_clust_8="13000.00000" pt_clust_9="13000.00000"></scales>
<clustering>
<clus scale="   91.078">  5  6 -1 -1</clus>
<clus scale="   46.969">  5  9 -1 -1</clus>
<clus scale="  101.388">  7  8 -1 -1</clus>
<clus scale="  196.200">  1  7  2 -1</clus>
<clus scale="  254.011">  2  5  1 -1</clus>
</clustering>
</event>
<event>
 9    1  0.3312826E-006  0.7690301E+03  0.7546771E-02  0.9994221E-01
         21   -1    0    0  501  502  0.00000000000E+00  0.00000000000E+00  0.22921333627E+03  0.22921333627E+03  0.00000000000E+00 0. -1.
          1   -1    0    0  502    0 -0.00000000000E+00 -0.00000000000E+00 -0.11574000626E+04  0.11574000626E+04  0.00000000000E+00 0. -1.
         23    2    1    2    0    0  0.43836081183E+02  0.19027868744E+03 -0.39892077906E+03  0.45305586535E+03  0.89410560112E+02 0.  0.
         23    2    1    2    0    0 -0.17439295593E+03  0.17706562130E+03 -0.46895689232E+03  0.53906530191E+03  0.94369992827E+02 0.  0.
        -11    1    3    3    0    0  0.33895865275E+02  0.51151323356E+02 -0.56887933676E+02  0.83675710703E+02  0.00000000000E+00 0.  1.
         11    1    3    3    0    0  0.99402159084E+01  0.13912736409E+03 -0.34203284538E+03  0.36938015465E+03  0.00000000000E+00 0. -1.
        -13    1    4    4    0    0 -0.65535926876E+02  0.13317308042E+03 -0.25711835489E+03  0.29688360595E+03  0.00000000000E+00 0.  1.
         13    1    4    4    0    0 -0.10885702905E+03  0.43892540884E+02 -0.21183853743E+03  0.24218169596E+03  0.00000000000E+00 0. -1.
          1    1    1    2  501    0  0.13055687474E+03 -0.36734430874E+03 -0.60309054983E+02  0.39449223164E+03  0.00000000000E+00 0. -1.
<scales pt_clust_5="13000.00000" pt_clust_6="13000.00000" pt_clust_7="13000.00000" pt_clust_8="13000.00000" pt_clust_9="13000.00000"></scales>
<clustering>
<clus scale="   89.411">  5  6 -1 -1</clus>
<clus scale="   94.370">  7  8 -1 -1</clus>
<clus scale="  214.760">  2  5  1 -1</clus>
<clus scale="  340.247">  7  9 -1 -1</clus>
<clus scale="  769.030">  1  5  2 -1</clus>
</clustering>
</event>
<event>
 9    1  0.3312826E-006  0.1234829E+03  0.7546771E-02  0.1250434E+00
          3   -1    0    0  502    0 -0.00000000000E+00  0.00000000000E+00  0.19050942225E+03  0.19050942225E+03  0.00000000000E+00 0. -1.
         21   -1    0    0  501  502  0.00000000000E+00 -0.00000000000E+00 -0.62682346741E+02  0.62682346741E+02  0.00000000000E+00 0. -1.
         23    2    1    2    0    0  0.23522813349E+02  0.81395244286E+00  0.57744705761E+02  0.11120740357E+03  0.92079586770E+02 0.  0.
         23    2    1    2    0    0 -0.19537068466E+02 -0.26901929602E+02  0.55374897241E+02  0.11177214170E+03  0.91220729853E+02 0.  0.
        -11    1    3    3    0    0 -0.20004514622E+01  0.44187006142E+02  0.32614285811E+02  0.54956209447E+02  0.00000000000E+00 0.  1.
         11    1    3    3    0    0  0.25523264811E+02 -0.43373053699E+02  0.25130419950E+02  0.56251194127E+02  0.00000000000E+00 0. -1.
        -13    1    4    4    0    0 -0.41509766021E+02  0.95162372991E+01  0.81787413652E+00  0.42594464025E+02  0.00000000000E+00 0.  1.
         13    1    4    4    0    0  0.21972697555E+02 -0.36418166901E+02  0.54557023104E+02  0.69177677673E+02  0.00000000000E+00 0. -1.
          3    1    1    2  501    0 -0.39857448823E+01  0.26087977159E+02  0.14707472510E+02  0.30212223721E+02  0.00000000000E+00 0. -1.
<scales pt_clust_5="13000.00000" pt_clust_6="13000.00000" pt_clust_7="13000.00000" pt_clust_8="13000.00000" pt_clust_9="13000.00000"></scales>
<clustering>
<clus scale="   91.221">  7  8 -1 -1</clus>
<clus scale="   26.391">  7  9 -1 -1</clus>
<clus scale="   92.080">  5  6 -1 -1</clus>
<clus scale="   95.040">  1  5  2 -1</clus>
<clus scale="  123.483">  2  5  1 -1</clus>
</clustering>
</event>
<event>
 9    1  0.3312826E-006  0.1629502E+03  0.7546771E-02  0.1206945E+00
         21   -1    0    0  501  502  0.00000000000E+00  0.00000000000E+00  0.15743449816E+03  0.15743449816E+03  0.00000000000E+00 0. -1.
         -1   -1    0    0    0  501 -0.00000000000E+00 -0.00000000000E+00 -0.11507481439E+03  0.11507481439E+03  0.00000000000E+00 0.  1.
         23    2    1    2    0    0 -0.19040273918E+02 -0.42988840343E+02 -0.77057050597E+01  0.10204139534E+03  0.90235780311E+02 0.  0.
         23    2    1    2    0    0  0.42125848619E+02  0.58983741231E+02  0.67080164481E+02  0.13763069436E+03  0.95858180205E+02 0.  0.
        -13    1    3    3    0    0 -0.36920247623E+02 -0.29364848941E+02 -0.40573211737E+02  0.62222058376E+02  0.00000000000E+00 0.  1.
         13    1    3    3    0    0  0.17879973704E+02 -0.13623991401E+02  0.32867506677E+02  0.39819336968E+02  0.00000000000E+00 0. -1.
        -13    1    4    4    0    0  0.63949250082E+02  0.26613522495E+02  0.70005982113E+02  0.98481590652E+02  0.00000000000E+00 0. -1.
         13    1    4    4    0    0 -0.21823401464E+02  0.32370218736E+02 -0.29258176322E+01  0.39149103710E+02  0.00000000000E+00 0.  1.
         -1    1    1    2    0  502 -0.23085574701E+02 -0.15994900888E+02 -0.17014775657E+02  0.32837222847E+02  0.00000000000E+00 0.  1.
<scales pt_clust_5="13000.00000" pt_clust_6="13000.00000" pt_clust_7="13000.00000" pt_clust_8="13000.00000" pt_clust_9="13000.00000"></scales>
<clustering>
<clus scale="   90.236">  5  6 -1 -1</clus>
<clus scale="   95.858">  7  8 -1 -1</clus>
<clus scale="   28.085">  7  9 -1 -1</clus>
<clus scale="  101.750">  2  5  1 -1</clus>
<clus scale="  162.950">  1  5  2 -1</clus>
</clustering>
</event>
<event>
 9    1  0.3312826E-006  0.1460300E+03  0.7546771E-02  0.1220550E+00
         21   -1    0    0  501  502  0.00000000000E+00  0.00000000000E+00  0.39810623775E+02  0.39810623775E+02  0.00000000000E+00 0. -1.
         -1   -1    0    0    0  501 -0.00000000000E+00 -0.00000000000E+00 -0.52736146321E+03  0.52736146321E+03  0.00000000000E+00 0.  1.
         23    2    1    2    0    0 -0.54482731103E+02  0.60991454919E+01 -0.75686368112E+02  0.13018569714E+03  0.90632896107E+02 0.  0.
         23    2    1    2    0    0  0.34187094493E+02  0.24527164043E+02 -0.22730892667E+03  0.24880925850E+03  0.92012823911E+02 0.  0.
        -11    1    4    4    0    0 -0.31719923367E+02  0.10682871079E+02 -0.85626583250E+02  0.91935787548E+02  0.00000000000E+00 0.  1.
         11    1    4    4    0    0  0.65907017860E+02  0.13844292963E+02 -0.14168234342E+03  0.15687347095E+03  0.00000000000E+00 0. -1.
        -13    1    3    3    0    0  0.20413358860E+02 -0.13168605557E+02 -0.37765738803E+01  0.24584139247E+02  0.00000000000E+00 0. -1.
         13    1    3    3    0    0 -0.74896089963E+02  0.19267751049E+02 -0.71909794231E+02  0.10560155789E+03  0.00000000000E+00 0.  1.
         -1    1    1    2    0  502  0.20295636610E+02 -0.30626309535E+02 -0.18455554466E+03  0.18817713135E+03  0.00000000000E+00 0.  1.
<scales pt_clust_5="13000.00000" pt_clust_6="13000.00000" pt_clust_7="13000.00000" pt_clust_8="13000.00000" pt_clust_9="13000.00000"></scales>
<clustering>
<clus scale="   90.633">  7  8 -1 -1</clus>
<clus scale="   92.013">  5  6 -1 -1</clus>
<clus scale="   36.741">  5  9 -1 -1</clus>
<clus scale="  105.924">  2  7  1 -1</clus>
<clus scale="  146.030">  1  5  2 -1</clus>
</clustering>
</event>
<event>
 9    1  0.3312826E-006  0.7324338E+03  0.7546771E-02  0.1028088E+00
         21   -1    0    0  501  502  0.00000000000E+00  0.00000000000E+00  0.14125764440E+03  0.14125764440E+03  0.00000000000E+00 0.  1.
         -1   -1    0    0    0  501 -0.00000000000E+00 -0.00000000000E+00 -0.13366373056E+04  0.13366373056E+04  0.00000000000E+00 0.  1.
         23    2    1    2    0    0 -0.45060627805E+02  0.92194695122E+01 -0.32148889948E+03  0.33765621975E+03  0.92418350189E+02 0.  0.
         23    2    1    2    0    0 -0.32598494797E+03  0.32587869712E+02 -0.54005475856E+03  0.63937033442E+03  0.99030938271E+02 0.  0.
        -11    1    3    3    0    0 -0.32585097373E+02 -0.36772523885E+02 -0.10419287237E+03  0.11519618803E+03  0.00000000000E+00 0.  1.
         11    1    3    3    0    0 -0.12475530432E+02  0.45991993397E+02 -0.21729602711E+03  0.22246003172E+03  0.00000000000E+00 0. -1.
        -13    1    4    4    0    0 -0.25142335627E+03  0.60419965302E+01 -0.33007332960E+03  0.41496820687E+03  0.00000000000E+00 0. -1.
         13    1    4    4    0    0 -0.74561591702E+02  0.26545873182E+02 -0.20998142896E+03  0.22440212754E+03  0.00000000000E+00 0.  1.
         -1    1    1    2    0  502  0.37104557578E+03 -0.41807339224E+02 -0.33383600313E+03  0.50086839579E+03  0.00000000000E+00 0.  1.
<scales pt_clust_5="13000.00000" pt_clust_6="13000.00000" pt_clust_7="13000.00000" pt_clust_8="13000.00000" pt_clust_9="13000.00000"></scales>
<clustering>
<clus scale="   92.418">  5  6 -1 -1</clus>
<clus scale="   99.031">  7  8 -1 -1</clus>
<clus scale="  103.231">  2  5  1 -1</clus>
<clus scale="  354.413">  7  9 -1 -1</clus>
<clus scale="  732.434">  1  5  2 -1</clus>
</clustering>
</event>
<event>
 9    1  0.3312826E-006  0.2057906E+03  0.7546771E-02  0.1172948E+00
         21   -1    0    0  501  502  0.00000000000E+00  0.00000000000E+00  0.30386954377E+03  0.30386954377E+03  0.00000000000E+00 0.  1.
         -1   -1    0    0    0  501 -0.00000000000E+00 -0.00000000000E+00 -0.25589391591E+03  0.25589391591E+03  0.00000000000E+00 0.  1.
         23    2    1    2    0    0  0.37839124914E+02 -0.29964137626E+02 -0.20642526043E+03  0.23254857923E+03  0.95591864931E+02 0.  0.
         23    2    1    2    0    0  0.36604546830E+02  0.51446112930E+02  0.20704920496E+03  0.23641004886E+03  0.95046002229E+02 0.  0.
        -11    1    4    4    0    0  0.52892490581E+02  0.20663905911E+02  0.18867309370E+03  0.19703336990E+03  0.00000000000E+00 0.  1.
         11    1    4    4    0    0 -0.16287943751E+02  0.30782207019E+02  0.18376111266E+02  0.39376678959E+02  0.00000000000E+00 0. -1.
        -13    1    3    3    0    0  0.52969380121E+02 -0.49087492965E+02 -0.99908947660E+02  0.12327666048E+03  0.00000000000E+00 0.  1.
         13    1    3    3    0    0 -0.15130255206E+02  0.19123355339E+02 -0.10651631277E+03  0.10927191875E+03  0.00000000000E+00 0. -1.
         -1    1    1    2    0  502 -0.74443671744E+02 -0.21481975304E+02  0.47351683323E+02  0.90804831585E+02  0.00000000000E+00 0.  1.
<scales pt_clust_5="13000.00000" pt_clust_6="13000.00000" pt_clust_7="13000.00000" pt_clust_8="13000.00000" pt_clust_9="13000.00000"></scales>
<clustering>
<clus scale="   95.046">  5  6 -1 -1</clus>
<clus scale="   77.481">  5  9 -1 -1</clus>
<clus scale="   95.592">  7  8 -1 -1</clus>
<clus scale="  107.086">  2  7  1 -1</clus>
<clus scale="  205.791">  1  5  2 -1</clus>
</clustering>
</event>
<event>
 9    1  0.3312826E-006  0.1986727E+03  0.7546771E-02  0.1184459E+00
         -1   -1    0    0    0  501 -0.00000000000E+00  0.00000000000E+00  0.24223806305E+02  0.24223806305E+02  0.00000000000E+00 0.  1.
         21   -1    0    0  501  502  0.00000000000E+00 -0.00000000000E+00 -0.90092511671E+03  0.90092511671E+03  0.00000000000E+00 0. -1.
         23    2    1    2    0    0 -0.10656357249E+02  0.11466587194E+02 -0.20381104972E+03  0.22354208078E+03  0.90482469682E+02 0.  0.
         23    2    1    2    0    0  0.97710169541E+01  0.52757709375E+02 -0.20443439404E+03  0.22876813496E+03  0.87536217871E+02 0.  0.
        -13    1    3    3    0    0 -0.16148236909E+01 -0.34084062784E+02 -0.14306752130E+03  0.14708040877E+03  0.00000000000E+00 0. -1.
         13    1    3    3    0    0 -0.90415335577E+01  0.45550649978E+02 -0.60743528422E+02  0.76461672017E+02  0.00000000000E+00 0.  1.
        -13    1    4    4    0    0  0.41682810961E+02  0.14770977651E+02 -0.14367450999E+03  0.15032632282E+03  0.00000000000E+00 0.  1.
         13    1    4    4    0    0 -0.31911794006E+02  0.37986731724E+02 -0.60759884044E+02  0.78441812147E+02  0.00000000000E+00 0. -1.
         -1    1    1    2    0  502  0.88534029451E+00 -0.64224296568E+02 -0.46845586665E+03  0.47283870727E+03  0.00000000000E+00 0.  1.
<scales pt_clust_5="13000.00000" pt_clust_6="13000.00000" pt_clust_7="13000.00000" pt_clust_8="13000.00000" pt_clust_9="13000.00000"></scales>
<clustering>
<clus scale="   87.536">  7  8 -1 -1</clus>
<clus scale="   64.230">  7  9 -1 -1</clus>
<clus scale="   90.482">  5  6 -1 -1</clus>
<clus scale="   91.827">  1  5  2 -1</clus>
<clus scale="  198.673">  2  5  1 -1</clus>
</clustering>
</event>
<event>
 9    1  0.3312826E-006  0.6231217E+03  0.7546771E-02  0.1036053E+00
         21   -1    0    0  501  502  0.00000000000E+00  0.00000000000E+00  0.84872431461E+03  0.84872431461E+03  0.00000000000E+00 0. -1.
          4   -1    0    0  502    0 -0.00000000000E+00 -0.00000000000E+00 -0.17103667615E+03  0.17103667615E+03  0.00000000000E+00 0. -1.
         23    2    1    2    0    0  0.74087832223E+02  0.60091764315E+02  0.72048271373E+02  0.15080775648E+03  0.91934753949E+02 0.  0.
         23    2    1    2    0    0  0.51278579702E+02 -0.50294539643E+02 -0.99897226489E+02  0.15229808170E+03  0.89756428049E+02 0.  0.
        -13    1    4    4    0    0  0.74238725164E+02 -0.52859314409E+02 -0.86182884910E+02  0.12543119662E+03  0.00000000000E+00 0. -1.
         13    1    4    4    0    0 -0.22960145462E+02  0.25647747653E+01 -0.13714341579E+02  0.26866885085E+02  0.00000000000E+00 0.  1.
        -13    1    3    3    0    0  0.94371289558E+02  0.36346438628E+02  0.52216644091E+02  0.11381380327E+03  0.00000000000E+00 0. -1.
         13    1    3    3    0    0 -0.20283457335E+02  0.23745325688E+02  0.19831627282E+02  0.36993953210E+02  0.00000000000E+00 0.  1.
          4    1    1    2  501    0 -0.12536641193E+03 -0.97972246721E+01  0.70553659358E+03  0.71665515258E+03  0.00000000000E+00 0. -1.
<scales pt_clust_5="13000.00000" pt_clust_6="13000.00000" pt_clust_7="13000.00000" pt_clust_8="13000.00000" pt_clust_9="13000.00000"></scales>
<clustering>
<clus scale="   89.756">  5  6 -1 -1</clus>
<clus scale="   91.935">  7  8 -1 -1</clus>
<clus scale="  125.749">  5  9 -1 -1</clus>
<clus scale="  132.484">  2  7  1 -1</clus>
<clus scale="  623.122">  1  5  2 -1</clus>
</clustering>
</event>
<event>
 9    1  0.3312826E-006  0.5405355E+03  0.7546771E-02  0.1039961E+00
         21   -1    0    0  501  502  0.00000000000E+00  0.00000000000E+00  0.78787287426E+02  0.78787287426E+02  0.00000000000E+00 0. -1.
          2   -1    0    0  502    0 -0.00000000000E+00 -0.00000000000E+00 -0.16523740241E+04  0.16523740241E+04  0.00000000000E+00 0. -1.
         23    2    1    2    0    0 -0.12392967087E+03 -0.97002688899E+02 -0.38866867934E+03  0.42877524137E+03  0.89536474854E+02 0.  0.
         23    2    1    2    0    0  0.25520298392E+03 -0.61445568950E+02 -0.95159567603E+03  0.99129465795E+03  0.90700867061E+02 0.  0.
        -11    1    3    3    0    0 -0.30274061435E+02 -0.57299006138E+01 -0.17932451302E+02  0.35650012153E+02  0.00000000000E+00 0.  1.
         11    1    3    3    0    0 -0.93655609432E+02 -0.91272788286E+02 -0.37073622804E+03  0.39312522921E+03  0.00000000000E+00 0. -1.
        -11    1    4    4    0    0  0.10354086630E+03 -0.66662275412E+02 -0.49746331848E+03  0.51247860755E+03  0.00000000000E+00 0.  1.
         11    1    4    4    0    0  0.15166211762E+03  0.52167064614E+01 -0.45413235755E+03  0.47881605040E+03  0.00000000000E+00 0. -1.
          2    1    1    2  501    0 -0.13127331305E+03  0.15844825785E+03 -0.23332238127E+03  0.31109141218E+03  0.00000000000E+00 0. -1.
<scales pt_clust_5="13000.00000" pt_clust_6="13000.00000" pt_clust_7="13000.00000" pt_clust_8="13000.00000" pt_clust_9="13000.00000"></scales>
<clustering>
<clus scale="   89.536">  5  6 -1 -1</clus>
<clus scale="   90.701">  7  8 -1 -1</clus>
<clus scale="  181.066">  2  5  1 -1</clus>
<clus scale="  209.568">  7  9 -1 -1</clus>
<clus scale="  540.536">  1  5  2 -1</clus>
</clustering>
</event>
<event>
 9    1  0.3312826E-006  0.4452089E+03  0.7546771E-02  0.1076079E+00
         21   -1    0    0  501  502  0.00000000000E+00  0.00000000000E+00  0.48051191275E+03  0.48051191275E+03  0.00000000000E+00 0. -1.
          1   -1    0    0  502    0 -0.00000000000E+00 -0.00000000000E+00 -0.18305789072E+03  0.18305789072E+03  0.00000000000E+00 0. -1.
         23    2    1    2    0    0  0.15277108919E+02  0.74946558689E+02 -0.16774990658E+02  0.11863780999E+03  0.89124367781E+02 0.  0.
         23    2    1    2    0    0  0.22821242152E+02 -0.12893017360E+01 -0.92676630907E+02  0.12966210696E+03  0.87754388340E+02 0.  0.
        -11    1    3    3    0    0  0.37959566315E+02  0.69884516687E+02 -0.37106557401E+02  0.87759164476E+02  0.00000000000E+00 0. -1.
         11    1    3    3    0    0 -0.22682457397E+02  0.50620420021E+01  0.20331566743E+02  0.30878645518E+02  0.00000000000E+00 0.  1.
        -11    1    4    4    0    0  0.49508877330E+02 -0.93299906176E+01 -0.87998302192E+02  0.10139959984E+03  0.00000000000E+00 0. -1.
         11    1    4    4    0    0 -0.26687635178E+02  0.80406888816E+01 -0.46783287150E+01  0.28262507119E+02  0.00000000000E+00 0.  1.
          1    1    1    2  501    0 -0.38098351071E+02 -0.73657256953E+02  0.40690564359E+03  0.41526988651E+03  0.00000000000E+00 0. -1.
<scales pt_clust_5="13000.00000" pt_clust_6="13000.00000" pt_clust_7="13000.00000" pt_clust_8="13000.00000" pt_clust_9="13000.00000"></scales>
<clustering>
<clus scale="   87.754">  7  8 -1 -1</clus>
<clus scale="   82.927">  7  9 -1 -1</clus>
<clus scale="   89.124">  5  6 -1 -1</clus>
<clus scale="  117.446">  2  5  1 -1</clus>
<clus scale="  445.209">  1  5  2 -1</clus>
</clustering>
</event>
<event>
 9    1  0.3312826E-006  0.4077931E+03  0.7546771E-02  0.1063748E+00
         21   -1    0    0  501  502  0.00000000000E+00  0.00000000000E+00  0.54472948611E+03  0.54472948611E+03  0.00000000000E+00 0. -1.
          1   -1    0    0  502    0 -0.00000000000E+00 -0.00000000000E+00 -0.18007367536E+03  0.18007367536E+03  0.00000000000E+00 0. -1.
         23    2    1    2    0    0  0.19347161971E+03  0.14913214387E+02  0.86683288922E+02  0.23128117431E+03  0.91232216969E+02 0.  0.
         23    2    1    2    0    0  0.35704141214E+02 -0.13986763406E+02 -0.36013884435E+02  0.10479348162E+03  0.90632547506E+02 0.  0.
        -11    1    4    4    0    0  0.23648755293E+02  0.21851567239E+02 -0.54039639058E+02  0.62904985551E+02  0.00000000000E+00 0.  1.
         11    1    4    4    0    0  0.12055385920E+02 -0.35838330645E+02  0.18025754623E+02  0.41888496068E+02  0.00000000000E+00 0. -1.
        -13    1    3    3    0    0  0.10768247545E+03 -0.36731783421E+02  0.54067931368E+02  0.12596857003E+03  0.00000000000E+00 0.  1.
         13    1    3    3    0    0  0.85789144263E+02  0.51644997808E+02  0.32615357554E+02  0.10531260428E+03  0.00000000000E+00 0. -1.
          1    1    1    2  501    0 -0.22917576092E+03 -0.92645098123E+00  0.31398640626E+03  0.38872850554E+03  0.00000000000E+00 0. -1.
<scales pt_clust_5="13000.00000" pt_clust_6="13000.00000" pt_clust_7="13000.00000" pt_clust_8="13000.00000" pt_clust_9="13000.00000"></scales>
<clustering>
<clus scale="   90.633">  5  6 -1 -1</clus>
<clus scale="   91.232">  7  8 -1 -1</clus>
<clus scale="  214.422">  2  7  1 -1</clus>
<clus scale="  162.145">  5  9 -1 -1</clus>
<clus scale="  407.793">  1  5  2 -1</clus>
</clustering>
</event>
<event>
 9    1  0.3312826E-006  0.3986658E+03  0.7546771E-02  0.1080313E+00
          1   -1    0    0  502    0 -0.00000000000E+00  0.00000000000E+00  0.78129089914E+03  0.78129089914E+03  0.00000000000E+00 0. -1.
         21   -1    0    0  501  502  0.00000000000E+00 -0.00000000000E+00 -0.10052503655E+03  0.10052503655E+03  0.00000000000E+00 0. -1.
         23    2    1    2    0    0  0.51262003716E+02  0.99645009332E+02  0.98028069247E+02  0.17575806526E+03  0.93404894054E+02 0.  0.
         23    2    1    2    0    0 -0.15494349067E+03 -0.62988876995E+00  0.51838652428E+03  0.54891166251E+03  0.92582625910E+02 0.  0.
        -11    1    4    4    0    0 -0.10584278948E+03  0.42753879799E+02  0.35394684125E+03  0.37189912175E+03  0.00000000000E+00 0.  1.
         11    1    4    4    0    0 -0.49100701192E+02 -0.43383768569E+02  0.16443968303E+03  0.17701254076E+03  0.00000000000E+00 0. -1.
        -13    1    3    3    0    0  0.10551128373E+02  0.99860735316E+02  0.48119021509E+02  0.11135049618E+03  0.00000000000E+00 0. -1.
         13    1    3    3    0    0  0.40710875343E+02 -0.21572598344E+00  0.49909047739E+02  0.64407569082E+02  0.00000000000E+00 0.  1.
          1    1    1    2  501    0  0.10368148695E+03 -0.99015120562E+02  0.64351269054E+02  0.15714620793E+03  0.00000000000E+00 0. -1.
<scales pt_clust_5="13000.00000" pt_clust_6="13000.00000" pt_clust_7="13000.00000" pt_clust_8="13000.00000" pt_clust_9="13000.00000"></scales>
<clustering>
<clus scale="   92.583">  5  6 -1 -1</clus>
<clus scale="   93.405">  7  8 -1 -1</clus>
<clus scale="  143.366">  5  9 -1 -1</clus>
<clus scale="  145.882">  1  7  2 -1</clus>
<clus scale="  398.666">  2  5  1 -1</clus>
</clustering>
</event>
<event>
 9    1  0.3312826E-006  0.3183059E+03  0.7546771E-02  0.1121187E+00
         21   -1    0    0  501  502  0.00000000000E+00  0.00000000000E+00  0.26035701733E+03  0.26035701733E+03  0.00000000000E+00 0. -1.
          2   -1    0    0  502    0 -0.00000000000E+00 -0.00000000000E+00 -0.33810159879E+03  0.33810159879E+03  0.00000000000E+00 0. -1.
         23    2    1    2    0    0  0.13359807062E+02 -0.67579550629E+01 -0.22633275552E+03  0.24717942504E+03  0.98219130230E+02 0.  0.
         23    2    1    2    0    0 -0.35563121334E+00  0.38378488085E+02 -0.76427157583E+02  0.12368115468E+03  0.89346979722E+02 0.  0.
        -11    1    4    4    0    0 -0.40872504407E+02  0.14859768809E+02 -0.59858802107E+02  0.73989529902E+02  0.00000000000E+00 0. -1.
         11    1    4    4    0    0  0.40516873194E+02  0.23518719276E+02 -0.16568355477E+02  0.49691624777E+02  0.00000000000E+00 0.  1.
        -11    1    3    3    0    0 -0.30078405127E+02  0.16374605200E+02 -0.16513198851E+03  0.16864581756E+03  0.00000000000E+00 0. -1.
         11    1    3    3    0    0  0.43438212189E+02 -0.23132560263E+02 -0.61200767010E+02  0.78533607488E+02  0.00000000000E+00 0.  1.
          2    1    1    2  501    0 -0.13004175848E+02 -0.31620533022E+02  0.22501533164E+03  0.22759803640E+03  0.00000000000E+00 0. -1.
<scales pt_clust_5="13000.00000" pt_clust_6="13000.00000" pt_clust_7="13000.00000" pt_clust_8="13000.00000" pt_clust_9="13000.00000"></scales>
<clustering>
<clus scale="   89.347">  5  6 -1 -1</clus>
<clus scale="   34.190">  5  9 -1 -1</clus>
<clus scale="   98.219">  7  8 -1 -1</clus>
<clus scale="   99.354">  2  7  1 -1</clus>
<clus scale="  318.306">  1  5  2 -1</clus>
</clustering>
</event>
<event>
 9    1  0.3312826E-006  0.1783091E+03  0.7546771E-02  0.1196735E+00
          3   -1    0    0  502    0 -0.00000000000E+00  0.00000000000E+00  0.82303781394E+02  0.82303781394E+02  0.00000000000E+00 0. -1.
         21   -1    0    0  501  502  0.00000000000E+00 -0.00000000000E+00 -0.25335359468E+03  0.25335359468E+03  0.00000000000E+00 0. -1.
         23    2    1    2    0    0 -0.18678998382E+02 -0.13894701236E+02 -0.13669976170E+02  0.97828588127E+02  0.94029764987E+02 0.  0.
         23    2    1    2    0    0  0.66060115333E+02 -0.97619741182E+01 -0.14504058836E+03  0.18345171932E+03  0.90324559647E+02 0.  0.
        -13    1    4    4    0    0  0.32466719765E+02  0.28567830318E+02 -0.18508064573E+02  0.47039954036E+02  0.00000000000E+00 0.  1.
         13    1    4    4    0    0  0.33593395567E+02 -0.38329804436E+02 -0.12653252378E+03  0.13641176529E+03  0.00000000000E+00 0. -1.
        -13    1    3    3    0    0 -0.28099260236E+02  0.36234544533E+02 -0.71359477452E+01  0.46405090169E+02  0.00000000000E+00 0.  1.
         13    1    3    3    0    0  0.94202618538E+01 -0.50129245770E+02 -0.65340284249E+01  0.51423497959E+02  0.00000000000E+00 0. -1.
          3    1    1    2  501    0 -0.47381116950E+02  0.23656675355E+02 -0.12339248762E+02  0.54377068625E+02  0.00000000000E+00 0. -1.
<scales pt_clust_5="13000.00000" pt_clust_6="13000.00000" pt_clust_7="13000.00000" pt_clust_8="13000.00000" pt_clust_9="13000.00000"></scales>
<clustering>
<clus scale="   90.325">  5  6 -1 -1</clus>
<clus scale="   52.959">  5  9 -1 -1</clus>
<clus scale="   94.030">  7  8 -1 -1</clus>
<clus scale="   96.869">  1  7  2 -1</clus>
<clus scale="  178.309">  2  5  1 -1</clus>
</clustering>
</event>
<event>
 9    1  0.3312826E-006  0.3105992E+03  0.7546771E-02  0.1091446E+00
         21   -1    0    0  501  502  0.00000000000E+00  0.00000000000E+00  0.57438107732E+02  0.57438107732E+02  0.00000000000E+00 0. -1.
          1   -1    0    0  502    0 -0.00000000000E+00 -0.00000000000E+00 -0.12845329409E+04  0.12845329409E+04  0.00000000000E+00 0. -1.
         23    2    1    2    0    0  0.31347261906E+01  0.21078978246E+03 -0.59585234381E+03  0.63845208093E+03  0.90215769785E+02 0.  0.
         23    2    1    2    0    0 -0.36223596904E+01  0.42883312236E+01 -0.13946511520E+03  0.16676593464E+03  0.91262518714E+02 0.  0.
        -13    1    3    3    0    0 -0.18049375827E+02  0.53525228586E+02 -0.27210631425E+03  0.27790749598E+03  0.00000000000E+00 0.  1.
         13    1    3    3    0    0  0.21184102018E+02  0.15726455388E+03 -0.32374602956E+03  0.36054458495E+03  0.00000000000E+00 0. -1.
        -13    1    4    4    0    0 -0.34364746014E+02  0.96211633059E+00 -0.12993927467E+03  0.13441010579E+03  0.00000000000E+00 0.  1.
         13    1    4    4    0    0  0.30742386324E+02  0.33262148930E+01 -0.95258405304E+01  0.32355828845E+02  0.00000000000E+00 0. -1.
          1    1    1    2  501    0  0.48763349972E+00 -0.21507811369E+03 -0.49177737413E+03  0.53675303304E+03  0.00000000000E+00 0. -1.
<scales pt_clust_5="13000.00000" pt_clust_6="13000.00000" pt_clust_7="13000.00000" pt_clust_8="13000.00000" pt_clust_9="13000.00000"></scales>
<clustering>
<clus scale="   90.216">  5  6 -1 -1</clus>
<clus scale="   91.263">  7  8 -1 -1</clus>
<clus scale="  215.079">  7  9 -1 -1</clus>
<clus scale="  229.306">  2  5  1 -1</clus>
<clus scale="  310.599">  1  5  2 -1</clus>
</clustering>
</event>
<event>
 9    1  0.3312826E-006  0.1218850E+03  0.7546771E-02  0.1246047E+00
         21   -1    0    0  501  502  0.00000000000E+00  0.00000000000E+00  0.21623848332E+03  0.21623848332E+03  0.00000000000E+00 0.  1.
          2   -1    0    0  502    0 -0.00000000000E+00 -0.00000000000E+00 -0.82926273915E+02  0.82926273915E+02  0.00000000000E+00 0. -1.
         23    2    1    2    0    0  0.44799179022E+02  0.32414357356E+02  0.14039688713E+03  0.17707400014E+03  0.92662066696E+02 0.  0.
         23    2    1    2    0    0 -0.25831894442E+02 -0.22496111260E+02 -0.17047906601E+02  0.98481533907E+02  0.90744804859E+02 0.  0.
        -11    1    3    3    0    0  0.26560238012E+02 -0.91544069044E+01 -0.14595731158E+01  0.28131472815E+02  0.00000000000E+00 0. -1.
         11    1    3    3    0    0  0.18238941010E+02  0.41568764261E+02  0.14185646025E+03  0.14894252732E+03  0.00000000000E+00 0.  1.
        -13    1    4    4    0    0  0.18250572222E+02 -0.43161159073E+02  0.10846767186E+00  0.46861293240E+02  0.00000000000E+00 0. -1.
         13    1    4    4    0    0 -0.44082466664E+02  0.20665047813E+02 -0.17156374273E+02  0.51620240667E+02  0.00000000000E+00 0.  1.
          2    1    1    2  501    0 -0.18967284580E+02 -0.99182460965E+01  0.99632288703E+01  0.23609223187E+02  0.00000000000E+00 0. -1.
<scales pt_clust_5="13000.00000" pt_clust_6="13000.00000" pt_clust_7="13000.00000" pt_clust_8="13000.00000" pt_clust_9="13000.00000"></scales>
<clustering>
<clus scale="   90.745">  7  8 -1 -1</clus>
<clus scale="   21.404">  7  9 -1 -1</clus>
<clus scale="   92.662">  5  6 -1 -1</clus>
<clus scale="  107.907">  2  5  1 -1</clus>
<clus scale="  121.885">  1  5  2 -1</clus>
</clustering>
</event>
<event>
 9    1  0.3312826E-006  0.2329292E+03  0.7546771E-02  0.1162643E+00
         -1   -1    0    0    0  501 -0.00000000000E+00  0.00000000000E+00  0.44199516034E+03  0.44199516034E+03  0.00000000000E+00 0.  1.
         21   -1    0    0  501  502  0.00000000000E+00 -0.00000000000E+00 -0.76414429600E+02  0.76414429600E+02  0.00000000000E+00 0.  1.
         23    2    1    2    0    0 -0.36010482359E+01 -0.17488349506E+02  0.23139271721E+03  0.24959283328E+03  0.91843251973E+02 0.  0.
         23    2    1    2    0    0 -0.55046651693E+02  0.57934190307E+02  0.15257685484E+03  0.19523980218E+03  0.91936823176E+02 0.  0.
        -11    1    4    4    0    0 -0.66507352229E+02  0.26569460083E+02  0.49949027848E+02  0.87315917751E+02  0.00000000000E+00 0. -1.
         11    1    4    4    0    0  0.11460700536E+02  0.31364730224E+02  0.10262782699E+03  0.10792388443E+03  0.00000000000E+00 0.  1.
        -13    1    3    3    0    0 -0.22221148236E+02  0.32704549543E+02  0.11106562264E+03  0.11789376371E+03  0.00000000000E+00 0.  1.
         13    1    3    3    0    0  0.18620100000E+02 -0.50192899049E+02  0.12032709457E+03  0.13169906957E+03  0.00000000000E+00 0. -1.
         -1    1    1    2    0  502  0.58647699929E+02 -0.40445840802E+02 -0.18388841303E+02  0.73576954474E+02  0.00000000000E+00 0.  1.
<scales pt_clust_5="13000.00000" pt_clust_6="13000.00000" pt_clust_7="13000.00000" pt_clust_8="13000.00000" pt_clust_9="13000.00000"></scales>
<clustering>
<clus scale="   91.843">  7  8 -1 -1</clus>
<clus scale="   91.937">  5  6 -1 -1</clus>
<clus scale="   71.242">  5  9 -1 -1</clus>
<clus scale="   93.563">  1  7  2 -1</clus>
<clus scale="  232.929">  2  5  1 -1</clus>
</clustering>
</event>
<event>
 9    1  0.3312826E-006  0.2096147E+03  0.7546771E-02  0.1157356E+00
         21   -1    0    0  501  502  0.00000000000E+00  0.00000000000E+00  0.28137817575E+03  0.28137817575E+03  0.00000000000E+00 0.  1.
         -1   -1    0    0    0  501 -0.00000000000E+00 -0.00000000000E+00 -0.49683776249E+03  0.49683776249E+03  0.00000000000E+00 0.  1.
         23    2    1    2    0    0  0.11067738929E+03  0.34903583026E+02 -0.44457223351E+03  0.46768266522E+03  0.87263164765E+02 0.  0.
         23    2    1    2    0    0 -0.78840387641E+02 -0.21748117912E+02  0.24390320983E+03  0.27304431876E+03  0.91518505700E+02 0.  0.
        -11    1    4    4    0    0 -0.82390600579E+02 -0.48545960929E+02  0.18608017562E+03  0.20921461026E+03  0.00000000000E+00 0.  1.
         11    1    4    4    0    0  0.35502129383E+01  0.26797843017E+02  0.57823034203E+02  0.63829708497E+02  0.00000000000E+00 0. -1.
        -13    1    3    3    0    0 -0.66614563706E+00  0.32221202954E+02 -0.73473932264E+02  0.80231342954E+02  0.00000000000E+00 0. -1.
         13    1    3    3    0    0  0.11134353493E+03  0.26823800720E+01 -0.37109830125E+03  0.38745132226E+03  0.00000000000E+00 0.  1.
         -1    1    1    2    0  502 -0.31837001653E+02 -0.13155465114E+02 -0.14790563049E+02  0.37488954265E+02  0.00000000000E+00 0.  1.
<scales pt_clust_5="13000.00000" pt_clust_6="13000.00000" pt_clust_7="13000.00000" pt_clust_8="13000.00000" pt_clust_9="13000.00000"></scales>
<clustering>
<clus scale="   87.263">  7  8 -1 -1</clus>
<clus scale="   91.519">  5  6 -1 -1</clus>
<clus scale="   34.448">  5  9 -1 -1</clus>
<clus scale="  145.199">  2  7  1 -1</clus>
<clus scale="  209.615">  1  5  2 -1</clus>
</clustering>
</event>
<event>
 9    1  0.3312826E-006  0.1658128E+03  0.7546771E-02  0.1207895E+00
         -1   -1    0    0    0  501 -0.00000000000E+00  0.00000000000E+00  0.16426362089E+03  0.16426362089E+03  0.00000000000E+00 0.  1.
         21   -1    0    0  501  502  0.00000000000E+00 -0.00000000000E+00 -0.10337783247E+03  0.10337783247E+03  0.00000000000E+00 0.  1.
         23    2    1    2    0    0 -0.24040401349E+02 -0.10209375520E+02  0.17249529848E+02  0.96182942447E+02  0.90947456766E+02 0.  0.
         23    2    1    2    0    0 -0.92183632306E+01  0.12961283496E+02  0.80416017232E+02  0.12179495218E+03  0.90079417502E+02 0.  0.
        -13    1    4    4    0    0  0.24511547327E+02  0.34520312456E+02  0.67597539143E+02  0.79761489596E+02  0.00000000000E+00 0.  1.
         13    1    4    4    0    0 -0.33729910557E+02 -0.21559028960E+02  0.12818478089E+02  0.42033462580E+02  0.00000000000E+00 0. -1.
        -13    1    3    3    0    0  0.29664498155E+01  0.32117559602E+02 -0.15957894250E+02  0.35985995167E+02  0.00000000000E+00 0.  1.
         13    1    3    3    0    0 -0.27006851165E+02 -0.42326935121E+02  0.33207424098E+02  0.60196947280E+02  0.00000000000E+00 0. -1.
         -1    1    1    2    0  502  0.33258764580E+02 -0.27519079761E+01 -0.36779758663E+02  0.49663558735E+02  0.00000000000E+00 0.  1.
<scales pt_clust_5="13000.00000" pt_clust_6="13000.00000" pt_clust_7="13000.00000" pt_clust_8="13000.00000" pt_clust_9="13000.00000"></scales>
<clustering>
<clus scale="   90.079">  5  6 -1 -1</clus>
<clus scale="   33.372">  5  9 -1 -1</clus>
<clus scale="   90.947">  7  8 -1 -1</clus>
<clus scale="   94.624">  1  7  2 -1</clus>
<clus scale="  165.813">  2  5  1 -1</clus>
</clustering>
</event>
<event>
 9    1  0.3312826E-006  0.1611286E+03  0.7546771E-02  0.1209211E+00
         21   -1    0    0  501  502  0.00000000000E+00  0.00000000000E+00  0.27571452430E+02  0.27571452430E+02  0.00000000000E+00 0.  1.
          1   -1    0    0  502    0 -0.00000000000E+00 -0.00000000000E+00 -0.71797957062E+03  0.71797957062E+03  0.00000000000E+00 0. -1.
         23    2    1    2    0    0 -0.24275589071E+02  0.31117138989E+02 -0.41063572413E+03  0.42269652473E+03  0.92157872822E+02 0.  0.
         23    2    1    2    0    0  0.13432696887E+02  0.16891212442E+02 -0.91447595168E+02  0.12820455613E+03  0.87223822127E+02 0.  0.
        -11    1    4    4    0    0  0.40639801173E+02  0.32858547959E+02 -0.78049386255E+02  0.93930742082E+02  0.00000000000E+00 0. -1.
         11    1    4    4    0    0 -0.27207104286E+02 -0.15967335516E+02 -0.13398208913E+02  0.34273814045E+02  0.00000000000E+00 0.  1.
        -13    1    3    3    0    0 -0.16902433711E+01  0.61909467303E+02 -0.26446377130E+03  0.27161871327E+03  0.00000000000E+00 0. -1.
         13    1    3    3    0    0 -0.22585345700E+02 -0.30792328314E+02 -0.14617195283E+03  0.15107781147E+03  0.00000000000E+00 0.  1.
          1    1    1    2  501    0  0.10842892184E+02 -0.48008351431E+02 -0.18832479889E+03  0.19464994219E+03  0.00000000000E+00 0. -1.
<scales pt_clust_5="13000.00000" pt_clust_6="13000.00000" pt_clust_7="13000.00000" pt_clust_8="13000.00000" pt_clust_9="13000.00000"></scales>
<clustering>
<clus scale="   87.224">  5  6 -1 -1</clus>
<clus scale="   49.218">  5  9 -1 -1</clus>
<clus scale="   92.158">  7  8 -1 -1</clus>
<clus scale="  100.253">  2  7  1 -1</clus>
<clus scale="  161.129">  1  5  2 -1</clus>
</clustering>
</event>
<event>
 9    1  0.3312826E-006  0.3275850E+03  0.7546771E-02  0.1104632E+00
          1   -1    0    0  502    0 -0.00000000000E+00  0.00000000000E+00  0.60214959400E+03  0.60214959400E+03  0.00000000000E+00 0. -1.
         21   -1    0    0  501  502  0.00000000000E+00 -0.00000000000E+00 -0.15900301990E+03  0.15900301990E+03  0.00000000000E+00 0. -1.
         23    2    1    2    0    0 -0.15480663628E+02 -0.10180896730E+03  0.40891863351E+03  0.43178433007E+03  0.92836103381E+02 0.  0.
         23    2    1    2    0    0 -0.94696117181E+02  0.77978303689E+02  0.11454428637E+03  0.19095752212E+03  0.91084637880E+02 0.  0.
        -11    1    3    3    0    0  0.99465136889E+01 -0.55847992778E+02  0.34220355087E+03  0.34687346635E+03  0.00000000000E+00 0. -1.
         11    1    3    3    0    0 -0.25427177317E+02 -0.45960974518E+02  0.66715082642E+02  0.84910863715E+02  0.00000000000E+00 0.  1.
        -11    1    4    4    0    0 -0.21280880875E+02  0.72380329045E+02  0.78865187150E+02  0.10913984455E+03  0.00000000000E+00 0.  1.
         11    1    4    4    0    0 -0.73415236306E+02  0.55979746442E+01  0.35679099223E+02  0.81817677572E+02  0.00000000000E+00 0. -1.
          1    1    1    2  501    0  0.11017678081E+03  0.23830663607E+02 -0.80316345784E+02  0.13841076171E+03  0.00000000000E+00 0. -1.
<scales pt_clust_5="13000.00000" pt_clust_6="13000.00000" pt_clust_7="13000.00000" pt_clust_8="13000.00000" pt_clust_9="13000.00000"></scales>
<clustering>
<clus scale="   91.085">  7  8 -1 -1</clus>
<clus scale="   92.836">  5  6 -1 -1</clus>
<clus scale="  112.725">  7  9 -1 -1</clus>
<clus scale="  138.648">  1  5  2 -1</clus>
<clus scale="  327.585">  2  5  1 -1</clus>
</clustering>
</event>
<event>
 9    1  0.3312826E-006  0.2634789E+03  0.7546771E-02  0.1121085E+00
          1   -1    0    0  502    0 -0.00000000000E+00  0.00000000000E+00  0.87713112180E+03  0.87713112180E+03  0.00000000000E+00 0. -1.
         21   -1    0    0  501  502  0.00000000000E+00 -0.00000000000E+00 -0.67371629185E+02  0.67371629185E+02  0.00000000000E+00 0. -1.
         23    2    1    2    0    0  0.72618701776E+02 -0.12909285605E+03  0.53819943530E+03  0.56612991315E+03  0.94371632795E+02 0.  0.
         23    2    1    2    0    0 -0.45316174367E+02 -0.65160767736E+00  0.20683187461E+03  0.23083033038E+03  0.91919730285E+02 0.  0.
        -11    1    3    3    0    0  0.44518342777E+02 -0.11544412965E+03  0.50737179814E+03  0.52224072176E+03  0.00000000000E+00 0. -1.
         11    1    3    3    0    0  0.28100358999E+02 -0.13648726399E+02  0.30827637157E+02  0.43889191390E+02  0.00000000000E+00 0.  1.
        -13    1    4    4    0    0 -0.38966078584E+02 -0.43036055754E+02  0.98601777227E+02  0.11442363326E+03  0.00000000000E+00 0.  1.
         13    1    4    4    0    0 -0.63500957826E+01  0.42384448077E+02  0.10823009739E+03  0.11640669713E+03  0.00000000000E+00 0. -1.
          1    1    1    2  501    0 -0.27302527409E+02  0.12974446372E+03  0.64728182702E+02  0.14754250745E+03  0.00000000000E+00 0. -1.
<scales pt_clust_5="13000.00000" pt_clust_6="13000.00000" pt_clust_7="13000.00000" pt_clust_8="13000.00000" pt_clust_9="13000.00000"></scales>
<clustering>
<clus scale="   91.920">  7  8 -1 -1</clus>
<clus scale="   94.372">  5  6 -1 -1</clus>
<clus scale="  132.586">  7  9 -1 -1</clus>
<clus scale="  175.626">  1  5  2 -1</clus>
<clus scale="  263.479">  2  5  1 -1</clus>
</clustering>
</event>
<event>
 9    1  0.3312826E-006  0.1466242E+03  0.7546771E-02  0.1222490E+00
         21   -1    0    0  501  502  0.00000000000E+00  0.00000000000E+00  0.14390594237E+03  0.14390594237E+03  0.00000000000E+00 0. -1.
         -1   -1    0    0    0  501 -0.00000000000E+00 -0.00000000000E+00 -0.51374542912E+03  0.51374542912E+03  0.00000000000E+00 0.  1.
         23    2    1    2    0    0  0.21668843664E+02  0.35418377292E+02 -0.46965108293E+03  0.48027888119E+03  0.91496796606E+02 0.  0.
         23    2    1    2    0    0 -0.38950503780E+02 -0.91355680792E+01  0.10688037503E+03  0.14513261637E+03  0.89663043775E+02 0.  0.
        -11    1    3    3    0    0  0.16131930550E+02 -0.29123019541E+02 -0.11339357076E+03  0.11817991090E+03  0.00000000000E+00 0. -1.
         11    1    3    3    0    0  0.55369131138E+01  0.64541396833E+02 -0.35625751217E+03  0.36209897030E+03  0.00000000000E+00 0.  1.
        -11    1    4    4    0    0 -0.29905657857E+02  0.33877970044E+02  0.84463154447E+02  0.95791908245E+02  0.00000000000E+00 0.  1.
         11    1    4    4    0    0 -0.90448459232E+01 -0.43013538123E+02  0.22417220584E+02  0.49340708126E+02  0.00000000000E+00 0. -1.
         -1    1    1    2    0  502  0.17281660116E+02 -0.26282809213E+02 -0.70687788447E+01  0.32239873927E+02  0.00000000000E+00 0.  1.
<scales pt_clust_5="13000.00000" pt_clust_6="13000.00000" pt_clust_7="13000.00000" pt_clust_8="13000.00000" pt_clust_9="13000.00000"></scales>
<clustering>
<clus scale="   89.663">  7  8 -1 -1</clus>
<clus scale="   31.455">  7  9 -1 -1</clus>
<clus scale="   91.497">  5  6 -1 -1</clus>
<clus scale="  100.477">  2  5  1 -1</clus>
<clus scale="  146.624">  1  5  2 -1</clus>
</clustering>
</event>
<event>
 9    1  0.3312826E-006  0.1772267E+03  0.7546771E-02  0.1197295E+00
         21   -1    0    0  501  502  0.00000000000E+00  0.00000000000E+00  0.57497015378E+02  0.57497015378E+02  0.00000000000E+00 0. -1.
          2   -1    0    0  502    0 -0.00000000000E+00 -0.00000000000E+00 -0.36236381841E+03  0.36236381841E+03  0.00000000000E+00 0. -1.
         23    2    1    2    0    0 -0.30861963360E+02 -0.19063232289E+02 -0.17442767492E+03  0.19980702240E+03  0.90454213919E+02 0.  0.
         23    2    1    2    0    0  0.43022621602E+02 -0.15106586227E+02 -0.14768761858E+03  0.17989203193E+03  0.92034534571E+02 0.  0.
        -13    1    3    3    0    0 -0.39970920587E+02 -0.44403783887E+02 -0.15634420856E+03  0.16737049342E+03  0.00000000000E+00 0.  1.
         13    1    3    3    0    0  0.91089572270E+01  0.25340551597E+02 -0.18083466355E+02  0.32436528983E+02  0.00000000000E+00 0. -1.
        -13    1    4    4    0    0  0.50365826718E+02  0.28850543321E+02 -0.87474391160E+02  0.10498018603E+03  0.00000000000E+00 0. -1.
         13    1    4    4    0    0 -0.73432051158E+01 -0.43957129548E+02 -0.60213227419E+02  0.74911845897E+02  0.00000000000E+00 0.  1.
          2    1    1    2  501    0 -0.12160658242E+02  0.34169818517E+02  0.17248490460E+02  0.40161779461E+02  0.00000000000E+00 0. -1.
<scales pt_clust_5="13000.00000" pt_clust_6="13000.00000" pt_clust_7="13000.00000" pt_clust_8="13000.00000" pt_clust_9="13000.00000"></scales>
<clustering>
<clus scale="   90.454">  5  6 -1 -1</clus>
<clus scale="   92.035">  7  8 -1 -1</clus>
<clus scale="   36.269">  7  9 -1 -1</clus>
<clus scale="   97.457">  2  5  1 -1</clus>
<clus scale="  177.227">  1  5  2 -1</clus>
</clustering>
</event>
<event>
 9    1  0.3312826E-006  0.1496968E+03  0.7546771E-02  0.1213611E+00
          2   -1    0    0  502    0 -0.00000000000E+00  0.00000000000E+00  0.45595470130E+03  0.45595470130E+03  0.00000000000E+00 0. -1.
         21   -1    0    0  501  502  0.00000000000E+00 -0.00000000000E+00 -0.72278930696E+02  0.72278930696E+02  0.00000000000E+00 0.  1.
         23    2    1    2    0    0  0.62726983953E+02 -0.21247465644E+02  0.35887497284E+03  0.37649632483E+03  0.92585674728E+02 0.  0.
         23    2    1    2    0    0 -0.41505963809E+02  0.37502748832E+02  0.46451688006E+02  0.11733778716E+03  0.92093407888E+02 0.  0.
        -11    1    4    4    0    0 -0.40616375017E+02 -0.23145546389E+02  0.24912696548E+02  0.52972150102E+02  0.00000000000E+00 0.  1.
         11    1    4    4    0    0 -0.88958879209E+00  0.60648295221E+02  0.21538991459E+02  0.64365637063E+02  0.00000000000E+00 0. -1.
        -13    1    3    3    0    0 -0.21131858671E+02  0.42255466392E+01  0.36182966837E+02  0.42114341790E+02  0.00000000000E+00 0.  1.
         13    1    3    3    0    0  0.83858842624E+02 -0.25473012283E+02  0.32269200601E+03  0.33438198304E+03  0.00000000000E+00 0. -1.
          2    1    1    2  501    0 -0.21221020144E+02 -0.16255283188E+02 -0.21650890250E+02  0.34399519998E+02  0.00000000000E+00 0. -1.
<scales pt_clust_5="13000.00000" pt_clust_6="13000.00000" pt_clust_7="13000.00000" pt_clust_8="13000.00000" pt_clust_9="13000.00000"></scales>
<clustering>
<clus scale="   92.093">  5  6 -1 -1</clus>
<clus scale="   26.731">  5  9 -1 -1</clus>
<clus scale="   92.586">  7  8 -1 -1</clus>
<clus scale="  113.834">  1  7  2 -1</clus>
<clus scale="  149.697">  2  5  1 -1</clus>
</clustering>
</event>
<event>
 9    1  0.3312826E-006  0.1783356E+03  0.7546771E-02  0.1191682E+00
         21   -1    0    0  501  502  0.00000000000E+00  0.00000000000E+00  0.67653975511E+02  0.67653975511E+02  0.00000000000E+00 0. -1.
          4   -1    0    0  502    0 -0.00000000000E+00 -0.00000000000E+00 -0.32473116099E+03  0.32473116099E+03  0.00000000000E+00 0. -1.
         23    2    1    2    0    0  0.41236078863E+01  0.59242883857E+02 -0.14805718999E+03  0.18336615980E+03  0.90418436293E+02 0.  0.
         23    2    1    2    0    0  0.30725288714E+02  0.39414009738E+00 -0.10318482646E+03  0.13970036869E+03  0.89021828145E+02 0.  0.
        -11    1    3    3    0    0 -0.37735928121E+02  0.44722426261E+02 -0.55030337413E+02  0.80327042256E+02  0.00000000000E+00 0. -1.
         11    1    3    3    0    0  0.41859536007E+02  0.14520457596E+02 -0.93026852574E+02  0.10303911754E+03  0.00000000000E+00 0.  1.
        -11    1    4    4    0    0  0.97511937069E+01  0.39565212409E+02 -0.20000640438E+02  0.45392922682E+02  0.00000000000E+00 0. -1.
         11    1    4    4    0    0  0.20974095007E+02 -0.39171072312E+02 -0.83184186024E+02  0.94307446005E+02  0.00000000000E+00 0.  1.
          4    1    1    2  501    0 -0.34848896601E+02 -0.59637023954E+02 -0.58351690339E+01  0.69318608022E+02  0.00000000000E+00 0. -1.
<scales pt_clust_5="13000.00000" pt_clust_6="13000.00000" pt_clust_7="13000.00000" pt_clust_8="13000.00000" pt_clust_9="13000.00000"></scales>
<clustering>
<clus scale="   89.022">  7  8 -1 -1</clus>
<clus scale="   69.073">  7  9 -1 -1</clus>
<clus scale="   90.418">  5  6 -1 -1</clus>
<clus scale="  108.177">  2  5  1 -1</clus>
<clus scale="  178.336">  1  5  2 -1</clus>
</clustering>
</event>
<event>
 9    1  0.3312826E-006  0.1881876E+03  0.7546771E-02  0.1185543E+00
          2   -1    0    0  502    0 -0.00000000000E+00  0.00000000000E+00  0.37860180977E+03  0.37860180977E+03  0.00000000000E+00 0. -1.
         21   -1    0    0  501  502  0.00000000000E+00 -0.00000000000E+00 -0.56944693627E+02  0.56944693627E+02  0.00000000000E+00 0.  1.
         23    2    1    2    0    0  0.53135601935E+02  0.10449794410E+02  0.11398080957E+03  0.15528944577E+03  0.90501915019E+02 0.  0.
         23    2    1    2    0    0 -0.10086430268E+03 -0.14186252245E+01  0.17498777689E+03  0.22170681540E+03  0.91419745584E+02 0.  0.
        -11    1    4    4    0    0 -0.11275630125E+03  0.15763364286E+02  0.13509250102E+03  0.17667045864E+03  0.00000000000E+00 0.  1.
         11    1    4    4    0    0  0.11891998570E+02 -0.17181989511E+02  0.39895275869E+02  0.45036356760E+02  0.00000000000E+00 0. -1.
        -11    1    3    3    0    0 -0.22861217411E+02  0.15362985360E+02  0.18601028624E+02  0.33236348274E+02  0.00000000000E+00 0.  1.
         11    1    3    3    0    0  0.75996819346E+02 -0.49131909499E+01  0.95379780941E+02  0.12205309750E+03  0.00000000000E+00 0. -1.
          2    1    1    2  501    0  0.47728700743E+02 -0.90311691856E+01  0.32688529691E+02  0.58550242227E+02  0.00000000000E+00 0. -1.
<scales pt_clust_5="13000.00000" pt_clust_6="13000.00000" pt_clust_7="13000.00000" pt_clust_8="13000.00000" pt_clust_9="13000.00000"></scales>
<clustering>
<clus scale="   90.502">  7  8 -1 -1</clus>
<clus scale="   91.420">  5  6 -1 -1</clus>
<clus scale="   48.576">  5  9 -1 -1</clus>
<clus scale="  105.467">  1  7  2 -1</clus>
<clus scale="  188.188">  2  5  1 -1</clus>
</clustering>
</event>
<event>
 9    1  0.3312826E-006  0.2526457E+03  0.7546771E-02  0.1139391E+00
          4   -1    0    0  502    0 -0.00000000000E+00  0.00000000000E+00  0.10673213915E+03  0.10673213915E+03  0.00000000000E+00 0. -1.
         21   -1    0    0  501  502  0.00000000000E+00 -0.00000000000E+00 -0.33775954972E+03  0.33775954972E+03  0.00000000000E+00 0. -1.
         23    2    1    2    0    0 -0.24923501322E+02 -0.84517219446E+02 -0.76657461254E+02  0.14841747051E+03  0.91580772469E+02 0.  0.
         23    2    1    2    0    0 -0.16649132532E+02 -0.45001254984E+02 -0.11574743119E+03  0.15467047721E+03  0.90681762927E+02 0.  0.
        -11    1    4    4    0    0 -0.39129242196E+01 -0.67619446955E+02 -0.10817590792E+03  0.12763121733E+03  0.00000000000E+00 0.  1.
         11    1    4    4    0    0 -0.12736208313E+02  0.22618191971E+02 -0.75715232755E+01  0.27039259881E+02  0.00000000000E+00 0. -1.
        -13    1    3    3    0    0  0.10410231619E+02 -0.90619435304E+02 -0.56077315913E+02  0.10707436825E+03  0.00000000000E+00 0.  1.
         13    1    3    3    0    0 -0.35333732941E+02  0.61022158577E+01 -0.20580145340E+02  0.41343102256E+02  0.00000000000E+00 0. -1.
          4    1    1    2  501    0  0.41572633854E+02  0.12951847443E+03 -0.38622518126E+02  0.14140374115E+03  0.00000000000E+00 0. -1.
<scales pt_clust_5="13000.00000" pt_clust_6="13000.00000" pt_clust_7="13000.00000" pt_clust_8="13000.00000" pt_clust_9="13000.00000"></scales>
<clustering>
<clus scale="   90.682">  5  6 -1 -1</clus>
<clus scale="   91.581">  7  8 -1 -1</clus>
<clus scale="  127.088">  1  7  2 -1</clus>
<clus scale="   72.149">  5  9 -1 -1</clus>
<clus scale="  252.646">  2  5  1 -1</clus>
</clustering>
</event>
<event>
 9    1  0.3312826E-006  0.2482549E+03  0.7546771E-02  0.1117237E+00
         21   -1    0    0  501  502  0.00000000000E+00  0.00000000000E+00  0.20216604345E+03  0.20216604345E+03  0.00000000000E+00 0.  1.
          1   -1    0    0  502    0 -0.00000000000E+00 -0.00000000000E+00 -0.57324626049E+03  0.57324626049E+03  0.00000000000E+00 0. -1.
         23    2    1    2    0    0  0.12485980200E+03  0.17488845097E+03 -0.45745585473E+03  0.51256017463E+03  0.85300252953E+02 0.  0.
         23    2    1    2    0    0 -0.82818901973E+02 -0.14942857404E+03  0.91091388931E+02  0.21347722760E+03  0.89927839420E+02 0.  0.
        -13    1    3    3    0    0  0.10945090324E+03  0.15137523702E+03 -0.44337435142E+03  0.48111825792E+03  0.00000000000E+00 0. -1.
         13    1    3    3    0    0  0.15408898765E+02  0.23513213951E+02 -0.14081503312E+02  0.31441916719E+02  0.00000000000E+00 0.  1.
        -13    1    4    4    0    0 -0.26818237871E+02 -0.67225997617E+02  0.88030929969E+02  0.11396489490E+03  0.00000000000E+00 0.  1.
         13    1    4    4    0    0 -0.56000664102E+02 -0.82202576427E+02  0.30604589620E+01  0.99512332704E+02  0.00000000000E+00 0. -1.
          1    1    1    2  501    0 -0.42040900032E+02 -0.25459876928E+02 -0.47157512446E+01  0.49374901706E+02  0.00000000000E+00 0. -1.
<scales pt_clust_5="13000.00000" pt_clust_6="13000.00000" pt_clust_7="13000.00000" pt_clust_8="13000.00000" pt_clust_9="13000.00000"></scales>
<clustering>
<clus scale="   85.300">  5  6 -1 -1</clus>
<clus scale="   89.928">  7  8 -1 -1</clus>
<clus scale="   49.149">  7  9 -1 -1</clus>
<clus scale="  231.197">  2  5  1 -1</clus>
<clus scale="  248.255">  1  5  2 -1</clus>
</clustering>
</event>
<event>
 9    1  0.3312826E-006  0.3363314E+03  0.7546771E-02  0.1099697E+00
          1   -1    0    0  502    0 -0.00000000000E+00  0.00000000000E+00  0.71772295626E+03  0.71772295626E+03  0.00000000000E+00 0. -1.
         21   -1    0    0  501  502  0.00000000000E+00 -0.00000000000E+00 -0.11821912341E+03  0.11821912341E+03  0.00000000000E+00 0. -1.
         23    2    1    2    0    0 -0.62525837063E+02 -0.94659997704E+02 -0.33956702927E+01  0.14557506859E+03  0.91162352719E+02 0.  0.
         23    2    1    2    0    0 -0.63539627419E+02  0.24160790144E+02  0.50875377572E+03  0.51795454751E+03  0.69465681774E+02 0.  0.
        -11    1    3    3    0    0 -0.82499101580E+02 -0.79498274365E+02  0.13465049760E+02  0.11535763934E+03  0.00000000000E+00 0. -1.
         11    1    3    3    0    0  0.19973264517E+02 -0.15161723339E+02 -0.16860720052E+02  0.30217429255E+02  0.00000000000E+00 0.  1.
        -11    1    4    4    0    0 -0.54191755915E+02  0.47388979010E+02  0.36383206676E+03  0.37088574324E+03  0.00000000000E+00 0. -1.
         11    1    4    4    0    0 -0.93478715040E+01 -0.23228188866E+02  0.14492170896E+03  0.14706880426E+03  0.00000000000E+00 0.  1.
          1    1    1    2  501    0  0.12606546448E+03  0.70499207560E+02  0.94145727428E+02  0.17241246357E+03  0.00000000000E+00 0. -1.
<scales pt_clust_5="13000.00000" pt_clust_6="13000.00000" pt_clust_7="13000.00000" pt_clust_8="13000.00000" pt_clust_9="13000.00000"></scales>
<clustering>
<clus scale="   69.466">  7  8 -1 -1</clus>
<clus scale="   91.162">  5  6 -1 -1</clus>
<clus scale="  144.439">  7  9 -1 -1</clus>
<clus scale="  145.536">  1  5  2 -1</clus>
<clus scale="  336.331">  2  5  1 -1</clus>
</clustering>
</event>
<event>
 9    1  0.3965189E-006  0.6315561E+03  0.7546771E-02  0.1020809E+00
         -3   -1    0    0    0  501 -0.00000000000E+00  0.00000000000E+00  0.14036283706E+03  0.14036283706E+03  0.00000000000E+00 0.  1.
         21   -1    0    0  501  502  0.00000000000E+00 -0.00000000000E+00 -0.13012217401E+04  0.13012217401E+04  0.00000000000E+00 0.  1.
         23    2    1    2    0    0 -0.17584334204E+03 -0.25808934208E+02 -0.43838111417E+03  0.48198191451E+03  0.92420682925E+02 0.  0.
         23    2    1    2    0    0  0.19889673211E+02 -0.35355783601E+01  0.91301327810E+02  0.13049525225E+03  0.91021859925E+02 0.  0.
        -13    1    3    3    0    0 -0.52044434702E+02  0.50252184739E+01 -0.24352289509E+03  0.24907283359E+03  0.00000000000E+00 0. -1.
         13    1    3    3    0    0 -0.12379890734E+03 -0.30834152682E+02 -0.19485821909E+03  0.23290908092E+03  0.00000000000E+00 0.  1.
        -13    1    4    4    0    0  0.26679921315E+02  0.34381848415E+02  0.16847067764E+02  0.46666405412E+02  0.00000000000E+00 0.  1.
         13    1    4    4    0    0 -0.67902481039E+01 -0.37917426775E+02  0.74454260046E+02  0.83828846834E+02  0.00000000000E+00 0. -1.
         -3    1    1    2    0  502  0.15595366883E+03  0.29344512568E+02 -0.81377911666E+03  0.82910741038E+03  0.00000000000E+00 0.  1.
<scales pt_clust_5="13000.00000" pt_clust_6="13000.00000" pt_clust_7="13000.00000" pt_clust_8="13000.00000" pt_clust_9="13000.00000"></scales>
<clustering>
<clus scale="   91.022">  7  8 -1 -1</clus>
<clus scale="   92.421">  5  6 -1 -1</clus>
<clus scale="  158.690">  7  9 -1 -1</clus>
<clus scale="  200.321">  1  5  2 -1</clus>
<clus scale="  631.556">  2  5  1 -1</clus>
</clustering>
</event>
<event>
 9    1  0.3312826E-006  0.1555281E+03  0.7546771E-02  0.1214567E+00
         -1   -1    0    0    0  501 -0.00000000000E+00  0.00000000000E+00  0.24405383452E+03  0.24405383452E+03  0.00000000000E+00 0.  1.
         21   -1    0    0  501  502  0.00000000000E+00 -0.00000000000E+00 -0.71134509152E+02  0.71134509152E+02  0.00000000000E+00 0.  1.
         23    2    1    2    0    0 -0.17700154625E+02  0.38062314033E+02  0.29813589469E+02  0.10383973872E+03  0.90176526858E+02 0.  0.
         23    2    1    2    0    0  0.38910098940E+02 -0.32444054651E+02  0.15555412948E+03  0.18612185171E+03  0.88756092774E+02 0.  0.
        -11    1    3    3    0    0 -0.42337979651E+02 -0.15205062037E+01 -0.88383794953E+01  0.43277400709E+02  0.00000000000E+00 0. -1.
         11    1    3    3    0    0  0.24637825027E+02  0.39582820237E+02  0.38651968964E+02  0.60562338006E+02  0.00000000000E+00 0.  1.
        -13    1    4    4    0    0 -0.13854456462E+02  0.17072839180E+02  0.73505800527E+02  0.76723728485E+02  0.00000000000E+00 0. -1.
         13    1    4    4    0    0  0.52764555403E+02 -0.49516893831E+02  0.82048328952E+02  0.10939812323E+03  0.00000000000E+00 0.  1.
         -1    1    1    2    0  502 -0.21209944316E+02 -0.56182593821E+01 -0.12448393584E+02  0.25226753243E+02  0.00000000000E+00 0.  1.
<scales pt_clust_5="13000.00000" pt_clust_6="13000.00000" pt_clust_7="13000.00000" pt_clust_8="13000.00000" pt_clust_9="13000.00000"></scales>
<clustering>
<clus scale="   88.756">  7  8 -1 -1</clus>
<clus scale="   21.941">  7  9 -1 -1</clus>
<clus scale="   90.177">  5  6 -1 -1</clus>
<clus scale="   99.468">  1  5  2 -1</clus>
<clus scale="  155.528">  2  5  1 -1</clus>
</clustering>
</event>
<event>
 9    1  0.3312826E-006  0.2933973E+03  0.7546771E-02  0.1128806E+00
         21   -1    0    0  501  502  0.00000000000E+00  0.00000000000E+00  0.31391445753E+03  0.31391445753E+03  0.00000000000E+00 0. -1.
          1   -1    0    0  502    0 -0.00000000000E+00 -0.00000000000E+00 -0.13750429414E+03  0.13750429414E+03  0.00000000000E+00 0. -1.
         23    2    1    2    0    0  0.41686286761E+02 -0.23938065884E+02 -0.72357945060E+01  0.10528608783E+03  0.93391788002E+02 0.  0.
         23    2    1    2    0    0  0.23777920265E+02 -0.82987744246E+02  0.26826324499E+01  0.12598176916E+03  0.91716162468E+02 0.  0.
        -11    1    3    3    0    0 -0.27546077051E+02 -0.40146114044E+01 -0.16950766657E+02  0.32591900158E+02  0.00000000000E+00 0.  1.
         11    1    3    3    0    0  0.69232363812E+02 -0.19923454480E+02  0.97149721513E+01  0.72694187672E+02  0.00000000000E+00 0. -1.
        -11    1    4    4    0    0  0.20538491237E+01 -0.20372049529E+02  0.43546211487E+02  0.48119759279E+02  0.00000000000E+00 0.  1.
         11    1    4    4    0    0  0.21724071141E+02 -0.62615694716E+02 -0.40863579037E+02  0.77862009886E+02  0.00000000000E+00 0. -1.
          1    1    1    2  501    0 -0.65464207026E+02  0.10692581013E+03  0.18096332545E+03  0.22015089468E+03  0.00000000000E+00 0. -1.
<scales pt_clust_5="13000.00000" pt_clust_6="13000.00000" pt_clust_7="13000.00000" pt_clust_8="13000.00000" pt_clust_9="13000.00000"></scales>
<clustering>
<clus scale="   91.716">  7  8 -1 -1</clus>
<clus scale="   93.392">  5  6 -1 -1</clus>
<clus scale="  105.037">  2  5  1 -1</clus>
<clus scale="  115.335">  7  9 -1 -1</clus>
<clus scale="  293.397">  1  5  2 -1</clus>
</clustering>
</event>
<event>
 9    1  0.3312826E-006  0.4574457E+03  0.7546771E-02  0.1031859E+00
         21   -1    0    0  501  502  0.00000000000E+00  0.00000000000E+00  0.44346920534E+03  0.44346920534E+03  0.00000000000E+00 0.  1.
          1   -1    0    0  502    0 -0.00000000000E+00 -0.00000000000E+00 -0.43556465138E+03  0.43556465138E+03  0.00000000000E+00 0. -1.
         23    2    1    2    0    0  0.91593092544E+02 -0.35658050633E+03 -0.13113379084E+03  0.40092482433E+03  0.89474530285E+02 0.  0.
         23    2    1    2    0    0  0.70473156953E+02  0.11482850898E+03  0.13077093611E+02  0.16097225707E+03  0.87114894504E+02 0.  0.
        -11    1    3    3    0    0  0.30962392410E+02 -0.20583496625E+03 -0.32019744596E+02  0.21059906723E+03  0.00000000000E+00 0. -1.
         11    1    3    3    0    0  0.60630700134E+02 -0.15074554008E+03 -0.99114046249E+02  0.19032575710E+03  0.00000000000E+00 0.  1.
        -11    1    4    4    0    0 -0.84235501333E+01  0.29742599504E+02 -0.24023295281E+02  0.39149676094E+02  0.00000000000E+00 0.  1.
         11    1    4    4    0    0  0.78896707086E+02  0.85085909472E+02  0.37100388893E+02  0.12182258098E+03  0.00000000000E+00 0. -1.
          1    1    1    2  501    0 -0.16206624950E+03  0.24175199735E+03  0.12596125119E+03  0.31713677531E+03  0.00000000000E+00 0. -1.
<scales pt_clust_5="13000.00000" pt_clust_6="13000.00000" pt_clust_7="13000.00000" pt_clust_8="13000.00000" pt_clust_9="13000.00000"></scales>
<clustering>
<clus scale="   87.115">  7  8 -1 -1</clus>
<clus scale="   89.475">  5  6 -1 -1</clus>
<clus scale="  291.049">  7  9 -1 -1</clus>
<clus scale="  378.873">  2  5  1 -1</clus>
<clus scale="  457.446">  1  5  2 -1</clus>
</clustering>
</event>
<event>
 9    1  0.3312826E-006  0.6627543E+03  0.7546771E-02  0.1023005E+00
          1   -1    0    0  502    0 -0.00000000000E+00  0.00000000000E+00  0.98714828393E+03  0.98714828393E+03  0.00000000000E+00 0. -1.
         21   -1    0    0  501  502  0.00000000000E+00 -0.00000000000E+00 -0.22313118043E+03  0.22313118043E+03  0.00000000000E+00 0. -1.
         23    2    1    2    0    0 -0.11478045500E+03 -0.69234415855E+02  0.44715184347E+03  0.47567286106E+03  0.91388962342E+02 0.  0.
         23    2    1    2    0    0 -0.27446097913E+02  0.81580387701E+02  0.49193940244E+03  0.50870447690E+03  0.96784405758E+02 0.  0.
        -11    1    3    3    0    0 -0.10494191638E+03 -0.86670478427E+02  0.42269234908E+03  0.44406463450E+03  0.00000000000E+00 0.  1.
         11    1    3    3    0    0 -0.98385386133E+01  0.17436062572E+02  0.24459494397E+02  0.31608226559E+02  0.00000000000E+00 0. -1.
        -13    1    4    4    0    0  0.32135803330E+02  0.33757753999E+02  0.26974631064E+03  0.27374325181E+03  0.00000000000E+00 0.  1.
         13    1    4    4    0    0 -0.59581901243E+02  0.47822633701E+02  0.22219309180E+03  0.23496122508E+03  0.00000000000E+00 0. -1.
          1    1    1    2  501    0  0.14222655291E+03 -0.12345971846E+02 -0.17507414241E+03  0.22590212640E+03  0.00000000000E+00 0. -1.
<scales pt_clust_5="13000.00000" pt_clust_6="13000.00000" pt_clust_7="13000.00000" pt_clust_8="13000.00000" pt_clust_9="13000.00000"></scales>
<clustering>
<clus scale="   91.389">  5  6 -1 -1</clus>
<clus scale="   96.784">  7  8 -1 -1</clus>
<clus scale="  142.761">  7  9 -1 -1</clus>
<clus scale="  162.234">  1  5  2 -1</clus>
<clus scale="  662.754">  2  5  1 -1</clus>
</clustering>
</event>
<event>
 9    1  0.3312826E-006  0.4571616E+03  0.7546771E-02  0.1044635E+00
          1   -1    0    0  502    0 -0.00000000000E+00  0.00000000000E+00  0.11722587935E+04  0.11722587935E+04  0.00000000000E+00 0. -1.
         21   -1    0    0  501  502  0.00000000000E+00 -0.00000000000E+00 -0.14009751293E+03  0.14009751293E+03  0.00000000000E+00 0. -1.
         23    2    1    2    0    0 -0.24497823398E+03  0.54950620446E+01  0.70014314998E+03  0.74734946447E+03  0.91028900639E+02 0.  0.
         23    2    1    2    0    0 -0.80356533709E+02 -0.32415016792E+02  0.13019966446E+03  0.18121251124E+03  0.91532047832E+02 0.  0.
        -11    1    3    3    0    0 -0.66443767392E+02  0.42610047297E+02  0.20135676931E+03  0.21627514629E+03  0.00000000000E+00 0. -1.
         11    1    3    3    0    0 -0.17853446659E+03 -0.37114985252E+02  0.49878638067E+03  0.53107431818E+03  0.00000000000E+00 0.  1.
        -13    1    4    4    0    0  0.13059909493E+02  0.15816518966E+02  0.26844419240E+02  0.33783817909E+02  0.00000000000E+00 0.  1.
         13    1    4    4    0    0 -0.93416443202E+02 -0.48231535758E+02  0.10335524522E+03  0.14742869333E+03  0.00000000000E+00 0. -1.
          1    1    1    2  501    0  0.32533476769E+03  0.26919954747E+02  0.20181846616E+03  0.38379433075E+03  0.00000000000E+00 0. -1.
<scales pt_clust_5="13000.00000" pt_clust_6="13000.00000" pt_clust_7="13000.00000" pt_clust_8="13000.00000" pt_clust_9="13000.00000"></scales>
<clustering>
<clus scale="   91.029">  5  6 -1 -1</clus>
<clus scale="   91.532">  7  8 -1 -1</clus>
<clus scale="  261.402">  1  5  2 -1</clus>
<clus scale="  168.193">  7  9 -1 -1</clus>
<clus scale="  457.162">  2  5  1 -1</clus>
</clustering>
</event>
<event>
 9    1  0.3312826E-006  0.2580176E+03  0.7546771E-02  0.1137337E+00
          1   -1    0    0  502    0 -0.00000000000E+00  0.00000000000E+00  0.39506048804E+03  0.39506048804E+03  0.00000000000E+00 0. -1.
         21   -1    0    0  501  502  0.00000000000E+00 -0.00000000000E+00 -0.11929225388E+03  0.11929225388E+03  0.00000000000E+00 0.  1.
         23    2    1    2    0    0  0.84967190699E+02  0.78952288002E+01  0.21560009058E+03  0.24941254047E+03  0.91877408278E+02 0.  0.
         23    2    1    2    0    0 -0.10380128582E+03  0.20487059020E+02 -0.52079577215E+02  0.14763790726E+03  0.88827038512E+02 0.  0.
        -13    1    3    3    0    0  0.35323179194E+02 -0.29245247424E+02  0.32791192609E+02  0.56376181122E+02  0.00000000000E+00 0.  1.
         13    1    3    3    0    0  0.49644011506E+02  0.37140476224E+02  0.18280889797E+03  0.19303635935E+03  0.00000000000E+00 0. -1.
        -13    1    4    4    0    0 -0.52343255319E+02  0.20920563900E+02 -0.72877870823E+02  0.92133980848E+02  0.00000000000E+00 0.  1.
         13    1    4    4    0    0 -0.51458030503E+02 -0.43350487976E+00  0.20798293609E+02  0.55503926408E+02  0.00000000000E+00 0. -1.
          1    1    1    2  501    0  0.18834095122E+02 -0.28382287820E+02  0.11224772080E+03  0.11730229420E+03  0.00000000000E+00 0. -1.
<scales pt_clust_5="13000.00000" pt_clust_6="13000.00000" pt_clust_7="13000.00000" pt_clust_8="13000.00000" pt_clust_9="13000.00000"></scales>
<clustering>
<clus scale="   88.827">  7  8 -1 -1</clus>
<clus scale="   34.063">  7  9 -1 -1</clus>
<clus scale="   91.877">  5  6 -1 -1</clus>
<clus scale="  125.392">  1  5  2 -1</clus>
<clus scale="  258.018">  2  5  1 -1</clus>
</clustering>
</event>
<event>
 9    1  0.3312826E-006  0.1414906E+03  0.7546771E-02  0.1229988E+00
         -1   -1    0    0    0  501 -0.00000000000E+00  0.00000000000E+00  0.69516552964E+02  0.69516552964E+02  0.00000000000E+00 0.  1.
         21   -1    0    0  501  502  0.00000000000E+00 -0.00000000000E+00 -0.40664965797E+03  0.40664965797E+03  0.00000000000E+00 0. -1.
         23    2    1    2    0    0 -0.27901857683E+02 -0.12179103209E+02  0.14832255503E+02  0.96825727782E+02  0.90710426855E+02 0.  0.
         23    2    1    2    0    0  0.24571015778E+02 -0.32757940298E+02 -0.22374538705E+03  0.24343318393E+03  0.86723118861E+02 0.  0.
        -11    1    3    3    0    0  0.20435776458E+02 -0.39382912113E+01 -0.25797067965E+02  0.33145434266E+02  0.00000000000E+00 0. -1.
         11    1    3    3    0    0 -0.48337634141E+02 -0.82408119980E+01  0.40629323469E+02  0.63680293516E+02  0.00000000000E+00 0.  1.
        -13    1    4    4    0    0  0.46153244849E+01 -0.41274247739E+02 -0.21666590932E+03  0.22061047348E+03  0.00000000000E+00 0. -1.
         13    1    4    4    0    0  0.19955691293E+02  0.85163074410E+01 -0.70794777227E+01  0.22822710449E+02  0.00000000000E+00 0.  1.
         -1    1    1    2    0  502  0.33308419053E+01  0.44937043507E+02 -0.12821997346E+03  0.13590729922E+03  0.00000000000E+00 0.  1.
<scales pt_clust_5="13000.00000" pt_clust_6="13000.00000" pt_clust_7="13000.00000" pt_clust_8="13000.00000" pt_clust_9="13000.00000"></scales>
<clustering>
<clus scale="   86.723">  7  8 -1 -1</clus>
<clus scale="   45.060">  7  9 -1 -1</clus>
<clus scale="   90.710">  5  6 -1 -1</clus>
<clus scale="   95.683">  1  5  2 -1</clus>
<clus scale="  141.491">  2  5  1 -1</clus>
</clustering>
</event>
<event>
 9    1  0.3312826E-006  0.1717914E+03  0.7546771E-02  0.1202088E+00
          2   -1    0    0  502    0 -0.00000000000E+00  0.00000000000E+00  0.17954291804E+03  0.17954291804E+03  0.00000000000E+00 0. -1.
         21   -1    0    0  501  502  0.00000000000E+00 -0.00000000000E+00 -0.10485424232E+03  0.10485424232E+03  0.00000000000E+00 0. -1.
         23    2    1    2    0    0  0.28756751445E+02  0.49924483239E+01 -0.15927166462E+01  0.96431344369E+02  0.91894461947E+02 0.  0.
         23    2    1    2    0    0 -0.43661973974E+02 -0.43872340885E+02  0.14407554093E+02  0.11338576794E+03  0.93902100568E+02 0.  0.
        -11    1    4    4    0    0 -0.67821213087E+02 -0.33897834327E+02  0.31555818788E+02  0.82125208164E+02  0.00000000000E+00 0. -1.
         11    1    4    4    0    0  0.24159239113E+02 -0.99745065583E+01 -0.17148264696E+02  0.31260559779E+02  0.00000000000E+00 0.  1.
        -13    1    3    3    0    0  0.36750224044E+02  0.43379216997E+02 -0.50017857052E+01  0.57073227478E+02  0.00000000000E+00 0.  1.
         13    1    3    3    0    0 -0.79934725991E+01 -0.38386768673E+02  0.34090690590E+01  0.39358116891E+02  0.00000000000E+00 0. -1.
          2    1    1    2  501    0  0.14905222529E+02  0.38879892561E+02  0.61873838274E+02  0.74580048049E+02  0.00000000000E+00 0. -1.
<scales pt_clust_5="13000.00000" pt_clust_6="13000.00000" pt_clust_7="13000.00000" pt_clust_8="13000.00000" pt_clust_9="13000.00000"></scales>
<clustering>
<clus scale="   91.894">  7  8 -1 -1</clus>
<clus scale="   93.902">  5  6 -1 -1</clus>
<clus scale="   41.639">  5  9 -1 -1</clus>
<clus scale="   96.418">  1  7  2 -1</clus>
<clus scale="  171.791">  2  5  1 -1</clus>
</clustering>
</event>
<event>
 9    1  0.3312826E-006  0.2753947E+03  0.7546771E-02  0.1127947E+00
         21   -1    0    0  501  502  0.00000000000E+00  0.00000000000E+00  0.24789336852E+03  0.24789336852E+03  0.00000000000E+00 0. -1.
          3   -1    0    0  502    0 -0.00000000000E+00 -0.00000000000E+00 -0.56353639567E+03  0.56353639567E+03  0.00000000000E+00 0. -1.
         23    2    1    2    0    0  0.77207937585E+02 -0.49567208617E+02 -0.47558394636E+03  0.49295945115E+03  0.91711267833E+02 0.  0.
         23    2    1    2    0    0  0.15358051742E+02  0.76993662225E+02 -0.12687915764E+02  0.12067904073E+03  0.90766479980E+02 0.  0.
        -11    1    3    3    0    0  0.27933530592E+02  0.26884109713E+02 -0.14071713879E+03  0.14596009946E+03  0.00000000000E+00 0.  1.
         11    1    3    3    0    0  0.49274406993E+02 -0.76451318330E+02 -0.33486680757E+03  0.34699935169E+03  0.00000000000E+00 0. -1.
        -11    1    4    4    0    0 -0.36197566850E+02  0.19624027520E+02 -0.14136614247E+02  0.43534011580E+02  0.00000000000E+00 0.  1.
         11    1    4    4    0    0  0.51555618591E+02  0.57369634706E+02  0.14486984829E+01  0.77145029146E+02  0.00000000000E+00 0. -1.
          3    1    1    2  501    0 -0.92565989327E+02 -0.27426453609E+02  0.17262883498E+03  0.19779127231E+03  0.00000000000E+00 0. -1.
<scales pt_clust_5="13000.00000" pt_clust_6="13000.00000" pt_clust_7="13000.00000" pt_clust_8="13000.00000" pt_clust_9="13000.00000"></scales>
<clustering>
<clus scale="   90.766">  7  8 -1 -1</clus>
<clus scale="   91.711">  5  6 -1 -1</clus>
<clus scale="   96.544">  7  9 -1 -1</clus>
<clus scale="  129.726">  2  5  1 -1</clus>
<clus scale="  275.395">  1  5  2 -1</clus>
</clustering>
</event>
<event>
 9    1  0.3312826E-006  0.1833532E+03  0.7546771E-02  0.1184362E+00
         21   -1    0    0  501  502  0.00000000000E+00  0.00000000000E+00  0.21231807237E+03  0.21231807237E+03  0.00000000000E+00 0. -1.
          2   -1    0    0  502    0 -0.00000000000E+00 -0.00000000000E+00 -0.17572780213E+03  0.17572780213E+03  0.00000000000E+00 0. -1.
         23    2    1    2    0    0 -0.46830633157E+02 -0.53544636080E+02 -0.10431518746E+03  0.15680411161E+03  0.92982443664E+02 0.  0.
         23    2    1    2    0    0  0.47590604640E+02 -0.14110117933E+02  0.11914309709E+03  0.16016895771E+03  0.94842270909E+02 0.  0.
        -11    1    3    3    0    0 -0.63004526660E+02 -0.11077742501E+02 -0.87411872170E+02  0.10831953727E+03  0.00000000000E+00 0.  1.
         11    1    3    3    0    0  0.16173893503E+02 -0.42466893579E+02 -0.16903315288E+02  0.48484574341E+02  0.00000000000E+00 0. -1.
        -13    1    4    4    0    0  0.23095020761E+02  0.85902939626E+01 -0.10137228589E+02  0.26644634315E+02  0.00000000000E+00 0.  1.
         13    1    4    4    0    0  0.24495583879E+02 -0.22700411896E+02  0.12928032568E+03  0.13352432339E+03  0.00000000000E+00 0. -1.
          2    1    1    2  501    0 -0.75997148340E+00  0.67654754013E+02  0.21762360609E+02  0.71072805183E+02  0.00000000000E+00 0. -1.
<scales pt_clust_5="13000.00000" pt_clust_6="13000.00000" pt_clust_7="13000.00000" pt_clust_8="13000.00000" pt_clust_9="13000.00000"></scales>
<clustering>
<clus scale="   92.982">  5  6 -1 -1</clus>
<clus scale="   94.842">  7  8 -1 -1</clus>
<clus scale="   67.659">  7  9 -1 -1</clus>
<clus scale="  117.072">  2  5  1 -1</clus>
<clus scale="  183.353">  1  5  2 -1</clus>
</clustering>
</event>
<event>
 9    1  0.3312826E-006  0.2725394E+03  0.7546771E-02  0.1137772E+00
          3   -1    0    0  502    0 -0.00000000000E+00  0.00000000000E+00  0.10929210843E+03  0.10929210843E+03  0.00000000000E+00 0. -1.
         21   -1    0    0  501  502  0.00000000000E+00 -0.00000000000E+00 -0.34911808595E+03  0.34911808595E+03  0.00000000000E+00 0.  1.
         23    2    1    2    0    0  0.51765782231E+02 -0.35044360836E+01 -0.12294990369E+03  0.16186721910E+03  0.91609718486E+02 0.  0.
         23    2    1    2    0    0 -0.86175780673E+02 -0.69493151369E+02  0.11808870395E+02  0.14464659403E+03  0.92345137844E+02 0.  0.
        -11    1    3    3    0    0  0.65288305535E+02 -0.32242543001E+02 -0.76672616289E+02  0.10573946523E+03  0.00000000000E+00 0. -1.
         11    1    3    3    0    0 -0.13522523304E+02  0.28738106917E+02 -0.46277287399E+02  0.56127753872E+02  0.00000000000E+00 0.  1.
        -11    1    4    4    0    0 -0.68544538121E+02 -0.49907677755E+02 -0.34360021177E+02  0.91486288921E+02  0.00000000000E+00 0.  1.
         11    1    4    4    0    0 -0.17631242552E+02 -0.19585473614E+02  0.46168891572E+02  0.53160305112E+02  0.00000000000E+00 0. -1.
          3    1    1    2  501    0  0.34409998442E+02  0.72997587452E+02 -0.12868494422E+03  0.15189638125E+03  0.00000000000E+00 0. -1.
<scales pt_clust_5="13000.00000" pt_clust_6="13000.00000" pt_clust_7="13000.00000" pt_clust_8="13000.00000" pt_clust_9="13000.00000"></scales>
<clustering>
<clus scale="   91.610">  5  6 -1 -1</clus>
<clus scale="   92.345">  7  8 -1 -1</clus>
<clus scale="   80.701">  7  9 -1 -1</clus>
<clus scale="  105.282">  1  5  2 -1</clus>
<clus scale="  272.539">  2  5  1 -1</clus>
</clustering>
</event>
<event>
 9    1  0.3312826E-006  0.5615731E+03  0.7546771E-02  0.1057308E+00
         21   -1    0    0  501  502  0.00000000000E+00  0.00000000000E+00  0.76955204922E+02  0.76955204922E+02  0.00000000000E+00 0. -1.
          1   -1    0    0  502    0 -0.00000000000E+00 -0.00000000000E+00 -0.14197089576E+04  0.14197089576E+04  0.00000000000E+00 0. -1.
         23    2    1    2    0    0  0.24086549720E+02 -0.26463780475E+02 -0.23386408643E+03  0.25368363726E+03  0.91555902803E+02 0.  0.
         23    2    1    2    0    0  0.18506371739E+03  0.16435008875E+03 -0.31846560864E+03  0.41380825180E+03  0.92506184658E+02 0.  0.
        -11    1    3    3    0    0  0.42655096071E+02 -0.48691882592E+02 -0.12175434378E+03  0.13789299069E+03  0.00000000000E+00 0.  1.
         11    1    3    3    0    0 -0.18568546350E+02  0.22228102117E+02 -0.11210974265E+03  0.11579064657E+03  0.00000000000E+00 0. -1.
        -13    1    4    4    0    0  0.14430154199E+03  0.74932369359E+02 -0.16559660889E+03  0.23207764191E+03  0.00000000000E+00 0. -1.
         13    1    4    4    0    0  0.40762175401E+02  0.89417719394E+02 -0.15286899975E+03  0.18173060989E+03  0.00000000000E+00 0.  1.
          1    1    1    2  501    0 -0.20915026711E+03 -0.13788630828E+03 -0.79042405762E+03  0.82917227348E+03  0.00000000000E+00 0. -1.
<scales pt_clust_5="13000.00000" pt_clust_6="13000.00000" pt_clust_7="13000.00000" pt_clust_8="13000.00000" pt_clust_9="13000.00000"></scales>
<clustering>
<clus scale="   91.556">  5  6 -1 -1</clus>
<clus scale="   92.506">  7  8 -1 -1</clus>
<clus scale="   98.300">  2  5  1 -1</clus>
<clus scale="  247.893">  7  9 -1 -1</clus>
<clus scale="  561.573">  1  5  2 -1</clus>
</clustering>
</event>
<event>
 9    1  0.3312826E-006  0.1970439E+03  0.7546771E-02  0.1183289E+00
         21   -1    0    0  501  502  0.00000000000E+00  0.00000000000E+00  0.29879837534E+03  0.29879837534E+03  0.00000000000E+00 0.  1.
          1   -1    0    0  502    0 -0.00000000000E+00 -0.00000000000E+00 -0.79460736038E+02  0.79460736038E+02  0.00000000000E+00 0. -1.
         23    2    1    2    0    0 -0.84238406666E+01 -0.17594743540E+02  0.21382510689E+02  0.98951878420E+02  0.94624132163E+02 0.  0.
         23    2    1    2    0    0 -0.39499345510E+02  0.60489901271E+02  0.69319100663E+02  0.13548840938E+03  0.91283869916E+02 0.  0.
        -11    1    3    3    0    0  0.28244643785E+02 -0.12767812259E+02  0.45312955641E+02  0.54900281250E+02  0.00000000000E+00 0.  1.
         11    1    3    3    0    0 -0.36668484452E+02 -0.48269312814E+01 -0.23930444952E+02  0.44051597170E+02  0.00000000000E+00 0. -1.
        -11    1    4    4    0    0  0.47529064335E+01 -0.20498838476E+02  0.17655764979E+01  0.21116575452E+02  0.00000000000E+00 0. -1.
         11    1    4    4    0    0 -0.44252251944E+02  0.80988739747E+02  0.67553524165E+02  0.11437183392E+03  0.00000000000E+00 0.  1.
          1    1    1    2  501    0  0.47923186177E+02 -0.42895157731E+02  0.12863602795E+03  0.14381882358E+03  0.00000000000E+00 0. -1.
<scales pt_clust_5="13000.00000" pt_clust_6="13000.00000" pt_clust_7="13000.00000" pt_clust_8="13000.00000" pt_clust_9="13000.00000"></scales>
<clustering>
<clus scale="   91.284">  7  8 -1 -1</clus>
<clus scale="   64.317">  7  9 -1 -1</clus>
<clus scale="   94.624">  5  6 -1 -1</clus>
<clus scale="   96.614">  2  5  1 -1</clus>
<clus scale="  197.044">  1  5  2 -1</clus>
</clustering>
</event>
<event>
 9    1  0.3312826E-006  0.1877304E+03  0.7546771E-02  0.1178954E+00
         21   -1    0    0  501  502  0.00000000000E+00  0.00000000000E+00  0.75236906706E+02  0.75236906706E+02  0.00000000000E+00 0.  1.
          2   -1    0    0  502    0 -0.00000000000E+00 -0.00000000000E+00 -0.43603103683E+03  0.43603103683E+03  0.00000000000E+00 0. -1.
         23    2    1    2    0    0  0.74630399878E+02  0.32004239094E+02 -0.28193033120E+03  0.30764521336E+03  0.92557537485E+02 0.  0.
         23    2    1    2    0    0 -0.10758962643E+02  0.30730240065E+02 -0.32226652445E+02  0.10267621562E+03  0.91889853600E+02 0.  0.
        -13    1    4    4    0    0 -0.38424954682E+02  0.34013040887E+02 -0.48334033415E+02  0.70494984778E+02  0.00000000000E+00 0. -1.
         13    1    4    4    0    0  0.27665992039E+02 -0.32828008223E+01  0.16107380970E+02  0.32181230841E+02  0.00000000000E+00 0.  1.
        -13    1    3    3    0    0  0.50239264046E+02 -0.26086528956E+02 -0.17030804592E+03  0.17946955494E+03  0.00000000000E+00 0. -1.
         13    1    3    3    0    0  0.24391135832E+02  0.58090768050E+02 -0.11162228528E+03  0.12817565841E+03  0.00000000000E+00 0.  1.
          2    1    1    2  501    0 -0.63871437235E+02 -0.62734479159E+02 -0.46637146479E+02  0.10094651456E+03  0.00000000000E+00 0. -1.
<scales pt_clust_5="13000.00000" pt_clust_6="13000.00000" pt_clust_7="13000.00000" pt_clust_8="13000.00000" pt_clust_9="13000.00000"></scales>
<clustering>
<clus scale="   91.890">  5  6 -1 -1</clus>
<clus scale="   89.528">  5  9 -1 -1</clus>
<clus scale="   92.558">  7  8 -1 -1</clus>
<clus scale="  123.129">  2  7  1 -1</clus>
<clus scale="  187.730">  1  5  2 -1</clus>
</clustering>
</event>
<event>
 9    1  0.3312826E-006  0.3136422E+03  0.7546771E-02  0.1116114E+00
          1   -1    0    0  502    0 -0.00000000000E+00  0.00000000000E+00  0.38452540121E+03  0.38452540121E+03  0.00000000000E+00 0. -1.
         21   -1    0    0  501  502  0.00000000000E+00 -0.00000000000E+00 -0.13625909553E+03  0.13625909553E+03  0.00000000000E+00 0. -1.
         23    2    1    2    0    0 -0.64351161889E+02 -0.39445151851E+02  0.15262859015E+03  0.19288508484E+03  0.90621064768E+02 0.  0.
         23    2    1    2    0    0  0.16652596507E+03 -0.14705434301E+02  0.24229670205E+02  0.19199104085E+03  0.91248758925E+02 0.  0.
        -11    1    4    4    0    0  0.40846454122E+02  0.30698462274E+02  0.28084703648E+02  0.58305908614E+02  0.00000000000E+00 0.  1.
         11    1    4    4    0    0  0.12567951095E+03 -0.45403896575E+02 -0.38550334428E+01  0.13368513223E+03  0.00000000000E+00 0. -1.
        -13    1    3    3    0    0 -0.35256721293E+02  0.21121872361E+02  0.23559251691E+02  0.47373074933E+02  0.00000000000E+00 0. -1.
         13    1    3    3    0    0 -0.29094440596E+02 -0.60567024212E+02  0.12906933846E+03  0.14551200990E+03  0.00000000000E+00 0.  1.
          1    1    1    2  501    0 -0.10217480318E+03  0.54150586152E+02  0.71408045325E+02  0.13590837106E+03  0.00000000000E+00 0. -1.
<scales pt_clust_5="13000.00000" pt_clust_6="13000.00000" pt_clust_7="13000.00000" pt_clust_8="13000.00000" pt_clust_9="13000.00000"></scales>
<clustering>
<clus scale="   90.621">  7  8 -1 -1</clus>
<clus scale="   91.249">  5  6 -1 -1</clus>
<clus scale="  115.637">  5  9 -1 -1</clus>
<clus scale="  117.937">  1  7  2 -1</clus>
<clus scale="  313.642">  2  5  1 -1</clus>
</clustering>
</event>
<event>
 9    1  0.3312826E-006  0.2423642E+03  0.7546771E-02  0.1139548E+00
          3   -1    0    0  502    0 -0.00000000000E+00  0.00000000000E+00  0.10756225328E+03  0.10756225328E+03  0.00000000000E+00 0. -1.
         21   -1    0    0  501  502  0.00000000000E+00 -0.00000000000E+00 -0.35921270190E+03  0.35921270190E+03  0.00000000000E+00 0. -1.
         23    2    1    2    0    0 -0.79702931880E+02 -0.77400366574E+02 -0.51264841287E+02  0.15229955849E+03  0.90684604353E+02 0.  0.
         23    2    1    2    0    0  0.41508282346E+02 -0.47320605994E+02 -0.10475338576E+03  0.15273587137E+03  0.91612211632E+02 0.  0.
        -11    1    4    4    0    0 -0.15072675239E+02 -0.27814744937E+02  0.51878796840E+00  0.31640396895E+02  0.00000000000E+00 0.  1.
         11    1    4    4    0    0  0.56580957585E+02 -0.19505861058E+02 -0.10527217373E+03  0.12109547447E+03  0.00000000000E+00 0. -1.
        -11    1    3    3    0    0 -0.17246930812E+02 -0.43613820542E+02  0.20641154736E+02  0.51241382041E+02  0.00000000000E+00 0.  1.
         11    1    3    3    0    0 -0.62456001068E+02 -0.33786546032E+02 -0.71905996023E+02  0.10105817644E+03  0.00000000000E+00 0. -1.
          3    1    1    2  501    0  0.38194649534E+02  0.12472097257E+03 -0.95632221570E+02  0.16173952533E+03  0.00000000000E+00 0. -1.
<scales pt_clust_5="13000.00000" pt_clust_6="13000.00000" pt_clust_7="13000.00000" pt_clust_8="13000.00000" pt_clust_9="13000.00000"></scales>
<clustering>
<clus scale="   90.685">  7  8 -1 -1</clus>
<clus scale="   91.612">  5  6 -1 -1</clus>
<clus scale="  130.438">  5  9 -1 -1</clus>
<clus scale="  143.412">  1  7  2 -1</clus>
<clus scale="  242.364">  2  5  1 -1</clus>
</clustering>
</event>
<event>
 9    1  0.3312826E-006  0.2550734E+03  0.7546771E-02  0.1151566E+00
          1   -1    0    0  502    0 -0.00000000000E+00  0.00000000000E+00  0.33020498481E+03  0.33020498481E+03  0.00000000000E+00 0. -1.
         21   -1    0    0  501  502  0.00000000000E+00 -0.00000000000E+00 -0.91533189376E+02  0.91533189376E+02  0.00000000000E+00 0. -1.
         23    2    1    2    0    0 -0.19027721017E+02  0.26881604120E+01  0.71275600271E+02  0.11664161044E+03  0.90309322438E+02 0.  0.
         23    2    1    2    0    0  0.59591239986E+02  0.18730596736E+02  0.21396719390E+03  0.23972822161E+03  0.88236664920E+02 0.  0.
        -11    1    4    4    0    0  0.72049209701E+02  0.19374848223E+01  0.20439720778E+03  0.21673269484E+03  0.00000000000E+00 0. -1.
         11    1    4    4    0    0 -0.12457969715E+02  0.16793111914E+02  0.95699861204E+01  0.22995526772E+02  0.00000000000E+00 0.  1.
        -13    1    3    3    0    0 -0.32935935394E+02 -0.37319922269E+02  0.34674976040E+02  0.60662232087E+02  0.00000000000E+00 0.  1.
         13    1    3    3    0    0  0.13908214378E+02  0.40008082681E+02  0.36600624231E+02  0.55979378355E+02  0.00000000000E+00 0. -1.
          1    1    1    2  501    0 -0.40563518969E+02 -0.21418757148E+02 -0.46570998738E+02  0.65368342127E+02  0.00000000000E+00 0. -1.
<scales pt_clust_5="13000.00000" pt_clust_6="13000.00000" pt_clust_7="13000.00000" pt_clust_8="13000.00000" pt_clust_9="13000.00000"></scales>
<clustering>
<clus scale="   88.237">  5  6 -1 -1</clus>
<clus scale="   45.871">  5  9 -1 -1</clus>
<clus scale="   90.309">  7  8 -1 -1</clus>
<clus scale="   92.331">  1  7  2 -1</clus>
<clus scale="  255.073">  2  5  1 -1</clus>
</clustering>
</event>
<event>
 9    1  0.3312826E-006  0.5024432E+03  0.7546771E-02  0.1063724E+00
         21   -1    0    0  501  502  0.00000000000E+00  0.00000000000E+00  0.31955294961E+03  0.31955294961E+03  0.00000000000E+00 0.  1.
          1   -1    0    0  502    0 -0.00000000000E+00 -0.00000000000E+00 -0.58578649849E+03  0.58578649849E+03  0.00000000000E+00 0. -1.
         23    2    1    2    0    0 -0.45351542039E+02  0.50175387451E+02 -0.37423352893E+03  0.39142003964E+03  0.92653016058E+02 0.  0.
         23    2    1    2    0    0 -0.89517076750E+02  0.28324354711E+02  0.26320645156E+03  0.29382669469E+03  0.90779481541E+02 0.  0.
        -11    1    3    3    0    0  0.38758761954E+01  0.54634234769E+02 -0.11327948651E+03  0.12582592773E+03  0.00000000000E+00 0.  1.
         11    1    3    3    0    0 -0.49227418234E+02 -0.44588473181E+01 -0.26095404243E+03  0.26559411192E+03  0.00000000000E+00 0. -1.
        -13    1    4    4    0    0 -0.54545959155E+02  0.57987987743E+02  0.20367373259E+03  0.21867980641E+03  0.00000000000E+00 0.  1.
         13    1    4    4    0    0 -0.34971117595E+02 -0.29663633032E+02  0.59532718968E+02  0.75146888280E+02  0.00000000000E+00 0. -1.
          1    1    1    2  501    0  0.13486861879E+03 -0.78499742163E+02 -0.15520647151E+03  0.22009271376E+03  0.00000000000E+00 0. -1.
<scales pt_clust_5="13000.00000" pt_clust_6="13000.00000" pt_clust_7="13000.00000" pt_clust_8="13000.00000" pt_clust_9="13000.00000"></scales>
<clustering>
<clus scale="   90.779">  7  8 -1 -1</clus>
<clus scale="   92.653">  5  6 -1 -1</clus>
<clus scale="  114.712">  2  5  1 -1</clus>
<clus scale="   98.329">  7  9 -1 -1</clus>
<clus scale="  502.443">  1  5  2 -1</clus>
</clustering>
</event>
<event>
 9    1  0.3312826E-006  0.1821902E+03  0.7546771E-02  0.1194361E+00
         -3   -1    0    0    0  501 -0.00000000000E+00  0.00000000000E+00  0.84531101623E+02  0.84531101623E+02  0.00000000000E+00 0.  1.
         21   -1    0    0  501  502  0.00000000000E+00 -0.00000000000E+00 -0.33189616892E+03  0.33189616892E+03  0.00000000000E+00 0.  1.
         23    2    1    2    0    0  0.25731595013E+02 -0.98205049827E+01  0.15190128127E+02  0.96851778868E+02  0.91602236749E+02 0.  0.
         23    2    1    2    0    0  0.10832869513E+02 -0.29445699272E+02 -0.69787827642E+02  0.11948038193E+03  0.91765028803E+02 0.  0.
        -13    1    3    3    0    0 -0.23005946870E+02  0.19627747432E+02 -0.13466877605E+02  0.33104060975E+02  0.00000000000E+00 0. -1.
         13    1    3    3    0    0  0.48737541882E+02 -0.29448252415E+02  0.28657005732E+02  0.63747717893E+02  0.00000000000E+00 0.  1.
        -13    1    4    4    0    0  0.10665754652E+01 -0.61865123697E+02 -0.53989049718E+02  0.82117285651E+02  0.00000000000E+00 0.  1.
         13    1    4    4    0    0  0.97662940483E+01  0.32419424425E+02 -0.15798777925E+02  0.37363096277E+02  0.00000000000E+00 0. -1.
         -3    1    1    2    0  502 -0.36564464526E+02  0.39266204255E+02 -0.19276736778E+03  0.20009510974E+03  0.00000000000E+00 0.  1.
<scales pt_clust_5="13000.00000" pt_clust_6="13000.00000" pt_clust_7="13000.00000" pt_clust_8="13000.00000" pt_clust_9="13000.00000"></scales>
<clustering>
<clus scale="   91.602">  5  6 -1 -1</clus>
<clus scale="   91.765">  7  8 -1 -1</clus>
<clus scale="   53.654">  7  9 -1 -1</clus>
<clus scale="   95.653">  1  5  2 -1</clus>
<clus scale="  182.190">  2  5  1 -1</clus>
</clustering>
</event>
<event>
 9    1  0.3312826E-006  0.2472610E+03  0.7546771E-02  0.1134242E+00
          1   -1    0    0  502    0 -0.00000000000E+00  0.00000000000E+00  0.78102109781E+03  0.78102109781E+03  0.00000000000E+00 0. -1.
         21   -1    0    0  501  502  0.00000000000E+00 -0.00000000000E+00 -0.61582288231E+02  0.61582288231E+02  0.00000000000E+00 0. -1.
         23    2    1    2    0    0 -0.12171630284E+03 -0.17807912251E+02  0.12248005544E+03  0.19646272313E+03  0.92001399345E+02 0.  0.
         23    2    1    2    0    0 -0.19620050326E+02  0.47699413053E+02  0.22050146074E+03  0.24291670492E+03  0.87905921075E+02 0.  0.
        -11    1    3    3    0    0 -0.27369497291E+02  0.31118414399E+02  0.11959220985E+02  0.43133143442E+02  0.00000000000E+00 0.  1.
         11    1    3    3    0    0 -0.94346805553E+02 -0.48926326651E+02  0.11052083446E+03  0.15332957969E+03  0.00000000000E+00 0. -1.
        -11    1    4    4    0    0 -0.44583149693E+02  0.54281174254E+02  0.11901322887E+03  0.13819642456E+03  0.00000000000E+00 0.  1.
         11    1    4    4    0    0  0.24963099367E+02 -0.65817612009E+01  0.10148823187E+03  0.10472028036E+03  0.00000000000E+00 0. -1.
          1    1    1    2  501    0  0.14133635317E+03 -0.29891500802E+02  0.37645729339E+03  0.40322395799E+03  0.00000000000E+00 0. -1.
<scales pt_clust_5="13000.00000" pt_clust_6="13000.00000" pt_clust_7="13000.00000" pt_clust_8="13000.00000" pt_clust_9="13000.00000"></scales>
<clustering>
<clus scale="   87.906">  7  8 -1 -1</clus>
<clus scale="   92.001">  5  6 -1 -1</clus>
<clus scale="  144.463">  7  9 -1 -1</clus>
<clus scale="  153.611">  1  5  2 -1</clus>
<clus scale="  247.261">  2  5  1 -1</clus>
</clustering>
</event>
<event>
 9    1  0.3312826E-006  0.4134203E+03  0.7546771E-02  0.1093309E+00
          1   -1    0    0  502    0 -0.00000000000E+00  0.00000000000E+00  0.62248442816E+03  0.62248442816E+03  0.00000000000E+00 0. -1.
         21   -1    0    0  501  502  0.00000000000E+00 -0.00000000000E+00 -0.10306412027E+03  0.10306412027E+03  0.00000000000E+00 0. -1.
         23    2    1    2    0    0 -0.13664672726E+01 -0.93260067061E+00  0.10876721543E+03  0.14283735372E+03  0.92571407506E+02 0.  0.
         23    2    1    2    0    0 -0.94974421150E+02 -0.44859680785E+02  0.44735709489E+03  0.46990302295E+03  0.98223973647E+02 0.  0.
        -11    1    4    4    0    0  0.17835574029E+02 -0.12004348837E+02  0.12422785913E+03  0.12607447433E+03  0.00000000000E+00 0.  1.
         11    1    4    4    0    0 -0.11280999518E+03 -0.32855331949E+02  0.32312923575E+03  0.34382854862E+03  0.00000000000E+00 0. -1.
        -11    1    3    3    0    0  0.79527372034E+01  0.44022952162E+02  0.39167540936E+02  0.59458915304E+02  0.00000000000E+00 0.  1.
         11    1    3    3    0    0 -0.93192044760E+01 -0.44955552833E+02  0.69599674493E+02  0.83378438413E+02  0.00000000000E+00 0. -1.
          1    1    1    2  501    0  0.96340888422E+02  0.45792281456E+02 -0.36704002432E+02  0.11280817177E+03  0.00000000000E+00 0. -1.
<scales pt_clust_5="13000.00000" pt_clust_6="13000.00000" pt_clust_7="13000.00000" pt_clust_8="13000.00000" pt_clust_9="13000.00000"></scales>
<clustering>
<clus scale="   92.571">  7  8 -1 -1</clus>
<clus scale="   92.586">  1  7  2 -1</clus>
<clus scale="   98.224">  5  6 -1 -1</clus>
<clus scale="  106.545">  5  9 -1 -1</clus>
<clus scale="  413.420">  2  5  1 -1</clus>
</clustering>
</event>
<event>
 9    1  0.3312826E-006  0.2456547E+03  0.7546771E-02  0.1134795E+00
         21   -1    0    0  501  502  0.00000000000E+00  0.00000000000E+00  0.95987777109E+02  0.95987777109E+02  0.00000000000E+00 0. -1.
          1   -1    0    0  502    0 -0.00000000000E+00 -0.00000000000E+00 -0.50590669310E+03  0.50590669310E+03  0.00000000000E+00 0. -1.
         23    2    1    2    0    0 -0.86839454620E+02 -0.10158090251E+03 -0.28982209384E+03  0.32845439945E+03  0.77625226570E+02 0.  0.
         23    2    1    2    0    0  0.43959131813E+02 -0.28769283172E+02 -0.29765694088E+02  0.10915493544E+03  0.90932537972E+02 0.  0.
        -11    1    4    4    0    0  0.20707938612E+02 -0.36462652425E+02  0.25240374396E+02  0.48943030587E+02  0.00000000000E+00 0. -1.
         11    1    4    4    0    0  0.23251193201E+02  0.76933692531E+01 -0.55006068484E+02  0.60211904851E+02  0.00000000000E+00 0.  1.
        -13    1    3    3    0    0 -0.91141433020E+02 -0.78537386951E+02 -0.27638225741E+03  0.30143329971E+03  0.00000000000E+00 0. -1.
         13    1    3    3    0    0  0.43019783991E+01 -0.23043515563E+02 -0.13439836437E+02  0.27021099739E+02  0.00000000000E+00 0.  1.
          1    1    1    2  501    0  0.42880322807E+02  0.13035018569E+03 -0.90331128059E+02  0.16428513532E+03  0.00000000000E+00 0. -1.
<scales pt_clust_5="13000.00000" pt_clust_6="13000.00000" pt_clust_7="13000.00000" pt_clust_8="13000.00000" pt_clust_9="13000.00000"></scales>
<clustering>
<clus scale="   77.625">  7  8 -1 -1</clus>
<clus scale="   90.933">  5  6 -1 -1</clus>
<clus scale="  137.222">  5  9 -1 -1</clus>
<clus scale="  154.549">  2  7  1 -1</clus>
<clus scale="  245.655">  1  5  2 -1</clus>
</clustering>
</event>
<event>
 9    1  0.3312826E-006  0.1992612E+03  0.7546771E-02  0.1177943E+00
         21   -1    0    0  501  502  0.00000000000E+00  0.00000000000E+00  0.19341541137E+03  0.19341541137E+03  0.00000000000E+00 0.  1.
         -1   -1    0    0    0  501 -0.00000000000E+00 -0.00000000000E+00 -0.18915861756E+03  0.18915861756E+03  0.00000000000E+00 0.  1.
         23    2    1    2    0    0 -0.34295238658E+02 -0.40188864618E+02 -0.11047023077E+03  0.15264513514E+03  0.91134829571E+02 0.  0.
         23    2    1    2    0    0  0.31050273808E+02  0.84056125118E+02  0.13091242063E+03  0.18305850457E+03  0.91338943209E+02 0.  0.
        -11    1    3    3    0    0 -0.23548964033E+02  0.22000061099E+02 -0.71616614311E+02  0.78533405890E+02  0.00000000000E+00 0.  1.
         11    1    3    3    0    0 -0.10746274625E+02 -0.62188925717E+02 -0.38853616460E+02  0.74111729248E+02  0.00000000000E+00 0. -1.
        -11    1    4    4    0    0  0.58489295223E+02  0.58309521836E+02  0.57717877294E+02  0.10075887728E+03  0.00000000000E+00 0.  1.
         11    1    4    4    0    0 -0.27439021416E+02  0.25746603282E+02  0.73194543340E+02  0.82299627287E+02  0.00000000000E+00 0. -1.
         -1    1    1    2    0  502  0.32449648500E+01 -0.43867260500E+02 -0.16185396053E+02  0.46870389224E+02  0.00000000000E+00 0.  1.
<scales pt_clust_5="13000.00000" pt_clust_6="13000.00000" pt_clust_7="13000.00000" pt_clust_8="13000.00000" pt_clust_9="13000.00000"></scales>
<clustering>
<clus scale="   91.135">  5  6 -1 -1</clus>
<clus scale="   91.339">  7  8 -1 -1</clus>
<clus scale="   43.987">  7  9 -1 -1</clus>
<clus scale="  105.342">  2  5  1 -1</clus>
<clus scale="  199.261">  1  5  2 -1</clus>
</clustering>
</event>
<event>
 9    1  0.3312826E-006  0.1591547E+03  0.7546771E-02  0.1214620E+00
         21   -1    0    0  501  502  0.00000000000E+00  0.00000000000E+00  0.28422901446E+03  0.28422901446E+03  0.00000000000E+00 0. -1.
         -1   -1    0    0    0  501 -0.00000000000E+00 -0.00000000000E+00 -0.20157451306E+03  0.20157451306E+03  0.00000000000E+00 0.  1.
         23    2    1    2    0    0  0.14398717817E+02  0.35451694070E+01 -0.16625544021E+03  0.19036087359E+03  0.91523218335E+02 0.  0.
         23    2    1    2    0    0  0.35249700595E+01  0.38624907553E+02  0.22136751218E+03  0.24198089753E+03  0.89704350079E+02 0.  0.
        -11    1    4    4    0    0  0.16220608114E+02  0.65752345481E+02  0.15719310595E+03  0.17116118609E+03  0.00000000000E+00 0. -1.
         11    1    4    4    0    0 -0.12695638054E+02 -0.27127437928E+02  0.64174406233E+02  0.70819711448E+02  0.00000000000E+00 0.  1.
        -11    1    3    3    0    0  0.41702337715E+02 -0.23560871766E+02 -0.12542530518E+03  0.13425984816E+03  0.00000000000E+00 0.  1.
         11    1    3    3    0    0 -0.27303619898E+02  0.27106041173E+02 -0.40830135030E+02  0.56101025429E+02  0.00000000000E+00 0. -1.
         -1    1    1    2    0  502 -0.17923687877E+02 -0.42170076961E+02  0.27542429420E+02  0.53461756390E+02  0.00000000000E+00 0.  1.
<scales pt_clust_5="13000.00000" pt_clust_6="13000.00000" pt_clust_7="13000.00000" pt_clust_8="13000.00000" pt_clust_9="13000.00000"></scales>
<clustering>
<clus scale="   89.704">  5  6 -1 -1</clus>
<clus scale="   45.821">  5  9 -1 -1</clus>
<clus scale="   91.523">  7  8 -1 -1</clus>
<clus scale="   92.717">  2  7  1 -1</clus>
<clus scale="  159.155">  1  5  2 -1</clus>
</clustering>
</event>
<event>
 9    1  0.3312826E-006  0.2597502E+03  0.7546771E-02  0.1147800E+00
         21   -1    0    0  501  502  0.00000000000E+00  0.00000000000E+00  0.23763321210E+03  0.23763321210E+03  0.00000000000E+00 0. -1.
         -1   -1    0    0    0  501 -0.00000000000E+00 -0.00000000000E+00 -0.40695007887E+03  0.40695007887E+03  0.00000000000E+00 0.  1.
         23    2    1    2    0    0 -0.19817245850E+02 -0.13256133777E+02 -0.32702075435E+03  0.34070716456E+03  0.92576184254E+02 0.  0.
         23    2    1    2    0    0  0.84820772583E+02 -0.77563613219E+02  0.10416879749E+03  0.18002262100E+03  0.91358240693E+02 0.  0.
        -11    1    4    4    0    0  0.76092814330E+02 -0.27191396116E+02  0.10023328947E+03  0.12874859507E+03  0.00000000000E+00 0. -1.
         11    1    4    4    0    0  0.87279582521E+01 -0.50372217103E+02  0.39355080243E+01  0.51274025925E+02  0.00000000000E+00 0.  1.
        -13    1    3    3    0    0 -0.55804468294E+02 -0.17234408891E+02 -0.17735770769E+03  0.18672685936E+03  0.00000000000E+00 0.  1.
         13    1    3    3    0    0  0.35987222445E+02  0.39782751141E+01 -0.14966304666E+03  0.15398030520E+03  0.00000000000E+00 0. -1.
         -1    1    1    2    0  502 -0.65003526733E+02  0.90819746996E+02  0.53535090091E+02  0.12385350541E+03  0.00000000000E+00 0.  1.
<scales pt_clust_5="13000.00000" pt_clust_6="13000.00000" pt_clust_7="13000.00000" pt_clust_8="13000.00000" pt_clust_9="13000.00000"></scales>
<clustering>
<clus scale="   91.358">  5  6 -1 -1</clus>
<clus scale="   92.576">  7  8 -1 -1</clus>
<clus scale="   95.597">  2  7  1 -1</clus>
<clus scale="  112.634">  5  9 -1 -1</clus>
<clus scale="  259.750">  1  5  2 -1</clus>
</clustering>
</event>
<event>
 9    1  0.3312826E-006  0.5086126E+03  0.7546771E-02  0.1059313E+00
         -3   -1    0    0    0  501 -0.00000000000E+00  0.00000000000E+00  0.34933459513E+03  0.34933459513E+03  0.00000000000E+00 0.  1.
         21   -1    0    0  501  502  0.00000000000E+00 -0.00000000000E+00 -0.30601615574E+03  0.30601615574E+03  0.00000000000E+00 0.  1.
         23    2    1    2    0    0 -0.76882120038E+02 -0.38339841600E+02  0.74850206747E+02  0.14576163275E+03  0.90901574782E+02 0.  0.
         23    2    1    2    0    0 -0.65522549937E+02  0.68228503116E+02  0.19714505286E+03  0.23854390007E+03  0.95334606545E+02 0.  0.
        -13    1    3    3    0    0 -0.61542834926E+02 -0.67798931836E+02  0.59281940816E+02  0.10908053995E+03  0.00000000000E+00 0.  1.
         13    1    3    3    0    0 -0.15339285112E+02  0.29459090236E+02  0.15568265931E+02  0.36681092805E+02  0.00000000000E+00 0. -1.
        -13    1    4    4    0    0 -0.51089128955E+02  0.91378879866E+02  0.13632694085E+03  0.17188726999E+03  0.00000000000E+00 0.  1.
         13    1    4    4    0    0 -0.14433420983E+02 -0.23150376751E+02  0.60818112017E+02  0.66656630085E+02  0.00000000000E+00 0. -1.
         -3    1    1    2    0  502  0.14240466998E+03 -0.29888661516E+02 -0.22867682022E+03  0.27104521805E+03  0.00000000000E+00 0.  1.
<scales pt_clust_5="13000.00000" pt_clust_6="13000.00000" pt_clust_7="13000.00000" pt_clust_8="13000.00000" pt_clust_9="13000.00000"></scales>
<clustering>
<clus scale="   90.902">  5  6 -1 -1</clus>
<clus scale="   95.335">  7  8 -1 -1</clus>
<clus scale="  125.076">  1  5  2 -1</clus>
<clus scale="  139.617">  7  9 -1 -1</clus>
<clus scale="  508.613">  2  5  1 -1</clus>
</clustering>
</event>
<event>
 9    1  0.3312826E-006  0.1298576E+03  0.7546771E-02  0.1245252E+00
         21   -1    0    0  501  502  0.00000000000E+00  0.00000000000E+00  0.77222043505E+03  0.77222043505E+03  0.00000000000E+00 0.  1.
         -2   -1    0    0    0  501 -0.00000000000E+00 -0.00000000000E+00 -0.20340070329E+02  0.20340070329E+02  0.00000000000E+00 0.  1.
         23    2    1    2    0    0 -0.17907748385E+02 -0.66396394470E+01  0.13816850605E+03  0.16526054293E+03  0.88632605289E+02 0.  0.
         23    2    1    2    0    0 -0.21231383560E+02  0.17921121751E+02  0.39967425856E+03  0.40942101039E+03  0.84345198660E+02 0.  0.
        -11    1    3    3    0    0  0.18537235971E+02  0.29268745078E+02  0.30932503433E+02  0.46444680260E+02  0.00000000000E+00 0.  1.
         11    1    3    3    0    0 -0.36444984356E+02 -0.35908384525E+02  0.10723600262E+03  0.11881586267E+03  0.00000000000E+00 0. -1.
        -13    1    4    4    0    0  0.13751464554E+02  0.42788483151E+02  0.17466170144E+03  0.18035150961E+03  0.00000000000E+00 0.  1.
         13    1    4    4    0    0 -0.34982848114E+02 -0.24867361399E+02  0.22501255712E+03  0.22906950078E+03  0.00000000000E+00 0. -1.
         -2    1    1    2    0  502  0.39139131945E+02 -0.11281482304E+02  0.21403760011E+03  0.21787895207E+03  0.00000000000E+00 0.  1.
<scales pt_clust_5="13000.00000" pt_clust_6="13000.00000" pt_clust_7="13000.00000" pt_clust_8="13000.00000" pt_clust_9="13000.00000"></scales>
<clustering>
<clus scale="   84.345">  7  8 -1 -1</clus>
<clus scale="   40.733">  7  9 -1 -1</clus>
<clus scale="   88.633">  5  6 -1 -1</clus>
<clus scale="   90.667">  2  5  1 -1</clus>
<clus scale="  129.858">  1  5  2 -1</clus>
</clustering>
</event>
<event>
 9    1  0.3312826E-006  0.1836848E+03  0.7546771E-02  0.1178676E+00
         21   -1    0    0  501  502  0.00000000000E+00  0.00000000000E+00  0.15132711663E+03  0.15132711663E+03  0.00000000000E+00 0.  1.
          2   -1    0    0  502    0 -0.00000000000E+00 -0.00000000000E+00 -0.22004655405E+03  0.22004655405E+03  0.00000000000E+00 0. -1.
         23    2    1    2    0    0 -0.92236073916E+02  0.26917134941E+02  0.61842963347E+02  0.14601477164E+03  0.90905093024E+02 0.  0.
         23    2    1    2    0    0  0.77792131049E+02  0.23378049238E+02 -0.12203487951E+03  0.17234049038E+03  0.90612272728E+02 0.  0.
        -11    1    3    3    0    0 -0.40465034206E+02  0.53145835742E+02  0.87704126595E+01  0.67370757664E+02  0.00000000000E+00 0. -1.
         11    1    3    3    0    0 -0.51771039711E+02 -0.26228700801E+02  0.53072550688E+02  0.78644013980E+02  0.00000000000E+00 0.  1.
        -13    1    4    4    0    0 -0.16136003060E+02  0.16597636685E+02 -0.81009572574E+01  0.24525041219E+02  0.00000000000E+00 0.  1.
         13    1    4    4    0    0  0.93928134109E+02  0.67804125530E+01 -0.11393392226E+03  0.14781544917E+03  0.00000000000E+00 0. -1.
          2    1    1    2  501    0  0.14443942868E+02 -0.50295184179E+02 -0.85275212549E+01  0.53018408651E+02  0.00000000000E+00 0. -1.
<scales pt_clust_5="13000.00000" pt_clust_6="13000.00000" pt_clust_7="13000.00000" pt_clust_8="13000.00000" pt_clust_9="13000.00000"></scales>
<clustering>
<clus scale="   90.612">  7  8 -1 -1</clus>
<clus scale="   52.328">  7  9 -1 -1</clus>
<clus scale="   90.905">  5  6 -1 -1</clus>
<clus scale="  132.272">  2  5  1 -1</clus>
<clus scale="  183.685">  1  5  2 -1</clus>
</clustering>
</event>
<event>
 9    1  0.3312826E-006  0.4340885E+03  0.7546771E-02  0.1079548E+00
         -1   -1    0    0    0  501 -0.00000000000E+00  0.00000000000E+00  0.10953475268E+04  0.10953475268E+04  0.00000000000E+00 0.  1.
         21   -1    0    0  501  502  0.00000000000E+00 -0.00000000000E+00 -0.70561425908E+02  0.70561425908E+02  0.00000000000E+00 0.  1.
         23    2    1    2    0    0 -0.52328721714E+02  0.51314493442E+02  0.29536422049E+03  0.31709266165E+03  0.89085694552E+02 0.  0.
         23    2    1    2    0    0 -0.74064624292E+02 -0.17162732266E+03  0.58868771700E+03  0.62463654278E+03  0.93145455988E+02 0.  0.
        -11    1    3    3    0    0 -0.21109318372E+02  0.72104997577E+02  0.16236223559E+03  0.17890284946E+03  0.00000000000E+00 0.  1.
         11    1    3    3    0    0 -0.31219403342E+02 -0.20790504134E+02  0.13300198490E+03  0.13818981219E+03  0.00000000000E+00 0. -1.
        -13    1    4    4    0    0 -0.18042517172E+02 -0.27994485953E+02  0.29190576026E+02  0.44286718082E+02  0.00000000000E+00 0. -1.
         13    1    4    4    0    0 -0.56022107120E+02 -0.14363283670E+03  0.55949714098E+03  0.58034982470E+03  0.00000000000E+00 0.  1.
         -1    1    1    2    0  502  0.12639334601E+03  0.12031282922E+03  0.14073416339E+03  0.22417974827E+03  0.00000000000E+00 0.  1.
<scales pt_clust_5="13000.00000" pt_clust_6="13000.00000" pt_clust_7="13000.00000" pt_clust_8="13000.00000" pt_clust_9="13000.00000"></scales>
<clustering>
<clus scale="   89.086">  5  6 -1 -1</clus>
<clus scale="   93.145">  7  8 -1 -1</clus>
<clus scale="  115.359">  1  5  2 -1</clus>
<clus scale="  174.740">  7  9 -1 -1</clus>
<clus scale="  434.088">  2  5  1 -1</clus>
</clustering>
</event>
<event>
 9    1  0.3312826E-006  0.4320029E+03  0.7546771E-02  0.1085228E+00
         21   -1    0    0  501  502  0.00000000000E+00  0.00000000000E+00  0.24099592039E+03  0.24099592039E+03  0.00000000000E+00 0.  1.
          2   -1    0    0  502    0 -0.00000000000E+00 -0.00000000000E+00 -0.31802262950E+03  0.31802262950E+03  0.00000000000E+00 0. -1.
         23    2    1    2    0    0 -0.37730604214E+02 -0.20819178490E+02 -0.77667260819E+02  0.12701519179E+03  0.90794376777E+02 0.  0.
         23    2    1    2    0    0  0.15539718132E+03 -0.60754287166E+02 -0.13673224329E+03  0.23358224413E+03  0.89585663171E+02 0.  0.
        -11    1    3    3    0    0 -0.24199979145E+02 -0.56972750427E+02 -0.47765102496E+02  0.78185921356E+02  0.00000000000E+00 0.  1.
         11    1    3    3    0    0 -0.13530625069E+02  0.36153571937E+02 -0.29902158324E+02  0.48829270432E+02  0.00000000000E+00 0. -1.
        -13    1    4    4    0    0  0.11121739916E+03 -0.39755148813E+02 -0.39154882420E+02  0.12443024773E+03  0.00000000000E+00 0.  1.
         13    1    4    4    0    0  0.44179782156E+02 -0.20999138354E+02 -0.97577360866E+02  0.10915199639E+03  0.00000000000E+00 0. -1.
          2    1    1    2  501    0 -0.11766657710E+03  0.81573465657E+02  0.13737279499E+03  0.19842111398E+03  0.00000000000E+00 0. -1.
<scales pt_clust_5="13000.00000" pt_clust_6="13000.00000" pt_clust_7="13000.00000" pt_clust_8="13000.00000" pt_clust_9="13000.00000"></scales>
<clustering>
<clus scale="   89.586">  7  8 -1 -1</clus>
<clus scale="   90.794">  5  6 -1 -1</clus>
<clus scale="  100.502">  2  5  1 -1</clus>
<clus scale="  145.989">  7  9 -1 -1</clus>
<clus scale="  432.003">  1  5  2 -1</clus>
</clustering>
</event>
<event>
 9    1  0.3312826E-006  0.2360635E+03  0.7546771E-02  0.1141630E+00
          1   -1    0    0  502    0 -0.00000000000E+00  0.00000000000E+00  0.16989268995E+03  0.16989268995E+03  0.00000000000E+00 0. -1.
         21   -1    0    0  501  502  0.00000000000E+00 -0.00000000000E+00 -0.25922267079E+03  0.25922267079E+03  0.00000000000E+00 0. -1.
         23    2    1    2    0    0  0.10567659928E+03 -0.43015579303E+02  0.48970764335E+02  0.15552246882E+03  0.93654785515E+02 0.  0.
         23    2    1    2    0    0 -0.52076037038E+02 -0.25677058097E+02  0.38125988261E+01  0.10689585760E+03  0.89671419729E+02 0.  0.
        -11    1    4    4    0    0 -0.77149766126E+02 -0.18424181808E+02 -0.46533485209E+01  0.79455588482E+02  0.00000000000E+00 0.  1.
         11    1    4    4    0    0  0.25073729087E+02 -0.72528762894E+01  0.84659473470E+01  0.27440269119E+02  0.00000000000E+00 0. -1.
        -13    1    3    3    0    0  0.77505366350E+02  0.42338806040E+01  0.61585063038E+02  0.99084446546E+02  0.00000000000E+00 0. -1.
         13    1    3    3    0    0  0.28171232933E+02 -0.47249459907E+02 -0.12614298704E+02  0.56438022274E+02  0.00000000000E+00 0.  1.
          1    1    1    2  501    0 -0.53600562244E+02  0.68692637400E+02 -0.14211334400E+03  0.16669703431E+03  0.00000000000E+00 0. -1.
<scales pt_clust_5="13000.00000" pt_clust_6="13000.00000" pt_clust_7="13000.00000" pt_clust_8="13000.00000" pt_clust_9="13000.00000"></scales>
<clustering>
<clus scale="   89.671">  5  6 -1 -1</clus>
<clus scale="   87.130">  5  9 -1 -1</clus>
<clus scale="   93.655">  7  8 -1 -1</clus>
<clus scale="  147.611">  1  7  2 -1</clus>
<clus scale="  236.063">  2  5  1 -1</clus>
</clustering>
</event>
<event>
 9    1  0.3312826E-006  0.1407005E+03  0.7546771E-02  0.1226519E+00
          2   -1    0    0  502    0 -0.00000000000E+00  0.00000000000E+00  0.10652882675E+03  0.10652882675E+03  0.00000000000E+00 0. -1.
         21   -1    0    0  501  502  0.00000000000E+00 -0.00000000000E+00 -0.17578534254E+03  0.17578534254E+03  0.00000000000E+00 0. -1.
         23    2    1    2    0    0  0.32546984230E+02  0.30336851599E+02  0.31574829738E+02  0.10921424996E+03  0.94610526764E+02 0.  0.
         23    2    1    2    0    0 -0.52118744801E+02 -0.17734421096E+02 -0.51067995338E+02  0.11816117080E+03  0.91231841407E+02 0.  0.
        -11    1    4    4    0    0 -0.37724285129E+02 -0.53026381054E+02 -0.17540248597E+02  0.67398657977E+02  0.00000000000E+00 0.  1.
         11    1    4    4    0    0 -0.14394459673E+02  0.35291959959E+02 -0.33527746740E+02  0.50762512826E+02  0.00000000000E+00 0. -1.
        -13    1    3    3    0    0  0.69239725986E+01 -0.23058859256E+02  0.42636733059E+02  0.48964715792E+02  0.00000000000E+00 0.  1.
         13    1    3    3    0    0  0.25623011632E+02  0.53395710855E+02 -0.11061903320E+02  0.60249534171E+02  0.00000000000E+00 0. -1.
          2    1    1    2  501    0  0.19571760571E+02 -0.12602430504E+02 -0.49763350189E+02  0.54938748516E+02  0.00000000000E+00 0. -1.
<scales pt_clust_5="13000.00000" pt_clust_6="13000.00000" pt_clust_7="13000.00000" pt_clust_8="13000.00000" pt_clust_9="13000.00000"></scales>
<clustering>
<clus scale="   91.232">  5  6 -1 -1</clus>
<clus scale="   23.278">  5  9 -1 -1</clus>
<clus scale="   94.611">  7  8 -1 -1</clus>
<clus scale="  104.550">  1  7  2 -1</clus>
<clus scale="  140.700">  2  5  1 -1</clus>
</clustering>
</event>
<event>
 9    1  0.3312826E-006  0.3540768E+03  0.7546771E-02  0.1090477E+00
         21   -1    0    0  501  502  0.00000000000E+00  0.00000000000E+00  0.27561809368E+03  0.27561809368E+03  0.00000000000E+00 0.  1.
         -3   -1    0    0    0  501 -0.00000000000E+00 -0.00000000000E+00 -0.23881884654E+03  0.23881884654E+03  0.00000000000E+00 0.  1.
         23    2    1    2    0    0  0.12964317224E+03 -0.12350282393E+02  0.40215275779E+01  0.15884619204E+03  0.90862855210E+02 0.  0.
         23    2    1    2    0    0 -0.83967779173E+02  0.73015746563E+02 -0.11861077219E+03  0.18622423582E+03  0.90714185996E+02 0.  0.
        -11    1    3    3    0    0  0.81303479975E+02  0.23287684793E+02 -0.30104412670E+02  0.89771085441E+02  0.00000000000E+00 0.  1.
         11    1    3    3    0    0  0.48339692269E+02 -0.35637967186E+02  0.34125940248E+02  0.69075106598E+02  0.00000000000E+00 0. -1.
        -11    1    4    4    0    0 -0.15076121695E+02  0.71437044585E+02 -0.75028641139E+02  0.10468924384E+03  0.00000000000E+00 0.  1.
         11    1    4    4    0    0 -0.68891657478E+02  0.15787019775E+01 -0.43582131051E+02  0.81534991978E+02  0.00000000000E+00 0. -1.
         -3    1    1    2    0  502 -0.45675393071E+02 -0.60665464170E+02  0.15138849175E+03  0.16936651236E+03  0.00000000000E+00 0.  1.
<scales pt_clust_5="13000.00000" pt_clust_6="13000.00000" pt_clust_7="13000.00000" pt_clust_8="13000.00000" pt_clust_9="13000.00000"></scales>
<clustering>
<clus scale="   90.714">  7  8 -1 -1</clus>
<clus scale="   75.938">  7  9 -1 -1</clus>
<clus scale="   90.863">  5  6 -1 -1</clus>
<clus scale="  158.795">  2  5  1 -1</clus>
<clus scale="  354.077">  1  5  2 -1</clus>
</clustering>
</event>
<event>
 9    1  0.3312826E-006  0.5231462E+03  0.7546771E-02  0.1041656E+00
          3   -1    0    0  502    0 -0.00000000000E+00  0.00000000000E+00  0.13958530451E+04  0.13958530451E+04  0.00000000000E+00 0. -1.
         21   -1    0    0  501  502  0.00000000000E+00 -0.00000000000E+00 -0.12501330389E+03  0.12501330389E+03  0.00000000000E+00 0. -1.
         23    2    1    2    0    0  0.12105371352E+03  0.11707159513E+03  0.78231464708E+03  0.80508793161E+03  0.88264435888E+02 0.  0.
         23    2    1    2    0    0 -0.26731798197E+03  0.50644501822E+02  0.35414045415E+03  0.45581465668E+03  0.91256621312E+02 0.  0.
        -11    1    4    4    0    0 -0.99039947368E+02  0.58255523716E+02  0.17988277564E+03  0.21344889362E+03  0.00000000000E+00 0.  1.
         11    1    4    4    0    0 -0.16827803460E+03 -0.76110218935E+01  0.17425767852E+03  0.24236576306E+03  0.00000000000E+00 0. -1.
        -13    1    3    3    0    0  0.69717769600E+02  0.21826139738E+02  0.44171179475E+03  0.44771224843E+03  0.00000000000E+00 0.  1.
         13    1    3    3    0    0  0.51335943917E+02  0.95245455395E+02  0.34060285233E+03  0.35737568318E+03  0.00000000000E+00 0. -1.
          3    1    1    2  501    0  0.14626426845E+03 -0.16771609696E+03  0.13438463993E+03  0.25996376065E+03  0.00000000000E+00 0. -1.
<scales pt_clust_5="13000.00000" pt_clust_6="13000.00000" pt_clust_7="13000.00000" pt_clust_8="13000.00000" pt_clust_9="13000.00000"></scales>
<clustering>
<clus scale="   88.264">  7  8 -1 -1</clus>
<clus scale="   91.257">  5  6 -1 -1</clus>
<clus scale="  190.133">  1  7  2 -1</clus>
<clus scale="  226.494">  5  9 -1 -1</clus>
<clus scale="  523.146">  2  5  1 -1</clus>
</clustering>
</event>
<event>
 9    1  0.3312826E-006  0.3436535E+03  0.7546771E-02  0.1108945E+00
         21   -1    0    0  501  502  0.00000000000E+00  0.00000000000E+00  0.90966101740E+02  0.90966101740E+02  0.00000000000E+00 0. -1.
          1   -1    0    0  502    0 -0.00000000000E+00 -0.00000000000E+00 -0.57070739989E+03  0.57070739989E+03  0.00000000000E+00 0. -1.
         23    2    1    2    0    0  0.27697659361E+02  0.48154105862E+02 -0.15654501146E+03  0.18991763591E+03  0.92067310013E+02 0.  0.
         23    2    1    2    0    0 -0.15197238473E+03 -0.11811819107E+02 -0.28701602732E+03  0.33731636133E+03  0.90382536399E+02 0.  0.
        -11    1    4    4    0    0 -0.14653365180E+03  0.13187663731E+02 -0.26692323338E+03  0.30478523275E+03  0.00000000000E+00 0. -1.
         11    1    4    4    0    0 -0.54387329370E+01 -0.24999482839E+02 -0.20092793946E+02  0.32531128580E+02  0.00000000000E+00 0.  1.
        -13    1    3    3    0    0  0.45898305050E+02 -0.46620500186E+01 -0.41617757405E+02  0.62132333356E+02  0.00000000000E+00 0. -1.
         13    1    3    3    0    0 -0.18200645689E+02  0.52816155880E+02 -0.11492725405E+03  0.12778530255E+03  0.00000000000E+00 0.  1.
          1    1    1    2  501    0  0.12427472537E+03 -0.36342286754E+02 -0.36180259370E+02  0.13443950439E+03  0.00000000000E+00 0. -1.
<scales pt_clust_5="13000.00000" pt_clust_6="13000.00000" pt_clust_7="13000.00000" pt_clust_8="13000.00000" pt_clust_9="13000.00000"></scales>
<clustering>
<clus scale="   90.383">  5  6 -1 -1</clus>
<clus scale="   92.067">  7  8 -1 -1</clus>
<clus scale="  107.528">  2  7  1 -1</clus>
<clus scale="  132.791">  5  9 -1 -1</clus>
<clus scale="  343.654">  1  5  2 -1</clus>
</clustering>
</event>
<event>
 9    1  0.3312826E-006  0.4312141E+03  0.7546771E-02  0.1073684E+00
          2   -1    0    0  502    0 -0.00000000000E+00  0.00000000000E+00  0.42407881875E+03  0.42407881875E+03  0.00000000000E+00 0. -1.
         21   -1    0    0  501  502  0.00000000000E+00 -0.00000000000E+00 -0.23921362770E+03  0.23921362770E+03  0.00000000000E+00 0.  1.
         23    2    1    2    0    0  0.99770478094E+02  0.18685269574E+02  0.18661747397E+03  0.23207480227E+03  0.93430962010E+02 0.  0.
         23    2    1    2    0    0 -0.18243987079E+03  0.12247297637E+03 -0.78392974520E+02  0.25056971451E+03  0.91409993889E+02 0.  0.
        -13    1    4    4    0    0 -0.59180290814E+02  0.63597455222E+02  0.10632366471E+02  0.87521370809E+02  0.00000000000E+00 0. -1.
         13    1    4    4    0    0 -0.12325957997E+03  0.58875521145E+02 -0.89025340991E+02  0.16304834370E+03  0.00000000000E+00 0.  1.
        -13    1    3    3    0    0  0.78480141369E+02  0.26699458142E+01  0.18964719829E+03  0.20526159168E+03  0.00000000000E+00 0.  1.
         13    1    3    3    0    0  0.21290336725E+02  0.16015323760E+02 -0.30297243194E+01  0.26813210595E+02  0.00000000000E+00 0. -1.
          2    1    1    2  501    0  0.82669392694E+02 -0.14115824594E+03  0.76640691599E+02  0.18064792967E+03  0.00000000000E+00 0. -1.
<scales pt_clust_5="13000.00000" pt_clust_6="13000.00000" pt_clust_7="13000.00000" pt_clust_8="13000.00000" pt_clust_9="13000.00000"></scales>
<clustering>
<clus scale="   91.410">  5  6 -1 -1</clus>
<clus scale="   93.431">  7  8 -1 -1</clus>
<clus scale="  137.959">  1  7  2 -1</clus>
<clus scale="  192.821">  5  9 -1 -1</clus>
<clus scale="  431.214">  2  5  1 -1</clus>
</clustering>
</event>
<event>
 9    1  0.3312826E-006  0.1446838E+03  0.7546771E-02  0.1222414E+00
          2   -1    0    0  502    0 -0.00000000000E+00  0.00000000000E+00  0.66165372177E+03  0.66165372177E+03  0.00000000000E+00 0. -1.
         21   -1    0    0  501  502  0.00000000000E+00 -0.00000000000E+00 -0.38981632852E+02  0.38981632852E+02  0.00000000000E+00 0.  1.
         23    2    1    2    0    0 -0.32748749033E+02  0.43893366126E+02  0.62256228224E+02  0.12184408959E+03  0.89280658943E+02 0.  0.
         23    2    1    2    0    0  0.14579078813E+02 -0.25043963791E+02  0.51246405567E+03  0.52415782757E+03  0.10621803136E+03 0.  0.
        -11    1    4    4    0    0 -0.17834276954E+02 -0.59890848425E+02  0.28608090672E+03  0.29282633138E+03  0.00000000000E+00 0.  1.
         11    1    4    4    0    0  0.32413355767E+02  0.34846884633E+02  0.22638314895E+03  0.23133149619E+03  0.00000000000E+00 0. -1.
        -11    1    3    3    0    0 -0.47025693050E+02  0.64400087269E+02  0.46706861679E+02  0.92413840819E+02  0.00000000000E+00 0. -1.
         11    1    3    3    0    0  0.14276944017E+02 -0.20506721143E+02  0.15549366545E+02  0.29430248767E+02  0.00000000000E+00 0.  1.
          2    1    1    2  501    0  0.18169670220E+02 -0.18849402335E+02  0.47951805018E+02  0.54633437461E+02  0.00000000000E+00 0. -1.
<scales pt_clust_5="13000.00000" pt_clust_6="13000.00000" pt_clust_7="13000.00000" pt_clust_8="13000.00000" pt_clust_9="13000.00000"></scales>
<clustering>
<clus scale="   89.281">  7  8 -1 -1</clus>
<clus scale="  104.739">  1  7  2 -1</clus>
<clus scale="  106.218">  5  6 -1 -1</clus>
<clus scale="   21.298">  5  9 -1 -1</clus>
<clus scale="  144.684">  2  5  1 -1</clus>
</clustering>
</event>
<event>
 9    1  0.3312826E-006  0.3389052E+03  0.7546771E-02  0.1085060E+00
         21   -1    0    0  501  502  0.00000000000E+00  0.00000000000E+00  0.26142316395E+03  0.26142316395E+03  0.00000000000E+00 0. -1.
          1   -1    0    0  502    0 -0.00000000000E+00 -0.00000000000E+00 -0.32927941274E+03  0.32927941274E+03  0.00000000000E+00 0. -1.
         23    2    1    2    0    0 -0.15801054902E+03 -0.10077182410E+03  0.76072705139E+02  0.22250113958E+03  0.92722200754E+02 0.  0.
         23    2    1    2    0    0  0.30463562170E+01  0.14724587605E-01 -0.15981603045E+03  0.18267975819E+03  0.88438961781E+02 0.  0.
        -11    1    3    3    0    0 -0.14067108478E+03 -0.41377396640E+02  0.45785753201E+02  0.15361242867E+03  0.00000000000E+00 0. -1.
         11    1    3    3    0    0 -0.17339464245E+02 -0.59394427459E+02  0.30286951939E+02  0.68888710913E+02  0.00000000000E+00 0.  1.
        -11    1    4    4    0    0  0.30391994885E+02  0.79735270050E+01 -0.14510315458E+02  0.34609243573E+02  0.00000000000E+00 0. -1.
         11    1    4    4    0    0 -0.27345638668E+02 -0.79588024174E+01 -0.14530571499E+03  0.14807051461E+03  0.00000000000E+00 0.  1.
          1    1    1    2  501    0  0.15496419280E+03  0.10075709951E+03  0.15887076517E+02  0.18552167893E+03  0.00000000000E+00 0. -1.
<scales pt_clust_5="13000.00000" pt_clust_6="13000.00000" pt_clust_7="13000.00000" pt_clust_8="13000.00000" pt_clust_9="13000.00000"></scales>
<clustering>
<clus scale="   88.439">  7  8 -1 -1</clus>
<clus scale="   92.722">  5  6 -1 -1</clus>
<clus scale="  184.840">  7  9 -1 -1</clus>
<clus scale="  209.093">  2  5  1 -1</clus>
<clus scale="  338.905">  1  5  2 -1</clus>
</clustering>
</event>
<event>
 9    1  0.3312826E-006  0.1373224E+03  0.7546771E-02  0.1232143E+00
         21   -1    0    0  501  502  0.00000000000E+00  0.00000000000E+00  0.48909201738E+02  0.48909201738E+02  0.00000000000E+00 0.  1.
          1   -1    0    0  502    0 -0.00000000000E+00 -0.00000000000E+00 -0.37514489396E+03  0.37514489396E+03  0.00000000000E+00 0. -1.
         23    2    1    2    0    0 -0.40061028735E+02 -0.27818200359E+02 -0.24460587758E+03  0.26430156000E+03  0.87433065683E+02 0.  0.
         23    2    1    2    0    0  0.29587933249E+02 -0.78652037652E+01 -0.76415779746E+02  0.12220020929E+03  0.90311751899E+02 0.  0.
        -13    1    3    3    0    0  0.21327753994E+02 -0.24426838432E+02 -0.45175610053E+02  0.55609165341E+02  0.00000000000E+00 0.  1.
         13    1    3    3    0    0 -0.61388782729E+02 -0.33913619271E+01 -0.19943026753E+03  0.20869239466E+03  0.00000000000E+00 0. -1.
        -13    1    4    4    0    0  0.71163555891E+01 -0.36042247514E+02 -0.77900836722E+02  0.86129126807E+02  0.00000000000E+00 0.  1.
         13    1    4    4    0    0  0.22471577660E+02  0.28177043748E+02  0.14850569759E+01  0.36071082478E+02  0.00000000000E+00 0. -1.
          1    1    1    2  501    0  0.10473095486E+02  0.35683404124E+02 -0.52140348879E+01  0.37552326409E+02  0.00000000000E+00 0. -1.
<scales pt_clust_5="13000.00000" pt_clust_6="13000.00000" pt_clust_7="13000.00000" pt_clust_8="13000.00000" pt_clust_9="13000.00000"></scales>
<clustering>
<clus scale="   87.433">  5  6 -1 -1</clus>
<clus scale="   90.312">  7  8 -1 -1</clus>
<clus scale="   37.189">  7  9 -1 -1</clus>
<clus scale="  100.116">  2  5  1 -1</clus>
<clus scale="  137.322">  1  5  2 -1</clus>
</clustering>
</event>
<event>
 9    1  0.3312826E-006  0.2006640E+03  0.7546771E-02  0.1183551E+00
         -4   -1    0    0    0  501 -0.00000000000E+00  0.00000000000E+00  0.74083938360E+02  0.74083938360E+02  0.00000000000E+00 0.  1.
         21   -1    0    0  501  502  0.00000000000E+00 -0.00000000000E+00 -0.28759267089E+03  0.28759267089E+03  0.00000000000E+00 0.  1.
         23    2    1    2    0    0 -0.20276743998E+02  0.35437847273E+01 -0.74551882403E+02  0.11759657468E+03  0.88584798068E+02 0.  0.
         23    2    1    2    0    0 -0.63970029235E+02 -0.16396025677E+01 -0.56454354221E+02  0.12614867089E+03  0.92906082251E+02 0.  0.
        -11    1    3    3    0    0 -0.37994277455E+02 -0.32635962299E+02 -0.34715347809E+02  0.60941172683E+02  0.00000000000E+00 0.  1.
         11    1    3    3    0    0  0.17717533457E+02  0.36179747026E+02 -0.39836534595E+02  0.56655401995E+02  0.00000000000E+00 0. -1.
        -13    1    4    4    0    0 -0.66612349896E+02  0.35015802875E+02 -0.44866332715E+02  0.87614493213E+02  0.00000000000E+00 0.  1.
         13    1    4    4    0    0  0.26423206605E+01 -0.36655405443E+02 -0.11588021505E+02  0.38534177675E+02  0.00000000000E+00 0. -1.
         -4    1    1    2    0  502  0.84246773233E+02 -0.19041821596E+01 -0.82502495905E+02  0.11793136368E+03  0.00000000000E+00 0.  1.
<scales pt_clust_5="13000.00000" pt_clust_6="13000.00000" pt_clust_7="13000.00000" pt_clust_8="13000.00000" pt_clust_9="13000.00000"></scales>
<clustering>
<clus scale="   88.585">  5  6 -1 -1</clus>
<clus scale="   90.945">  1  5  2 -1</clus>
<clus scale="   92.906">  7  8 -1 -1</clus>
<clus scale="   77.416">  7  9 -1 -1</clus>
<clus scale="  200.664">  2  5  1 -1</clus>
</clustering>
</event>
<event>
 9    1  0.3312826E-006  0.3471930E+03  0.7546771E-02  0.1106306E+00
         -1   -1    0    0    0  501 -0.00000000000E+00  0.00000000000E+00  0.94532657877E+03  0.94532657877E+03  0.00000000000E+00 0.  1.
         21   -1    0    0  501  502  0.00000000000E+00 -0.00000000000E+00 -0.91966591787E+02  0.91966591787E+02  0.00000000000E+00 0.  1.
         23    2    1    2    0    0 -0.60375314311E+02 -0.20999818092E+02  0.59279244154E+03  0.60319819593E+03  0.91427642892E+02 0.  0.
         23    2    1    2    0    0  0.17040582425E+02 -0.13653869640E+03  0.20364808917E+03  0.26107443527E+03  0.88057478183E+02 0.  0.
        -11    1    4    4    0    0  0.45217920529E+02 -0.33246710158E+02  0.75784113799E+02  0.94303955259E+02  0.00000000000E+00 0. -1.
         11    1    4    4    0    0 -0.28177338104E+02 -0.10329198625E+03  0.12786397537E+03  0.16677048001E+03  0.00000000000E+00 0.  1.
        -13    1    3    3    0    0 -0.52399325585E+02  0.29561041344E+02  0.33860460354E+03  0.34390786851E+03  0.00000000000E+00 0. -1.
         13    1    3    3    0    0 -0.79759887262E+01 -0.50560859436E+02  0.25418783800E+03  0.25929032742E+03  0.00000000000E+00 0.  1.
         -1    1    1    2    0  502  0.43334731886E+02  0.15753851450E+03  0.56919456270E+02  0.17302053936E+03  0.00000000000E+00 0.  1.
<scales pt_clust_5="13000.00000" pt_clust_6="13000.00000" pt_clust_7="13000.00000" pt_clust_8="13000.00000" pt_clust_9="13000.00000"></scales>
<clustering>
<clus scale="   88.057">  5  6 -1 -1</clus>
<clus scale="   91.428">  7  8 -1 -1</clus>
<clus scale="  111.558">  1  7  2 -1</clus>
<clus scale="  152.387">  5  9 -1 -1</clus>
<clus scale="  347.193">  2  5  1 -1</clus>
</clustering>
</event>
<event>
 9    1  0.3312826E-006  0.5984084E+03  0.7546771E-02  0.1013098E+00
          2   -1    0    0  502    0 -0.00000000000E+00  0.00000000000E+00  0.13828049548E+04  0.13828049548E+04  0.00000000000E+00 0. -1.
         21   -1    0    0  501  502  0.00000000000E+00 -0.00000000000E+00 -0.23685249870E+03  0.23685249870E+03  0.00000000000E+00 0. -1.
         23    2    1    2    0    0  0.18492998890E+03  0.21463011833E+03  0.94119138098E+03  0.98718638055E+03  0.91818003783E+02 0.  0.
         23    2    1    2    0    0 -0.19302265890E+03 -0.12113665706E+03  0.36913028659E+03  0.44319942614E+03  0.90756411995E+02 0.  0.
        -13    1    3    3    0    0  0.13644002058E+03  0.20333358244E+03  0.82977797141E+03  0.86515426763E+03  0.00000000000E+00 0. -1.
         13    1    3    3    0    0  0.48489968321E+02  0.11296535891E+02  0.11141340957E+03  0.12203211292E+03  0.00000000000E+00 0.  1.
        -13    1    4    4    0    0 -0.74831467494E+02 -0.34140853505E+02  0.21585436772E+03  0.23099449013E+03  0.00000000000E+00 0. -1.
         13    1    4    4    0    0 -0.11819119140E+03 -0.86995803554E+02  0.15327591888E+03  0.21220493601E+03  0.00000000000E+00 0.  1.
          2    1    1    2  501    0  0.80926699951E+01 -0.93493461271E+02 -0.16436921147E+03  0.18927164682E+03  0.00000000000E+00 0. -1.
<scales pt_clust_5="13000.00000" pt_clust_6="13000.00000" pt_clust_7="13000.00000" pt_clust_8="13000.00000" pt_clust_9="13000.00000"></scales>
<clustering>
<clus scale="   90.756">  7  8 -1 -1</clus>
<clus scale="   91.818">  5  6 -1 -1</clus>
<clus scale="   93.843">  7  9 -1 -1</clus>
<clus scale="  297.818">  1  5  2 -1</clus>
<clus scale="  598.408">  2  5  1 -1</clus>
</clustering>
</event>
<event>
 9    1  0.3312826E-006  0.2133055E+03  0.7546771E-02  0.1170827E+00
         21   -1    0    0  501  502  0.00000000000E+00  0.00000000000E+00  0.26136737170E+03  0.26136737170E+03  0.00000000000E+00 0. -1.
          1   -1    0    0  502    0 -0.00000000000E+00 -0.00000000000E+00 -0.12512812913E+03  0.12512812913E+03  0.00000000000E+00 0. -1.
         23    2    1    2    0    0  0.15809594004E+02  0.41783831209E+02 -0.41221740904E+02  0.10902180097E+03  0.90502427321E+02 0.  0.
         23    2    1    2    0    0  0.28653708987E+02  0.16296354200E+02  0.37135838912E+02  0.11922882807E+03  0.10839666375E+03 0.  0.
        -11    1    4    4    0    0  0.89241976730E+01  0.50472713024E+02  0.55634261710E+02  0.75645932740E+02  0.00000000000E+00 0.  1.
         11    1    4    4    0    0  0.19729511314E+02 -0.34176358824E+02 -0.18498422798E+02  0.43582895328E+02  0.00000000000E+00 0. -1.
        -11    1    3    3    0    0 -0.36172528880E+02  0.26472461921E+02 -0.82158903669E+01  0.45571306107E+02  0.00000000000E+00 0.  1.
         11    1    3    3    0    0  0.51982122884E+02  0.15311369288E+02 -0.33005850537E+02  0.63450494865E+02  0.00000000000E+00 0. -1.
          1    1    1    2  501    0 -0.44463302991E+02 -0.58080185409E+02  0.14032514457E+03  0.15824487179E+03  0.00000000000E+00 0. -1.
<scales pt_clust_5="13000.00000" pt_clust_6="13000.00000" pt_clust_7="13000.00000" pt_clust_8="13000.00000" pt_clust_9="13000.00000"></scales>
<clustering>
<clus scale="   90.502">  7  8 -1 -1</clus>
<clus scale="  100.928">  2  7  1 -1</clus>
<clus scale="  108.397">  5  6 -1 -1</clus>
<clus scale="   65.520">  5  9 -1 -1</clus>
<clus scale="  213.306">  1  5  2 -1</clus>
</clustering>
</event>
<event>
 9    1  0.3312826E-006  0.3524014E+03  0.7546771E-02  0.1109310E+00
          1   -1    0    0  502    0 -0.00000000000E+00  0.00000000000E+00  0.59560550961E+03  0.59560550961E+03  0.00000000000E+00 0. -1.
         21   -1    0    0  501  502  0.00000000000E+00 -0.00000000000E+00 -0.13361275728E+03  0.13361275728E+03  0.00000000000E+00 0.  1.
         23    2    1    2    0    0 -0.80221425287E+00 -0.25075273548E+02  0.34350590581E+03  0.35743088310E+03  0.95556872999E+02 0.  0.
         23    2    1    2    0    0  0.97943245095E+02 -0.43032642717E+02 -0.55867719350E+02  0.16089740591E+03  0.10640528917E+03 0.  0.
        -11    1    4    4    0    0  0.74550867000E+02  0.16112278984E+02 -0.45586936484E-01  0.76272140279E+02  0.00000000000E+00 0. -1.
         11    1    4    4    0    0  0.23392378095E+02 -0.59144921701E+02 -0.55822132414E+02  0.84625265632E+02  0.00000000000E+00 0.  1.
        -11    1    3    3    0    0 -0.19645593857E+02 -0.50206944042E+02  0.29325861999E+03  0.29817327980E+03  0.00000000000E+00 0. -1.
         11    1    3    3    0    0  0.18843379604E+02  0.25131670495E+02  0.50247285814E+02  0.59257603296E+02  0.00000000000E+00 0.  1.
          1    1    1    2  501    0 -0.97141030842E+02  0.68107916265E+02  0.17435456587E+03  0.21088997788E+03  0.00000000000E+00 0. -1.
<scales pt_clust_5="13000.00000" pt_clust_6="13000.00000" pt_clust_7="13000.00000" pt_clust_8="13000.00000" pt_clust_9="13000.00000"></scales>
<clustering>
<clus scale="   95.557">  7  8 -1 -1</clus>
<clus scale="   98.795">  1  7  2 -1</clus>
<clus scale="  106.405">  5  6 -1 -1</clus>
<clus scale="  109.097">  5  9 -1 -1</clus>
<clus scale="  352.401">  2  5  1 -1</clus>
</clustering>
</event>
<event>
 9    1  0.3312826E-006  0.2365372E+03  0.7546771E-02  0.1138667E+00
         21   -1    0    0  501  502  0.00000000000E+00  0.00000000000E+00  0.20001948195E+03  0.20001948195E+03  0.00000000000E+00 0.  1.
          3   -1    0    0  502    0 -0.00000000000E+00 -0.00000000000E+00 -0.53105415918E+03  0.53105415918E+03  0.00000000000E+00 0. -1.
         23    2    1    2    0    0  0.81159137742E-01 -0.12834686111E+03 -0.44239940739E+03  0.46963159376E+03  0.91453129238E+02 0.  0.
         23    2    1    2    0    0 -0.26985576694E+02  0.16527013481E+03  0.93655245218E+02  0.21244407108E+03  0.91207124574E+02 0.  0.
        -11    1    4    4    0    0 -0.40787555918E+02  0.22544157104E+02  0.30929598646E+02  0.55933029685E+02  0.00000000000E+00 0. -1.
         11    1    4    4    0    0  0.13801979224E+02  0.14272597770E+03  0.62725646572E+02  0.15651104140E+03  0.00000000000E+00 0.  1.
        -11    1    3    3    0    0 -0.28927601122E+02 -0.25185931127E+02 -0.21313604390E+03  0.21655971565E+03  0.00000000000E+00 0. -1.
         11    1    3    3    0    0  0.29008760260E+02 -0.10316092999E+03 -0.22926336349E+03  0.25307187811E+03  0.00000000000E+00 0.  1.
          3    1    1    2  501    0  0.26904417557E+02 -0.36923273692E+02  0.17709484945E+02  0.48997976297E+02  0.00000000000E+00 0. -1.
<scales pt_clust_5="13000.00000" pt_clust_6="13000.00000" pt_clust_7="13000.00000" pt_clust_8="13000.00000" pt_clust_9="13000.00000"></scales>
<clustering>
<clus scale="   91.207">  5  6 -1 -1</clus>
<clus scale="   45.686">  5  9 -1 -1</clus>
<clus scale="   91.453">  7  8 -1 -1</clus>
<clus scale="  157.596">  2  7  1 -1</clus>
<clus scale="  236.537">  1  5  2 -1</clus>
</clustering>
</event>
<event>
 9    1  0.3312826E-006  0.9520317E+03  0.7546771E-02  0.9858760E-01
         21   -1    0    0  501  502  0.00000000000E+00  0.00000000000E+00  0.13919572384E+03  0.13919572384E+03  0.00000000000E+00 0. -1.
          2   -1    0    0  502    0 -0.00000000000E+00 -0.00000000000E+00 -0.25119680169E+04  0.25119680169E+04  0.00000000000E+00 0. -1.
         23    2    1    2    0    0  0.14124471254E+03 -0.48864754966E+02 -0.74715187761E+03  0.76728316452E+03  0.90275651416E+02 0.  0.
         23    2    1    2    0    0 -0.14961855912E+03  0.37876975375E+03 -0.29125626627E+03  0.50931333081E+03  0.93368178252E+02 0.  0.
        -11    1    3    3    0    0  0.56720399921E+00 -0.33009250614E+02 -0.13632642779E+03  0.14026698564E+03  0.00000000000E+00 0.  1.
         11    1    3    3    0    0  0.14067750854E+03 -0.15855504352E+02 -0.61082544982E+03  0.62701617888E+03  0.00000000000E+00 0. -1.
        -11    1    4    4    0    0 -0.97254851029E+02  0.14517954944E+03 -0.15663078605E+03  0.23466744717E+03  0.00000000000E+00 0.  1.
         11    1    4    4    0    0 -0.52363708093E+02  0.23359020431E+03 -0.13462548022E+03  0.27464588364E+03  0.00000000000E+00 0. -1.
          2    1    1    2  501    0  0.83738465791E+01 -0.32990499878E+03 -0.13343641491E+04  0.13745672454E+04  0.00000000000E+00 0. -1.
<scales pt_clust_5="13000.00000" pt_clust_6="13000.00000" pt_clust_7="13000.00000" pt_clust_8="13000.00000" pt_clust_9="13000.00000"></scales>
<clustering>
<clus scale="   90.276">  5  6 -1 -1</clus>
<clus scale="   93.368">  7  8 -1 -1</clus>
<clus scale="  174.607">  2  5  1 -1</clus>
<clus scale="  385.913">  7  9 -1 -1</clus>
<clus scale="  952.032">  1  5  2 -1</clus>
</clustering>
</event>
<event>
 9    1  0.3312826E-006  0.4369657E+03  0.7546771E-02  0.1080715E+00
         21   -1    0    0  501  502  0.00000000000E+00  0.00000000000E+00  0.14557784341E+03  0.14557784341E+03  0.00000000000E+00 0. -1.
          1   -1    0    0  502    0 -0.00000000000E+00 -0.00000000000E+00 -0.54026424244E+03  0.54026424244E+03  0.00000000000E+00 0. -1.
         23    2    1    2    0    0 -0.52359011866E+02  0.31032330192E+02 -0.14764995275E+03  0.18387992299E+03  0.91141899753E+02 0.  0.
         23    2    1    2    0    0  0.17409700210E+03  0.12749725829E+03 -0.10175355165E+03  0.25486119531E+03  0.89638867620E+02 0.  0.
        -11    1    3    3    0    0 -0.38192288050E+02  0.62755581505E+02 -0.11323058278E+03  0.13497436332E+03  0.00000000000E+00 0. -1.
         11    1    3    3    0    0 -0.14166723816E+02 -0.31723251313E+02 -0.34419369972E+02  0.48905559672E+02  0.00000000000E+00 0.  1.
        -13    1    4    4    0    0  0.42624015724E+02 -0.59427369377E+01 -0.36700737154E+02  0.56560294787E+02  0.00000000000E+00 0.  1.
         13    1    4    4    0    0  0.13147298637E+03  0.13343999523E+03 -0.65052814500E+02  0.19830090052E+03  0.00000000000E+00 0. -1.
          1    1    1    2  501    0 -0.12173799023E+03 -0.15852958849E+03 -0.14528289462E+03  0.24710096754E+03  0.00000000000E+00 0. -1.
<scales pt_clust_5="13000.00000" pt_clust_6="13000.00000" pt_clust_7="13000.00000" pt_clust_8="13000.00000" pt_clust_9="13000.00000"></scales>
<clustering>
<clus scale="   89.639">  7  8 -1 -1</clus>
<clus scale="   91.142">  5  6 -1 -1</clus>
<clus scale="  109.596">  2  5  1 -1</clus>
<clus scale="  206.137">  7  9 -1 -1</clus>
<clus scale="  436.966">  1  5  2 -1</clus>
</clustering>
</event>
<event>
 9    1  0.3312826E-006  0.3035025E+03  0.7546771E-02  0.1133662E+00
         21   -1    0    0  501  502  0.00000000000E+00  0.00000000000E+00  0.53502374425E+02  0.53502374425E+02  0.00000000000E+00 0. -1.
          2   -1    0    0  502    0 -0.00000000000E+00 -0.00000000000E+00 -0.70950546169E+03  0.70950546169E+03  0.00000000000E+00 0. -1.
         23    2    1    2    0    0 -0.38122422933E+01 -0.45760884411E+01 -0.17562280237E+03  0.19478344480E+03  0.84034206585E+02 0.  0.
         23    2    1    2    0    0 -0.19714367355E+02  0.86701864950E+02 -0.46283513012E+03  0.48101213882E+03  0.96179261589E+02 0.  0.
        -11    1    4    4    0    0  0.28711425270E+02 -0.22679326649E+01 -0.12746489152E+03  0.13067818499E+03  0.00000000000E+00 0.  1.
         11    1    4    4    0    0 -0.48425792626E+02  0.88969797614E+02 -0.33537023859E+03  0.35033395384E+03  0.00000000000E+00 0. -1.
        -13    1    3    3    0    0 -0.23685259047E+02  0.21945147289E+02 -0.14846757717E+03  0.15193815339E+03  0.00000000000E+00 0.  1.
         13    1    3    3    0    0  0.19873016754E+02 -0.26521235730E+02 -0.27155225204E+02  0.42845291403E+02  0.00000000000E+00 0. -1.
          2    1    1    2  501    0  0.23526609649E+02 -0.82125776509E+02 -0.17545154771E+02  0.87212252491E+02  0.00000000000E+00 0. -1.
<scales pt_clust_5="13000.00000" pt_clust_6="13000.00000" pt_clust_7="13000.00000" pt_clust_8="13000.00000" pt_clust_9="13000.00000"></scales>
<clustering>
<clus scale="   84.034">  7  8 -1 -1</clus>
<clus scale="   84.245">  2  7  1 -1</clus>
<clus scale="   96.179">  5  6 -1 -1</clus>
<clus scale="   85.765">  5  9 -1 -1</clus>
<clus scale="  303.502">  1  5  2 -1</clus>
</clustering>
</event>
<event>
 9    1  0.3312826E-006  0.1666079E+03  0.7546771E-02  0.1204728E+00
          3   -1    0    0  502    0 -0.00000000000E+00  0.00000000000E+00  0.48175247035E+03  0.48175247035E+03  0.00000000000E+00 0. -1.
         21   -1    0    0  501  502  0.00000000000E+00 -0.00000000000E+00 -0.52324862174E+02  0.52324862174E+02  0.00000000000E+00 0. -1.
         23    2    1    2    0    0 -0.45978511801E+02  0.94546860277E+01  0.31884047259E+03  0.33410809151E+03  0.88122387712E+02 0.  0.
         23    2    1    2    0    0  0.39346235316E+02  0.44261556677E+02  0.93567103713E+02  0.14323209880E+03  0.90848332936E+02 0.  0.
        -11    1    4    4    0    0 -0.19090242538E+02 -0.10879323158E+02  0.30221273552E+01  0.22179501488E+02  0.00000000000E+00 0.  1.
         11    1    4    4    0    0  0.58436477854E+02  0.55140879835E+02  0.90544976358E+02  0.12105259731E+03  0.00000000000E+00 0. -1.
        -13    1    3    3    0    0 -0.31506855172E+02 -0.38077259962E+02  0.17925245747E+03  0.18594085931E+03  0.00000000000E+00 0.  1.
         13    1    3    3    0    0 -0.14471656630E+02  0.47531945989E+02  0.13958801511E+03  0.14816723220E+03  0.00000000000E+00 0. -1.
          3    1    1    2  501    0  0.66322764853E+01 -0.53716242705E+02  0.17020031878E+02  0.56737142216E+02  0.00000000000E+00 0. -1.
<scales pt_clust_5="13000.00000" pt_clust_6="13000.00000" pt_clust_7="13000.00000" pt_clust_8="13000.00000" pt_clust_9="13000.00000"></scales>
<clustering>
<clus scale="   88.122">  7  8 -1 -1</clus>
<clus scale="   90.848">  5  6 -1 -1</clus>
<clus scale="   54.124">  5  9 -1 -1</clus>
<clus scale="   99.845">  1  7  2 -1</clus>
<clus scale="  166.608">  2  5  1 -1</clus>
</clustering>
</event>
<event>
 9    1  0.3312826E-006  0.1706750E+03  0.7546771E-02  0.1195718E+00
         21   -1    0    0  501  502  0.00000000000E+00  0.00000000000E+00  0.20734445636E+03  0.20734445636E+03  0.00000000000E+00 0.  1.
          3   -1    0    0  502    0 -0.00000000000E+00 -0.00000000000E+00 -0.17297738974E+03  0.17297738974E+03  0.00000000000E+00 0. -1.
         23    2    1    2    0    0  0.13790640175E+02 -0.56234013444E+02 -0.10934435804E+03  0.15720092899E+03  0.96971632022E+02 0.  0.
         23    2    1    2    0    0  0.25737630126E+01  0.84815176366E+02  0.72061436700E+02  0.14426410168E+03  0.91755337587E+02 0.  0.
        -11    1    3    3    0    0 -0.15086398161E+02  0.22169708777E+02 -0.42259624311E+02  0.50049687748E+02  0.00000000000E+00 0.  1.
         11    1    3    3    0    0  0.28877038335E+02 -0.78403722221E+02 -0.67084733728E+02  0.10715124125E+03  0.00000000000E+00 0. -1.
        -13    1    4    4    0    0  0.17315524869E+02  0.33885395484E+02  0.81927463043E+02  0.90333585279E+02  0.00000000000E+00 0.  1.
         13    1    4    4    0    0 -0.14741761857E+02  0.50929780882E+02 -0.98660263433E+01  0.53930516399E+02  0.00000000000E+00 0. -1.
          3    1    1    2  501    0 -0.16364403187E+02 -0.28581162922E+02  0.71649987955E+02  0.78856815429E+02  0.00000000000E+00 0. -1.
<scales pt_clust_5="13000.00000" pt_clust_6="13000.00000" pt_clust_7="13000.00000" pt_clust_8="13000.00000" pt_clust_9="13000.00000"></scales>
<clustering>
<clus scale="   91.755">  7  8 -1 -1</clus>
<clus scale="   32.934">  7  9 -1 -1</clus>
<clus scale="   96.972">  5  6 -1 -1</clus>
<clus scale="  112.942">  2  5  1 -1</clus>
<clus scale="  170.675">  1  5  2 -1</clus>
</clustering>
</event>
<event>
 9    1  0.3312826E-006  0.2039543E+03  0.7546771E-02  0.1157635E+00
         21   -1    0    0  501  502  0.00000000000E+00  0.00000000000E+00  0.92522354881E+02  0.92522354881E+02  0.00000000000E+00 0. -1.
          1   -1    0    0  502    0 -0.00000000000E+00 -0.00000000000E+00 -0.44669728235E+03  0.44669728235E+03  0.00000000000E+00 0. -1.
         23    2    1    2    0    0 -0.35467643666E+02 -0.12270299535E+03 -0.28256368438E+03  0.32305878031E+03  0.90613249521E+02 0.  0.
         23    2    1    2    0    0 -0.72422350916E+01  0.99426299827E+02 -0.63892548021E+02  0.16691132340E+03  0.11763967495E+03 0.  0.
        -13    1    4    4    0    0 -0.51910866388E+02  0.86688590064E+01 -0.16117136037E+02  0.55042249588E+02  0.00000000000E+00 0.  1.
         13    1    4    4    0    0  0.44668631296E+02  0.90757440820E+02 -0.47775411984E+02  0.11186907382E+03  0.00000000000E+00 0. -1.
        -13    1    3    3    0    0 -0.45228432254E+02 -0.18549647047E+02 -0.62074332118E+02  0.79012171199E+02  0.00000000000E+00 0.  1.
         13    1    3    3    0    0  0.97607885879E+01 -0.10415334831E+03 -0.22048935226E+03  0.24404660911E+03  0.00000000000E+00 0. -1.
          1    1    1    2  501    0  0.42709878758E+02  0.23276695527E+02 -0.77186950669E+01  0.49249533518E+02  0.00000000000E+00 0. -1.
<scales pt_clust_5="13000.00000" pt_clust_6="13000.00000" pt_clust_7="13000.00000" pt_clust_8="13000.00000" pt_clust_9="13000.00000"></scales>
<clustering>
<clus scale="   90.613">  7  8 -1 -1</clus>
<clus scale="  117.640">  5  6 -1 -1</clus>
<clus scale="   48.641">  5  9 -1 -1</clus>
<clus scale="  156.604">  2  7  1 -1</clus>
<clus scale="  203.954">  1  5  2 -1</clus>
</clustering>
</event>
<event>
 9    1  0.3312826E-006  0.1356675E+03  0.7546771E-02  0.1230536E+00
         21   -1    0    0  501  502  0.00000000000E+00  0.00000000000E+00  0.49780501402E+02  0.49780501402E+02  0.00000000000E+00 0.  1.
          2   -1    0    0  502    0 -0.00000000000E+00 -0.00000000000E+00 -0.44527260506E+03  0.44527260506E+03  0.00000000000E+00 0. -1.
         23    2    1    2    0    0  0.30392839000E+02  0.47333940455E+02 -0.32480351453E+03  0.34207421067E+03  0.91395929749E+02 0.  0.
         23    2    1    2    0    0 -0.83087745845E+01 -0.59828916790E+02 -0.64433182666E+02  0.12684538388E+03  0.91047138147E+02 0.  0.
        -11    1    4    4    0    0 -0.10450489639E+02 -0.18332575002E+02 -0.79800297430E+02  0.82543222071E+02  0.00000000000E+00 0. -1.
         11    1    4    4    0    0  0.21417150541E+01 -0.41496341788E+02  0.15367114764E+02  0.44302161813E+02  0.00000000000E+00 0.  1.
        -11    1    3    3    0    0 -0.31684455045E+02  0.25587304867E+02 -0.14526651807E+03  0.15086741243E+03  0.00000000000E+00 0.  1.
         11    1    3    3    0    0  0.62077294045E+02  0.21746635589E+02 -0.17953699646E+03  0.19120679824E+03  0.00000000000E+00 0. -1.
          2    1    1    2  501    0 -0.22084064416E+02  0.12494976335E+02 -0.62554064675E+01  0.26133511911E+02  0.00000000000E+00 0. -1.
<scales pt_clust_5="13000.00000" pt_clust_6="13000.00000" pt_clust_7="13000.00000" pt_clust_8="13000.00000" pt_clust_9="13000.00000"></scales>
<clustering>
<clus scale="   91.047">  5  6 -1 -1</clus>
<clus scale="   25.374">  5  9 -1 -1</clus>
<clus scale="   91.396">  7  8 -1 -1</clus>
<clus scale="  107.319">  2  7  1 -1</clus>
<clus scale="  135.667">  1  5  2 -1</clus>
</clustering>
</event>
<event>
 9    1  0.3312826E-006  0.1687459E+03  0.7546771E-02  0.1193242E+00
         21   -1    0    0  501  502  0.00000000000E+00  0.00000000000E+00  0.38431458364E+02  0.38431458364E+02  0.00000000000E+00 0. -1.
          1   -1    0    0  502    0 -0.00000000000E+00 -0.00000000000E+00 -0.68393050342E+03  0.68393050342E+03  0.00000000000E+00 0. -1.
         23    2    1    2    0    0 -0.42186725208E+02  0.68340804154E+02 -0.43726808107E+03  0.45434082751E+03  0.93659102727E+02 0.  0.
         23    2    1    2    0    0  0.80258999868E+01 -0.89352063500E+02 -0.15379994792E+03  0.20041070232E+03  0.91988147616E+02 0.  0.
        -11    1    3    3    0    0 -0.67175752190E+02  0.68693866134E+02 -0.37798625085E+03  0.39000645476E+03  0.00000000000E+00 0. -1.
         11    1    3    3    0    0  0.24989026982E+02 -0.35306197945E+00 -0.59281830224E+02  0.64334372749E+02  0.00000000000E+00 0.  1.
        -13    1    4    4    0    0  0.48432758771E+02 -0.41942357543E+02 -0.96109907148E+02  0.11550760897E+03  0.00000000000E+00 0.  1.
         13    1    4    4    0    0 -0.40406858784E+02 -0.47409705957E+02 -0.57690040770E+02  0.84903093347E+02  0.00000000000E+00 0. -1.
          1    1    1    2  501    0  0.34160825221E+02  0.21011259346E+02 -0.54431016068E+02  0.67610431956E+02  0.00000000000E+00 0. -1.
<scales pt_clust_5="13000.00000" pt_clust_6="13000.00000" pt_clust_7="13000.00000" pt_clust_8="13000.00000" pt_clust_9="13000.00000"></scales>
<clustering>
<clus scale="   91.988">  7  8 -1 -1</clus>
<clus scale="   40.105">  7  9 -1 -1</clus>
<clus scale="   93.659">  5  6 -1 -1</clus>
<clus scale="  123.378">  2  5  1 -1</clus>
<clus scale="  168.746">  1  5  2 -1</clus>
</clustering>
</event>
<event>
 9    1  0.3312826E-006  0.2222934E+03  0.7546771E-02  0.1168969E+00
         21   -1    0    0  501  502  0.00000000000E+00  0.00000000000E+00  0.23178565901E+03  0.23178565901E+03  0.00000000000E+00 0. -1.
          3   -1    0    0  502    0 -0.00000000000E+00 -0.00000000000E+00 -0.33086198997E+03  0.33086198997E+03  0.00000000000E+00 0. -1.
         23    2    1    2    0    0  0.25389006420E+02  0.70293492224E+01 -0.26784564013E+03  0.28354650062E+03  0.89237423086E+02 0.  0.
         23    2    1    2    0    0 -0.27024377765E+02  0.29330894377E+02 -0.78929502950E+00  0.10568009423E+03  0.97862357278E+02 0.  0.
        -11    1    3    3    0    0  0.46010704112E+02 -0.20352353050E+02 -0.96734107809E+02  0.10903527311E+03  0.00000000000E+00 0. -1.
         11    1    3    3    0    0 -0.20621697692E+02  0.27381702273E+02 -0.17111153233E+03  0.17451122752E+03  0.00000000000E+00 0.  1.
        -13    1    4    4    0    0  0.24625264122E+02  0.79002981155E-01  0.29999613807E+02  0.38812197865E+02  0.00000000000E+00 0. -1.
         13    1    4    4    0    0 -0.51649641887E+02  0.29251891396E+02 -0.30788908837E+02  0.66867896368E+02  0.00000000000E+00 0.  1.
          3    1    1    2  501    0  0.16353713452E+01 -0.36360243599E+02  0.16955860421E+03  0.17342105413E+03  0.00000000000E+00 0. -1.
<scales pt_clust_5="13000.00000" pt_clust_6="13000.00000" pt_clust_7="13000.00000" pt_clust_8="13000.00000" pt_clust_9="13000.00000"></scales>
<clustering>
<clus scale="   89.237">  5  6 -1 -1</clus>
<clus scale="   93.045">  2  5  1 -1</clus>
<clus scale="   97.862">  7  8 -1 -1</clus>
<clus scale="   36.202">  7  9 -1 -1</clus>
<clus scale="  222.293">  1  5  2 -1</clus>
</clustering>
</event>
<event>
 9    1  0.3312826E-006  0.2308085E+03  0.7546771E-02  0.1150170E+00
          2   -1    0    0  502    0 -0.00000000000E+00  0.00000000000E+00  0.22679580659E+03  0.22679580659E+03  0.00000000000E+00 0. -1.
         21   -1    0    0  501  502  0.00000000000E+00 -0.00000000000E+00 -0.28717017891E+03  0.28717017891E+03  0.00000000000E+00 0.  1.
         23    2    1    2    0    0 -0.32637222698E+02 -0.81996207511E+02  0.15275089739E+03  0.19980846341E+03  0.93819076122E+02 0.  0.
         23    2    1    2    0    0 -0.54662230297E+02  0.94635111543E+02 -0.14125534943E+03  0.20037605686E+03  0.90850022915E+02 0.  0.
        -13    1    4    4    0    0 -0.24266920992E+02  0.10639130032E+03 -0.11491912935E+03  0.15847523002E+03  0.00000000000E+00 0.  1.
         13    1    4    4    0    0 -0.30395309306E+02 -0.11756188776E+02 -0.26336220075E+02  0.41900826844E+02  0.00000000000E+00 0. -1.
        -13    1    3    3    0    0 -0.37628793986E+02 -0.10148462677E+03  0.13453424112E+03  0.17266880912E+03  0.00000000000E+00 0. -1.
         13    1    3    3    0    0  0.49915712879E+01  0.19488419264E+02  0.18216656274E+02  0.27139654293E+02  0.00000000000E+00 0.  1.
          2    1    1    2  501    0  0.87299452996E+02 -0.12638904032E+02 -0.71869920288E+02  0.11378146523E+03  0.00000000000E+00 0. -1.
<scales pt_clust_5="13000.00000" pt_clust_6="13000.00000" pt_clust_7="13000.00000" pt_clust_8="13000.00000" pt_clust_9="13000.00000"></scales>
<clustering>
<clus scale="   90.850">  5  6 -1 -1</clus>
<clus scale="   88.210">  5  9 -1 -1</clus>
<clus scale="   93.819">  7  8 -1 -1</clus>
<clus scale="  128.804">  1  7  2 -1</clus>
<clus scale="  230.809">  2  5  1 -1</clus>
</clustering>
</event>
<event>
 9    1  0.3312826E-006  0.1683192E+03  0.7546771E-02  0.1205950E+00
         21   -1    0    0  501  502  0.00000000000E+00  0.00000000000E+00  0.10056493959E+03  0.10056493959E+03  0.00000000000E+00 0.  1.
          3   -1    0    0  502    0 -0.00000000000E+00 -0.00000000000E+00 -0.29138280910E+03  0.29138280910E+03  0.00000000000E+00 0. -1.
         23    2    1    2    0    0 -0.78707578830E+01  0.24666204878E+02 -0.20233242840E+03  0.22323515856E+03  0.90692634454E+02 0.  0.
         23    2    1    2    0    0 -0.33760579803E+01  0.24767307144E+02  0.45792332055E+02  0.10751513340E+03  0.94009302538E+02 0.  0.
        -11    1    4    4    0    0 -0.36270301172E+02 -0.10060055664E+02  0.46220040602E+02  0.59607311803E+02  0.00000000000E+00 0.  1.
         11    1    4    4    0    0  0.32894243192E+02  0.34827362808E+02 -0.42770854743E+00  0.47907821594E+02  0.00000000000E+00 0. -1.
        -13    1    3    3    0    0  0.27291760392E+02  0.20318617648E+02 -0.17556122553E+03  0.17882793494E+03  0.00000000000E+00 0. -1.
         13    1    3    3    0    0 -0.35162518275E+02  0.43475872300E+01 -0.26771202872E+02  0.44407223617E+02  0.00000000000E+00 0.  1.
          3    1    1    2  501    0  0.11246815863E+02 -0.49433512022E+02 -0.34277773167E+02  0.61197456738E+02  0.00000000000E+00 0. -1.
<scales pt_clust_5="13000.00000" pt_clust_6="13000.00000" pt_clust_7="13000.00000" pt_clust_8="13000.00000" pt_clust_9="13000.00000"></scales>
<clustering>
<clus scale="   90.693">  7  8 -1 -1</clus>
<clus scale="   94.009">  5  6 -1 -1</clus>
<clus scale="   50.697">  5  9 -1 -1</clus>
<clus scale="   94.316">  2  7  1 -1</clus>
<clus scale="  168.319">  1  5  2 -1</clus>
</clustering>
</event>
<event>
 9    1  0.3312826E-006  0.3374043E+03  0.7546771E-02  0.1072812E+00
         -3   -1    0    0    0  501 -0.00000000000E+00  0.00000000000E+00  0.13465461121E+04  0.13465461121E+04  0.00000000000E+00 0.  1.
         21   -1    0    0  501  502  0.00000000000E+00 -0.00000000000E+00 -0.86973332674E+02  0.86973332674E+02  0.00000000000E+00 0.  1.
         23    2    1    2    0    0 -0.23712549542E+03  0.14950405340E+03  0.31986460696E+03  0.43507408481E+03  0.91630398486E+02 0.  0.
         23    2    1    2    0    0  0.58866449221E+02 -0.29626121845E+02  0.21273717632E+03  0.24039929588E+03  0.90508283232E+02 0.  0.
        -11    1    3    3    0    0 -0.26489493936E+02  0.99752957608E+00  0.30686266704E+01  0.26685292277E+02  0.00000000000E+00 0. -1.
         11    1    3    3    0    0 -0.21063600148E+03  0.14850652383E+03  0.31679598029E+03  0.40838879254E+03  0.00000000000E+00 0.  1.
        -13    1    4    4    0    0  0.18009779621E+02 -0.50914668580E+02  0.16686119169E+03  0.17538333139E+03  0.00000000000E+00 0.  1.
         13    1    4    4    0    0  0.40856669601E+02  0.21288546734E+02  0.45875984631E+02  0.65015964492E+02  0.00000000000E+00 0. -1.
         -3    1    1    2    0  502  0.17825904620E+03 -0.11987793156E+03  0.72697099614E+03  0.75804606407E+03  0.00000000000E+00 0.  1.
<scales pt_clust_5="13000.00000" pt_clust_6="13000.00000" pt_clust_7="13000.00000" pt_clust_8="13000.00000" pt_clust_9="13000.00000"></scales>
<clustering>
<clus scale="   90.508">  7  8 -1 -1</clus>
<clus scale="   91.630">  5  6 -1 -1</clus>
<clus scale="  214.819">  7  9 -1 -1</clus>
<clus scale="  294.917">  1  5  2 -1</clus>
<clus scale="  337.404">  2  5  1 -1</clus>
</clustering>
</event>
<event>
 9    1  0.3312826E-006  0.5816110E+03  0.7546771E-02  0.1055622E+00
          1   -1    0    0  502    0 -0.00000000000E+00  0.00000000000E+00  0.12803037288E+04  0.12803037288E+04  0.00000000000E+00 0. -1.
         21   -1    0    0  501  502  0.00000000000E+00 -0.00000000000E+00 -0.95389632523E+02  0.95389632523E+02  0.00000000000E+00 0.  1.
         23    2    1    2    0    0  0.44462350047E+01 -0.39300681880E+01  0.32176192462E+03  0.33487492692E+03  0.92602732683E+02 0.  0.
         23    2    1    2    0    0  0.16755926822E+03 -0.20649587631E+03  0.58187627775E+03  0.64969045056E+03  0.11314160877E+03 0.  0.
        -11    1    3    3    0    0  0.45084016416E+02  0.52547631503E+01  0.22487383626E+03  0.22940885621E+03  0.00000000000E+00 0. -1.
         11    1    3    3    0    0 -0.40637781412E+02 -0.91848313383E+01  0.96888088364E+02  0.10546607071E+03  0.00000000000E+00 0.  1.
        -13    1    4    4    0    0  0.83976197594E+02 -0.11112801712E+03  0.42910159033E+03  0.45114256369E+03  0.00000000000E+00 0. -1.
         13    1    4    4    0    0  0.83583070622E+02 -0.95367859193E+02  0.15277468743E+03  0.19854788687E+03  0.00000000000E+00 0.  1.
          1    1    1    2  501    0 -0.17200550322E+03  0.21042594450E+03  0.28127589389E+03  0.39112798383E+03  0.00000000000E+00 0. -1.
<scales pt_clust_5="13000.00000" pt_clust_6="13000.00000" pt_clust_7="13000.00000" pt_clust_8="13000.00000" pt_clust_9="13000.00000"></scales>
<clustering>
<clus scale="   92.603">  5  6 -1 -1</clus>
<clus scale="   92.793">  1  5  2 -1</clus>
<clus scale="  113.142">  7  8 -1 -1</clus>
<clus scale="  269.713">  7  9 -1 -1</clus>
<clus scale="  581.611">  2  5  1 -1</clus>
</clustering>
</event>
<event>
 9    1  0.3312826E-006  0.2210431E+03  0.7546771E-02  0.1144314E+00
         21   -1    0    0  501  502  0.00000000000E+00  0.00000000000E+00  0.65425215214E+02  0.65425215214E+02  0.00000000000E+00 0. -1.
         -1   -1    0    0    0  501 -0.00000000000E+00 -0.00000000000E+00 -0.65176970574E+03  0.65176970574E+03  0.00000000000E+00 0.  1.
         23    2    1    2    0    0  0.14277348262E+03  0.16328841898E+02 -0.37600902259E+03  0.41207023835E+03  0.88137380565E+02 0.  0.
         23    2    1    2    0    0 -0.39533656640E+02  0.35598875868E+02 -0.91055494269E+02  0.13904439581E+03  0.90620367466E+02 0.  0.
        -11    1    4    4    0    0 -0.47241768388E+02  0.30129263102E+01 -0.94186346146E+02  0.10541314057E+03  0.00000000000E+00 0.  1.
         11    1    4    4    0    0  0.77081117489E+01  0.32585949558E+02  0.31308518771E+01  0.33631255237E+02  0.00000000000E+00 0. -1.
        -11    1    3    3    0    0  0.48672534207E+02 -0.32778675373E+02 -0.17774472582E+03  0.18718078081E+03  0.00000000000E+00 0.  1.
         11    1    3    3    0    0  0.94100948412E+02  0.49107517271E+02 -0.19826429677E+03  0.22488945755E+03  0.00000000000E+00 0. -1.
         -1    1    1    2    0  502 -0.10323982598E+03 -0.51927717766E+02 -0.11927997367E+03  0.16608028678E+03  0.00000000000E+00 0.  1.
<scales pt_clust_5="13000.00000" pt_clust_6="13000.00000" pt_clust_7="13000.00000" pt_clust_8="13000.00000" pt_clust_9="13000.00000"></scales>
<clustering>
<clus scale="   88.137">  7  8 -1 -1</clus>
<clus scale="   90.620">  5  6 -1 -1</clus>
<clus scale="  115.564">  5  9 -1 -1</clus>
<clus scale="  168.580">  2  7  1 -1</clus>
<clus scale="  221.043">  1  5  2 -1</clus>
</clustering>
</event>
<event>
 9    1  0.3312826E-006  0.1495111E+03  0.7546771E-02  0.1218542E+00
         -3   -1    0    0    0  501 -0.00000000000E+00  0.00000000000E+00  0.12145463581E+03  0.12145463581E+03  0.00000000000E+00 0.  1.
         21   -1    0    0  501  502  0.00000000000E+00 -0.00000000000E+00 -0.13119878315E+03  0.13119878315E+03  0.00000000000E+00 0.  1.
         23    2    1    2    0    0 -0.46536627993E+02 -0.13198991488E+02 -0.47112480917E+01  0.10305762988E+03  0.90877984661E+02 0.  0.
         23    2    1    2    0    0  0.66590229866E+01  0.32697287444E+02  0.16061613566E+02  0.10044921853E+03  0.93373523435E+02 0.  0.
        -11    1    3    3    0    0  0.16037376480E+02 -0.27384886768E+02 -0.19454413864E+02  0.37223697914E+02  0.00000000000E+00 0. -1.
         11    1    3    3    0    0 -0.62574004473E+02  0.14185895280E+02  0.14743165772E+02  0.65833931962E+02  0.00000000000E+00 0.  1.
        -13    1    4    4    0    0 -0.17040033343E+02 -0.18995053689E+02 -0.20595129608E+02  0.32792288187E+02  0.00000000000E+00 0.  1.
         13    1    4    4    0    0  0.23699056329E+02  0.51692341133E+02  0.36656743174E+02  0.67656930338E+02  0.00000000000E+00 0. -1.
         -3    1    1    2    0  502  0.39877605006E+02 -0.19498295956E+02 -0.21094512813E+02  0.49146570552E+02  0.00000000000E+00 0.  1.
<scales pt_clust_5="13000.00000" pt_clust_6="13000.00000" pt_clust_7="13000.00000" pt_clust_8="13000.00000" pt_clust_9="13000.00000"></scales>
<clustering>
<clus scale="   90.878">  5  6 -1 -1</clus>
<clus scale="   93.374">  7  8 -1 -1</clus>
<clus scale="   44.389">  7  9 -1 -1</clus>
<clus scale="  102.950">  1  5  2 -1</clus>
<clus scale="  149.511">  2  5  1 -1</clus>
</clustering>
</event>
<event>
 9    1  0.3312826E-006  0.2465985E+03  0.7546771E-02  0.1129648E+00
          1   -1    0    0  502    0 -0.00000000000E+00  0.00000000000E+00  0.58078012120E+03  0.58078012120E+03  0.00000000000E+00 0. -1.
         21   -1    0    0  501  502  0.00000000000E+00 -0.00000000000E+00 -0.76021276865E+02  0.76021276865E+02  0.00000000000E+00 0. -1.
         23    2    1    2    0    0  0.14224506905E+03 -0.41969159666E+02  0.19486318676E+03  0.26076333790E+03  0.89614657325E+02 0.  0.
         23    2    1    2    0    0 -0.52543844283E+02 -0.20959981524E+02  0.24744104934E+03  0.26991524453E+03  0.91798637957E+02 0.  0.
        -11    1    3    3    0    0  0.12592160129E+03 -0.67552759406E+02  0.16269174938E+03  0.21653690283E+03  0.00000000000E+00 0. -1.
         11    1    3    3    0    0  0.16323467760E+02  0.25583599739E+02  0.32171437383E+02  0.44226435066E+02  0.00000000000E+00 0.  1.
        -11    1    4    4    0    0 -0.60494033152E+02  0.96166344376E+01  0.21900390358E+03  0.22740870143E+03  0.00000000000E+00 0. -1.
         11    1    4    4    0    0  0.79501888686E+01 -0.30576615961E+02  0.28437145769E+02  0.42506543099E+02  0.00000000000E+00 0.  1.
          1    1    1    2  501    0 -0.89701224763E+02  0.62929141190E+02  0.62454608233E+02  0.12612281564E+03  0.00000000000E+00 0. -1.
<scales pt_clust_5="13000.00000" pt_clust_6="13000.00000" pt_clust_7="13000.00000" pt_clust_8="13000.00000" pt_clust_9="13000.00000"></scales>
<clustering>
<clus scale="   89.615">  5  6 -1 -1</clus>
<clus scale="   91.799">  7  8 -1 -1</clus>
<clus scale="  109.574">  7  9 -1 -1</clus>
<clus scale="  173.280">  1  5  2 -1</clus>
<clus scale="  246.599">  2  5  1 -1</clus>
</clustering>
</event>
<event>
 9    1  0.3312826E-006  0.3367190E+03  0.7546771E-02  0.1093912E+00
         21   -1    0    0  501  502  0.00000000000E+00  0.00000000000E+00  0.19959559038E+03  0.19959559038E+03  0.00000000000E+00 0.  1.
          2   -1    0    0  502    0 -0.00000000000E+00 -0.00000000000E+00 -0.32901755050E+03  0.32901755050E+03  0.00000000000E+00 0. -1.
         23    2    1    2    0    0  0.13410070960E+03  0.40830251638E+02 -0.22813135617E+01  0.16869031341E+03  0.93814218980E+02 0.  0.
         23    2    1    2    0    0 -0.27858811024E+01  0.10479877972E+03 -0.63871356155E+02  0.15387816710E+03  0.92781435692E+02 0.  0.
        -11    1    3    3    0    0  0.59885216294E+02 -0.21778331778E+02  0.24012289326E+02  0.68096438264E+02  0.00000000000E+00 0.  1.
         11    1    3    3    0    0  0.74215493307E+02  0.62608583416E+02 -0.26293602888E+02  0.10059387515E+03  0.00000000000E+00 0. -1.
        -13    1    4    4    0    0 -0.53967774685E+01  0.50831955326E+02  0.19348835203E+02  0.54657024370E+02  0.00000000000E+00 0.  1.
         13    1    4    4    0    0  0.26108963660E+01  0.53966824390E+02 -0.83220191358E+02  0.99221142728E+02  0.00000000000E+00 0. -1.
          2    1    1    2  501    0 -0.13131482850E+03 -0.14562903135E+03 -0.63269290408E+02  0.20604466037E+03  0.00000000000E+00 0. -1.
<scales pt_clust_5="13000.00000" pt_clust_6="13000.00000" pt_clust_7="13000.00000" pt_clust_8="13000.00000" pt_clust_9="13000.00000"></scales>
<clustering>
<clus scale="   92.781">  7  8 -1 -1</clus>
<clus scale="   93.814">  5  6 -1 -1</clus>
<clus scale="  168.675">  2  5  1 -1</clus>
<clus scale="  135.683">  7  9 -1 -1</clus>
<clus scale="  336.719">  1  5  2 -1</clus>
</clustering>
</event>
<event>
 9    1  0.3312826E-006  0.2131336E+03  0.7546771E-02  0.1168977E+00
         21   -1    0    0  501  502  0.00000000000E+00  0.00000000000E+00  0.43090484384E+02  0.43090484384E+02  0.00000000000E+00 0.  1.
          1   -1    0    0  502    0 -0.00000000000E+00 -0.00000000000E+00 -0.64857975038E+03  0.64857975038E+03  0.00000000000E+00 0. -1.
         23    2    1    2    0    0  0.37941246042E+02 -0.38330800086E+02 -0.11082142049E+03  0.15304030226E+03  0.90725732234E+02 0.  0.
         23    2    1    2    0    0 -0.18393444495E+02 -0.14450231342E+01 -0.48495233633E+03  0.49325787308E+03  0.88227852466E+02 0.  0.
        -11    1    3    3    0    0  0.13273932001E+02 -0.65677306268E+02 -0.57840837470E+02  0.88517050949E+02  0.00000000000E+00 0.  1.
         11    1    3    3    0    0  0.24667314040E+02  0.27346506183E+02 -0.52980583020E+02  0.64523251309E+02  0.00000000000E+00 0. -1.
        -13    1    4    4    0    0 -0.49018144984E+02 -0.21326720498E+02 -0.30272791174E+03  0.30741144431E+03  0.00000000000E+00 0. -1.
         13    1    4    4    0    0  0.30624700489E+02  0.19881697364E+02 -0.18222442459E+03  0.18584642877E+03  0.00000000000E+00 0.  1.
          1    1    1    2  501    0 -0.19547801547E+02  0.39775823220E+02 -0.97155091773E+01  0.45372059428E+02  0.00000000000E+00 0. -1.
<scales pt_clust_5="13000.00000" pt_clust_6="13000.00000" pt_clust_7="13000.00000" pt_clust_8="13000.00000" pt_clust_9="13000.00000"></scales>
<clustering>
<clus scale="   88.228">  7  8 -1 -1</clus>
<clus scale="   44.320">  7  9 -1 -1</clus>
<clus scale="   90.726">  5  6 -1 -1</clus>
<clus scale="  105.546">  2  5  1 -1</clus>
<clus scale="  213.134">  1  5  2 -1</clus>
</clustering>
</event>
<event>
 9    1  0.3312826E-006  0.3444461E+03  0.7546771E-02  0.1072111E+00
         -1   -1    0    0    0  501 -0.00000000000E+00  0.00000000000E+00  0.77927202051E+02  0.77927202051E+02  0.00000000000E+00 0.  1.
         21   -1    0    0  501  502  0.00000000000E+00 -0.00000000000E+00 -0.16164611480E+04  0.16164611480E+04  0.00000000000E+00 0.  1.
         23    2    1    2    0    0  0.21838355327E+03  0.15652208971E+03 -0.31440150803E+03  0.42271882823E+03  0.87477760523E+02 0.  0.
         23    2    1    2    0    0 -0.12000639266E+03 -0.15800108403E+03 -0.57592443656E+03  0.61603710485E+03  0.91906915352E+02 0.  0.
        -11    1    3    3    0    0  0.66504005865E+02  0.99596851204E+02 -0.14734734141E+03  0.18987773589E+03  0.00000000000E+00 0. -1.
         11    1    3    3    0    0  0.15187954741E+03  0.56925238502E+02 -0.16705416662E+03  0.23284109235E+03  0.00000000000E+00 0.  1.
        -11    1    4    4    0    0 -0.21147787184E+02 -0.10051218170E+03 -0.23571854574E+03  0.25712479535E+03  0.00000000000E+00 0.  1.
         11    1    4    4    0    0 -0.98858605478E+02 -0.57488902327E+02 -0.34020589081E+03  0.35891230950E+03  0.00000000000E+00 0. -1.
         -1    1    1    2    0  502 -0.98377160610E+02  0.14789943237E+01 -0.64820800135E+03  0.65563241696E+03  0.00000000000E+00 0.  1.
<scales pt_clust_5="13000.00000" pt_clust_6="13000.00000" pt_clust_7="13000.00000" pt_clust_8="13000.00000" pt_clust_9="13000.00000"></scales>
<clustering>
<clus scale="   87.478">  5  6 -1 -1</clus>
<clus scale="   91.907">  7  8 -1 -1</clus>
<clus scale="   98.388">  7  9 -1 -1</clus>
<clus scale="  282.565">  1  5  2 -1</clus>
<clus scale="  344.446">  2  5  1 -1</clus>
</clustering>
</event>
<event>
 9    1  0.3312826E-006  0.2227577E+03  0.7546771E-02  0.1159291E+00
         21   -1    0    0  501  502  0.00000000000E+00  0.00000000000E+00  0.11624720434E+03  0.11624720434E+03  0.00000000000E+00 0. -1.
          1   -1    0    0  502    0 -0.00000000000E+00 -0.00000000000E+00 -0.35717951707E+03  0.35717951707E+03  0.00000000000E+00 0. -1.
         23    2    1    2    0    0  0.40915487699E+01  0.70204349524E+02 -0.22144162006E+03  0.24981799797E+03  0.91800052014E+02 0.  0.
         23    2    1    2    0    0 -0.16897574002E+02 -0.86180510781E+02 -0.86934052376E+02  0.15312582638E+03  0.90428871468E+02 0.  0.
        -11    1    3    3    0    0 -0.20809543809E+02 -0.30156138485E+01 -0.74961085704E+01  0.22323142345E+02  0.00000000000E+00 0.  1.
         11    1    3    3    0    0  0.24901092579E+02  0.73219963372E+02 -0.21394551149E+03  0.22749485562E+03  0.00000000000E+00 0. -1.
        -13    1    4    4    0    0 -0.37602285859E+02 -0.73508846508E+02 -0.24480698402E+02  0.86120769917E+02  0.00000000000E+00 0.  1.
         13    1    4    4    0    0  0.20704711857E+02 -0.12671664273E+02 -0.62453353973E+02  0.67005056459E+02  0.00000000000E+00 0. -1.
          1    1    1    2  501    0  0.12806025232E+02  0.15976161258E+02  0.67443359705E+02  0.70482897068E+02  0.00000000000E+00 0. -1.
<scales pt_clust_5="13000.00000" pt_clust_6="13000.00000" pt_clust_7="13000.00000" pt_clust_8="13000.00000" pt_clust_9="13000.00000"></scales>
<clustering>
<clus scale="   90.429">  7  8 -1 -1</clus>
<clus scale="   20.475">  7  9 -1 -1</clus>
<clus scale="   91.800">  5  6 -1 -1</clus>
<clus scale="  115.640">  2  5  1 -1</clus>
<clus scale="  222.758">  1  5  2 -1</clus>
</clustering>
</event>
<event>
 9    1  0.3312826E-006  0.2142411E+03  0.7546771E-02  0.1170265E+00
         21   -1    0    0  501  502  0.00000000000E+00  0.00000000000E+00  0.11501977675E+03  0.11501977675E+03  0.00000000000E+00 0.  1.
          1   -1    0    0  502    0 -0.00000000000E+00 -0.00000000000E+00 -0.32881249119E+03  0.32881249119E+03  0.00000000000E+00 0. -1.
         23    2    1    2    0    0 -0.40522992111E+02 -0.23212263607E+02 -0.20607694925E+03  0.22945231511E+03  0.89441231120E+02 0.  0.
         23    2    1    2    0    0  0.13576318883E+02  0.91476520108E+02  0.26869030288E+02  0.13324894771E+03  0.92092709333E+02 0.  0.
        -13    1    4    4    0    0  0.18159162979E+02 -0.12949525577E+02 -0.69933649231E+01  0.23374185884E+02  0.00000000000E+00 0. -1.
         13    1    4    4    0    0 -0.45828440968E+01  0.10442604568E+03  0.33862395211E+02  0.10987476183E+03  0.00000000000E+00 0.  1.
        -13    1    3    3    0    0 -0.58471248634E+02  0.50799163713E+01 -0.81405087562E+02  0.10035676733E+03  0.00000000000E+00 0.  1.
         13    1    3    3    0    0  0.17948256523E+02 -0.28292179978E+02 -0.12467186169E+03  0.12909554778E+03  0.00000000000E+00 0. -1.
          1    1    1    2  501    0  0.26946673229E+02 -0.68264256501E+02 -0.34584795486E+02  0.81131005124E+02  0.00000000000E+00 0. -1.
<scales pt_clust_5="13000.00000" pt_clust_6="13000.00000" pt_clust_7="13000.00000" pt_clust_8="13000.00000" pt_clust_9="13000.00000"></scales>
<clustering>
<clus scale="   89.441">  7  8 -1 -1</clus>
<clus scale="   92.093">  5  6 -1 -1</clus>
<clus scale="   73.390">  5  9 -1 -1</clus>
<clus scale="  100.899">  2  7  1 -1</clus>
<clus scale="  214.241">  1  5  2 -1</clus>
</clustering>
</event>
<event>
 9    1  0.3312826E-006  0.3134282E+03  0.7546771E-02  0.1106154E+00
         21   -1    0    0  501  502  0.00000000000E+00  0.00000000000E+00  0.68583889516E+03  0.68583889516E+03  0.00000000000E+00 0. -1.
          1   -1    0    0  502    0 -0.00000000000E+00 -0.00000000000E+00 -0.23928826668E+03  0.23928826668E+03  0.00000000000E+00 0. -1.
         23    2    1    2    0    0 -0.79791200031E+02  0.86104676915E+02 -0.17322450174E+03  0.23060684974E+03  0.96913054613E+02 0.  0.
         23    2    1    2    0    0  0.96412100592E+02  0.73148308589E+02  0.34649061775E+03  0.37778352472E+03  0.89547055629E+02 0.  0.
        -11    1    3    3    0    0 -0.37537423456E+02  0.75628445729E+02 -0.16632810960E+03  0.18653085537E+03  0.00000000000E+00 0. -1.
         11    1    3    3    0    0 -0.42253776575E+02  0.10476231186E+02 -0.68963921381E+01  0.44075994364E+02  0.00000000000E+00 0.  1.
        -13    1    4    4    0    0  0.58633041724E+02 -0.91006558847E+01  0.11970924021E+03  0.13360747625E+03  0.00000000000E+00 0.  1.
         13    1    4    4    0    0  0.37779058868E+02  0.82248964474E+02  0.22678137754E+03  0.24417604847E+03  0.00000000000E+00 0. -1.
          1    1    1    2  501    0 -0.16620900561E+02 -0.15925298550E+03  0.27328451246E+03  0.31673678738E+03  0.00000000000E+00 0. -1.
<scales pt_clust_5="13000.00000" pt_clust_6="13000.00000" pt_clust_7="13000.00000" pt_clust_8="13000.00000" pt_clust_9="13000.00000"></scales>
<clustering>
<clus scale="   89.547">  7  8 -1 -1</clus>
<clus scale="   96.913">  5  6 -1 -1</clus>
<clus scale="  152.226">  2  5  1 -1</clus>
<clus scale="  126.071">  7  9 -1 -1</clus>
<clus scale="  313.428">  1  5  2 -1</clus>
</clustering>
</event>
<event>
 9    1  0.3312826E-006  0.1327212E+03  0.7546771E-02  0.1232755E+00
          1   -1    0    0  502    0 -0.00000000000E+00  0.00000000000E+00  0.33551930263E+03  0.33551930263E+03  0.00000000000E+00 0. -1.
         21   -1    0    0  501  502  0.00000000000E+00 -0.00000000000E+00 -0.45343534693E+02  0.45343534693E+02  0.00000000000E+00 0.  1.
         23    2    1    2    0    0 -0.31531417845E+02 -0.55719471926E+02  0.95796301358E+02  0.14549440581E+03  0.88841436865E+02 0.  0.
         23    2    1    2    0    0  0.47984500856E+02  0.42123798924E+02  0.15741868423E+03  0.19268769000E+03  0.90944911745E+02 0.  0.
        -11    1    4    4    0    0 -0.26200938997E+02  0.10153743179E+01  0.34005704228E+02  0.42940751151E+02  0.00000000000E+00 0. -1.
         11    1    4    4    0    0  0.74185439853E+02  0.41108424606E+02  0.12341298000E+03  0.14974693884E+03  0.00000000000E+00 0.  1.
        -13    1    3    3    0    0  0.23155677960E+02  0.10530875944E+01  0.48011648061E+02  0.53314282934E+02  0.00000000000E+00 0.  1.
         13    1    3    3    0    0 -0.54687095805E+02 -0.56772559521E+02  0.47784653297E+02  0.92180122873E+02  0.00000000000E+00 0. -1.
          1    1    1    2  501    0 -0.16453083011E+02  0.13595673002E+02  0.36960782345E+02  0.42680741517E+02  0.00000000000E+00 0. -1.
<scales pt_clust_5="13000.00000" pt_clust_6="13000.00000" pt_clust_7="13000.00000" pt_clust_8="13000.00000" pt_clust_9="13000.00000"></scales>
<clustering>
<clus scale="   88.841">  7  8 -1 -1</clus>
<clus scale="   90.945">  5  6 -1 -1</clus>
<clus scale="   21.344">  5  9 -1 -1</clus>
<clus scale="  109.507">  1  7  2 -1</clus>
<clus scale="  132.721">  2  5  1 -1</clus>
</clustering>
</event>
<event>
 9    1  0.3312826E-006  0.4036884E+03  0.7546771E-02  0.1069661E+00
         21   -1    0    0  501  502  0.00000000000E+00  0.00000000000E+00  0.48121436688E+02  0.48121436688E+02  0.00000000000E+00 0. -1.
          1   -1    0    0  502    0 -0.00000000000E+00 -0.00000000000E+00 -0.18544676775E+04  0.18544676775E+04  0.00000000000E+00 0. -1.
         23    2    1    2    0    0 -0.18162819902E+02  0.16338329690E+03 -0.45404478715E+03  0.49131891215E+03  0.90628996278E+02 0.  0.
         23    2    1    2    0    0 -0.11257426298E+03  0.46922468203E+02 -0.60953343181E+03  0.62831104987E+03  0.91482720722E+02 0.  0.
        -11    1    4    4    0    0 -0.84182194752E+02 -0.13220641758E+02 -0.31135690325E+03  0.32280729310E+03  0.00000000000E+00 0. -1.
         11    1    4    4    0    0 -0.28392068230E+02  0.60143109961E+02 -0.29817652856E+03  0.30550375677E+03  0.00000000000E+00 0.  1.
        -13    1    3    3    0    0 -0.29964180068E+02  0.37769652726E+02 -0.56709854466E+02  0.74433905901E+02  0.00000000000E+00 0.  1.
         13    1    3    3    0    0  0.11801360166E+02  0.12561364417E+03 -0.39733493269E+03  0.41688500625E+03  0.00000000000E+00 0. -1.
          1    1    1    2  501    0  0.13073708288E+03 -0.21030576510E+03 -0.74276802189E+03  0.78295915220E+03  0.00000000000E+00 0. -1.
<scales pt_clust_5="13000.00000" pt_clust_6="13000.00000" pt_clust_7="13000.00000" pt_clust_8="13000.00000" pt_clust_9="13000.00000"></scales>
<clustering>
<clus scale="   90.629">  7  8 -1 -1</clus>
<clus scale="   91.483">  5  6 -1 -1</clus>
<clus scale="  187.717">  2  7  1 -1</clus>
<clus scale="  170.282">  5  9 -1 -1</clus>
<clus scale="  403.688">  1  5  2 -1</clus>
</clustering>
</event>
<event>
 9    1  0.3312826E-006  0.4458923E+03  0.7546771E-02  0.1084139E+00
         -2   -1    0    0    0  501 -0.00000000000E+00  0.00000000000E+00  0.28187519886E+03  0.28187519886E+03  0.00000000000E+00 0.  1.
         21   -1    0    0  501  502  0.00000000000E+00 -0.00000000000E+00 -0.39633437451E+03  0.39633437451E+03  0.00000000000E+00 0. -1.
         23    2    1    2    0    0  0.22082287468E+02  0.14242920963E+02  0.13707426102E+03  0.16626324116E+03  0.90352775893E+02 0.  0.
         23    2    1    2    0    0 -0.11895455530E+03  0.15188737415E+02 -0.34346447462E+03  0.37519190072E+03  0.91761827939E+02 0.  0.
        -13    1    4    4    0    0 -0.12857438245E+03 -0.40730200230E+01 -0.30673087772E+03  0.33261357859E+03  0.00000000000E+00 0. -1.
         13    1    4    4    0    0  0.96198271514E+01  0.19261757438E+02 -0.36733596901E+02  0.42578322128E+02  0.00000000000E+00 0.  1.
        -13    1    3    3    0    0  0.56639087535E+02  0.17503117413E+02  0.90188869297E+02  0.10792764938E+03  0.00000000000E+00 0.  1.
         13    1    3    3    0    0 -0.34556800068E+02 -0.32601964497E+01  0.46885391720E+02  0.58335591782E+02  0.00000000000E+00 0. -1.
         -2    1    1    2    0  502  0.96872267833E+02 -0.29431658378E+02  0.91931037964E+02  0.13675443149E+03  0.00000000000E+00 0.  1.
<scales pt_clust_5="13000.00000" pt_clust_6="13000.00000" pt_clust_7="13000.00000" pt_clust_8="13000.00000" pt_clust_9="13000.00000"></scales>
<clustering>
<clus scale="   90.353">  7  8 -1 -1</clus>
<clus scale="   91.762">  5  6 -1 -1</clus>
<clus scale="   94.096">  1  7  2 -1</clus>
<clus scale="  117.490">  5  9 -1 -1</clus>
<clus scale="  445.892">  2  5  1 -1</clus>
</clustering>
</event>
<event>
 9    1  0.3312826E-006  0.4387652E+03  0.7546771E-02  0.1084255E+00
          4   -1    0    0  502    0 -0.00000000000E+00  0.00000000000E+00  0.12073839104E+03  0.12073839104E+03  0.00000000000E+00 0. -1.
         21   -1    0    0  501  502  0.00000000000E+00 -0.00000000000E+00 -0.60572910779E+03  0.60572910779E+03  0.00000000000E+00 0. -1.
         23    2    1    2    0    0  0.13532324447E+02 -0.37053353047E+02 -0.58190905156E+02  0.11436214346E+03  0.90202237425E+02 0.  0.
         23    2    1    2    0    0  0.11228471947E+03  0.61349952021E+02  0.99234496377E+01  0.15697080367E+03  0.90386301567E+02 0.  0.
        -11    1    4    4    0    0  0.11529270347E+03  0.23253473220E+02  0.51855270911E+00  0.11761547682E+03  0.00000000000E+00 0.  1.
         11    1    4    4    0    0 -0.30079840018E+01  0.38096478801E+02  0.94048969286E+01  0.39355326844E+02  0.00000000000E+00 0. -1.
        -11    1    3    3    0    0 -0.28457039860E+02 -0.99364623345E+01  0.82200287507E+01  0.31242683527E+02  0.00000000000E+00 0. -1.
         11    1    3    3    0    0  0.41989364307E+02 -0.27116890712E+02 -0.66410933907E+02  0.83119459931E+02  0.00000000000E+00 0.  1.
          4    1    1    2  501    0 -0.12581704392E+03 -0.24296598974E+02 -0.43672326123E+03  0.45513455171E+03  0.00000000000E+00 0. -1.
<scales pt_clust_5="13000.00000" pt_clust_6="13000.00000" pt_clust_7="13000.00000" pt_clust_8="13000.00000" pt_clust_9="13000.00000"></scales>
<clustering>
<clus scale="   90.202">  7  8 -1 -1</clus>
<clus scale="   90.386">  5  6 -1 -1</clus>
<clus scale="   98.451">  1  7  2 -1</clus>
<clus scale="  127.578">  5  9 -1 -1</clus>
<clus scale="  438.765">  2  5  1 -1</clus>
</clustering>
</event>
<event>
 9    1  0.3312826E-006  0.2335368E+03  0.7546771E-02  0.1126622E+00
          2   -1    0    0  502    0 -0.00000000000E+00  0.00000000000E+00  0.14524750720E+04  0.14524750720E+04  0.00000000000E+00 0. -1.
         21   -1    0    0  501  502  0.00000000000E+00 -0.00000000000E+00 -0.37700572686E+02  0.37700572686E+02  0.00000000000E+00 0. -1.
         23    2    1    2    0    0  0.14970106329E+03 -0.13086784025E+03  0.50225315809E+03  0.54824430268E+03  0.93684473872E+02 0.  0.
         23    2    1    2    0    0 -0.10138174946E+03  0.87600848688E+02  0.74724411466E+03  0.76438317877E+03  0.89194782795E+02 0.  0.
        -11    1    3    3    0    0  0.65799942915E+02 -0.93148107526E+02  0.17973322651E+03  0.21286200961E+03  0.00000000000E+00 0. -1.
         11    1    3    3    0    0  0.83901120378E+02 -0.37719732724E+02  0.32251993158E+03  0.33538229307E+03  0.00000000000E+00 0.  1.
        -13    1    4    4    0    0 -0.97646750441E+02  0.32225369781E+02  0.54745892055E+03  0.55703198474E+03  0.00000000000E+00 0. -1.
         13    1    4    4    0    0 -0.37349990233E+01  0.55375478907E+02  0.19978519411E+03  0.20735119403E+03  0.00000000000E+00 0.  1.
          2    1    1    2  501    0 -0.48319313828E+02  0.43266991562E+02  0.16527722655E+03  0.17754816322E+03  0.00000000000E+00 0. -1.
<scales pt_clust_5="13000.00000" pt_clust_6="13000.00000" pt_clust_7="13000.00000" pt_clust_8="13000.00000" pt_clust_9="13000.00000"></scales>
<clustering>
<clus scale="   89.195">  7  8 -1 -1</clus>
<clus scale="   64.860">  7  9 -1 -1</clus>
<clus scale="   93.684">  5  6 -1 -1</clus>
<clus scale="  219.804">  1  5  2 -1</clus>
<clus scale="  233.537">  2  5  1 -1</clus>
</clustering>
</event>
<event>
 9    1  0.3312826E-006  0.4158820E+03  0.7546771E-02  0.1090216E+00
          2   -1    0    0  502    0 -0.00000000000E+00  0.00000000000E+00  0.16012228639E+04  0.16012228639E+04  0.00000000000E+00 0. -1.
         21   -1    0    0  501  502  0.00000000000E+00 -0.00000000000E+00 -0.43408650498E+02  0.43408650498E+02  0.00000000000E+00 0. -1.
         23    2    1    2    0    0 -0.36984903315E+02 -0.18715192042E+02  0.17819398091E+03  0.20369090016E+03  0.89547453838E+02 0.  0.
         23    2    1    2    0    0 -0.66577461990E+02  0.18365146412E+03  0.84199154387E+03  0.86912443382E+03  0.90923609704E+02 0.  0.
        -11    1    4    4    0    0 -0.31335804846E+02  0.17680965734E+03  0.70406878430E+03  0.72660611106E+03  0.00000000000E+00 0. -1.
         11    1    4    4    0    0 -0.35241657144E+02  0.68418067888E+01  0.13792275957E+03  0.14251832277E+03  0.00000000000E+00 0.  1.
        -13    1    3    3    0    0 -0.44906695657E+02 -0.46312517622E+02  0.15075009880E+03  0.16397271996E+03  0.00000000000E+00 0.  1.
         13    1    3    3    0    0  0.79217923418E+01  0.27597325580E+02  0.27443882113E+02  0.39718180201E+02  0.00000000000E+00 0. -1.
          2    1    1    2  501    0  0.10356236530E+03 -0.16493627208E+03  0.53762868865E+03  0.57181618044E+03  0.00000000000E+00 0. -1.
<scales pt_clust_5="13000.00000" pt_clust_6="13000.00000" pt_clust_7="13000.00000" pt_clust_8="13000.00000" pt_clust_9="13000.00000"></scales>
<clustering>
<clus scale="   89.547">  7  8 -1 -1</clus>
<clus scale="   90.924">  5  6 -1 -1</clus>
<clus scale="   98.676">  1  7  2 -1</clus>
<clus scale="  193.933">  5  9 -1 -1</clus>
<clus scale="  415.882">  2  5  1 -1</clus>
</clustering>
</event>
<event>
 9    1  0.3312826E-006  0.3925249E+03  0.7546771E-02  0.1087067E+00
         21   -1    0    0  501  502  0.00000000000E+00  0.00000000000E+00  0.46286491549E+03  0.46286491549E+03  0.00000000000E+00 0. -1.
          3   -1    0    0  502    0 -0.00000000000E+00 -0.00000000000E+00 -0.18202291274E+03  0.18202291274E+03  0.00000000000E+00 0. -1.
         23    2    1    2    0    0  0.11141973569E+03  0.27511090683E+01 -0.44445212359E+02  0.13509614629E+03  0.62077900553E+02 0.  0.
         23    2    1    2    0    0 -0.20615641730E+03  0.82881426609E+01  0.63716832197E+02  0.23137478387E+03  0.83098099866E+02 0.  0.
        -11    1    3    3    0    0  0.12017615674E+02 -0.22059675917E+02 -0.83635933915E+01  0.26476443917E+02  0.00000000000E+00 0.  1.
         11    1    3    3    0    0  0.99402120016E+02  0.24810784986E+02 -0.36081618967E+02  0.10861970237E+03  0.00000000000E+00 0. -1.
        -13    1    4    4    0    0 -0.17924063203E+03  0.30667903317E+02  0.33023645974E+02  0.18481960302E+03  0.00000000000E+00 0. -1.
         13    1    4    4    0    0 -0.26915785269E+02 -0.22379760656E+02  0.30693186223E+02  0.46555180852E+02  0.00000000000E+00 0.  1.
          3    1    1    2  501    0  0.94736681613E+02 -0.11039251729E+02  0.26157038291E+03  0.27841689808E+03  0.00000000000E+00 0. -1.
<scales pt_clust_5="13000.00000" pt_clust_6="13000.00000" pt_clust_7="13000.00000" pt_clust_8="13000.00000" pt_clust_9="13000.00000"></scales>
<clustering>
<clus scale="   62.078">  5  6 -1 -1</clus>
<clus scale="   83.098">  7  8 -1 -1</clus>
<clus scale="   95.378">  7  9 -1 -1</clus>
<clus scale="  127.576">  2  5  1 -1</clus>
<clus scale="  392.525">  1  5  2 -1</clus>
</clustering>
</event>
<event>
 9    1  0.3312826E-006  0.1685478E+03  0.7546771E-02  0.1191376E+00
         -1   -1    0    0    0  501 -0.00000000000E+00  0.00000000000E+00  0.37565006460E+03  0.37565006460E+03  0.00000000000E+00 0.  1.
         21   -1    0    0  501  502  0.00000000000E+00 -0.00000000000E+00 -0.59659006090E+02  0.59659006090E+02  0.00000000000E+00 0. -1.
         23    2    1    2    0    0 -0.59846910464E+02  0.67725135248E+02  0.11329302592E+03  0.17169029464E+03  0.92053793597E+02 0.  0.
         23    2    1    2    0    0  0.34815039786E+02 -0.31174072172E+01  0.12437411973E+03  0.15904636861E+03  0.92763249661E+02 0.  0.
        -13    1    3    3    0    0  0.10248812049E+02  0.38498711525E+02  0.60744542542E+01  0.40299974343E+02  0.00000000000E+00 0. -1.
         13    1    3    3    0    0 -0.70095722512E+02  0.29226423723E+02  0.10721857167E+03  0.13139032030E+03  0.00000000000E+00 0.  1.
        -13    1    4    4    0    0 -0.89134235076E+01 -0.34764234464E+02  0.18897567326E+02  0.40560068631E+02  0.00000000000E+00 0.  1.
         13    1    4    4    0    0  0.43728463293E+02  0.31646827247E+02  0.10547655240E+03  0.11848629998E+03  0.00000000000E+00 0. -1.
         -1    1    1    2    0  502  0.25031870678E+02 -0.64607728031E+02  0.78323912855E+02  0.10457240743E+03  0.00000000000E+00 0.  1.
<scales pt_clust_5="13000.00000" pt_clust_6="13000.00000" pt_clust_7="13000.00000" pt_clust_8="13000.00000" pt_clust_9="13000.00000"></scales>
<clustering>
<clus scale="   92.054">  5  6 -1 -1</clus>
<clus scale="   92.763">  7  8 -1 -1</clus>
<clus scale="   69.288">  7  9 -1 -1</clus>
<clus scale="  129.005">  1  5  2 -1</clus>
<clus scale="  168.548">  2  5  1 -1</clus>
</clustering>
</event>
<event>
 9    1  0.3312826E-006  0.3910750E+03  0.7546771E-02  0.1093969E+00
         21   -1    0    0  501  502  0.00000000000E+00  0.00000000000E+00  0.96256790857E+02  0.96256790857E+02  0.00000000000E+00 0. -1.
          2   -1    0    0  502    0 -0.00000000000E+00 -0.00000000000E+00 -0.89640309498E+03  0.89640309498E+03  0.00000000000E+00 0. -1.
         23    2    1    2    0    0 -0.32618029132E+02 -0.45507161917E+02 -0.46610537486E+03  0.47834187268E+03  0.91770850886E+02 0.  0.
         23    2    1    2    0    0 -0.15819155241E+03  0.67232673330E+02 -0.19702755886E+03  0.27840922162E+03  0.95640138639E+02 0.  0.
        -11    1    4    4    0    0 -0.25332354392E+02 -0.23978830157E+02 -0.26714091236E+02  0.43935807097E+02  0.00000000000E+00 0.  1.
         11    1    4    4    0    0 -0.13285919802E+03  0.91211503487E+02 -0.17031346762E+03  0.23447341453E+03  0.00000000000E+00 0. -1.
        -11    1    3    3    0    0 -0.62398800970E+02 -0.18480967581E+02 -0.23892283183E+03  0.24762729271E+03  0.00000000000E+00 0. -1.
         11    1    3    3    0    0  0.29780771838E+02 -0.27026194336E+02 -0.22718254303E+03  0.23071457997E+03  0.00000000000E+00 0.  1.
          2    1    1    2  501    0  0.19080958154E+03 -0.21725511413E+02 -0.13701337040E+03  0.23590879153E+03  0.00000000000E+00 0. -1.
<scales pt_clust_5="13000.00000" pt_clust_6="13000.00000" pt_clust_7="13000.00000" pt_clust_8="13000.00000" pt_clust_9="13000.00000"></scales>
<clustering>
<clus scale="   91.771">  7  8 -1 -1</clus>
<clus scale="   95.640">  5  6 -1 -1</clus>
<clus scale="  107.502">  2  7  1 -1</clus>
<clus scale="  181.338">  5  9 -1 -1</clus>
<clus scale="  391.075">  1  5  2 -1</clus>
</clustering>
</event>
<event>
 9    1  0.3312826E-006  0.2144228E+03  0.7546771E-02  0.1168001E+00
         21   -1    0    0  501  502  0.00000000000E+00  0.00000000000E+00  0.90052075179E+02  0.90052075179E+02  0.00000000000E+00 0. -1.
          2   -1    0    0  502    0 -0.00000000000E+00 -0.00000000000E+00 -0.31372666721E+03  0.31372666721E+03  0.00000000000E+00 0. -1.
         23    2    1    2    0    0 -0.36676369294E+02  0.38918275843E+02 -0.13525233505E+03  0.17183988298E+03  0.91520287297E+02 0.  0.
         23    2    1    2    0    0  0.18199252433E+02 -0.28155201207E+02 -0.14278816587E+03  0.17351883141E+03  0.92716753597E+02 0.  0.
        -11    1    4    4    0    0  0.36808157783E+02 -0.53652227640E+02 -0.78973924571E+02  0.10232439969E+03  0.00000000000E+00 0.  1.
         11    1    4    4    0    0 -0.18608905350E+02  0.25497026434E+02 -0.63814241296E+02  0.71194431716E+02  0.00000000000E+00 0. -1.
        -13    1    3    3    0    0  0.62725104124E+01  0.45918365334E+02 -0.11471184779E+03  0.12372004156E+03  0.00000000000E+00 0. -1.
         13    1    3    3    0    0 -0.42948879707E+02 -0.70000894908E+01 -0.20540487262E+02  0.48119841416E+02  0.00000000000E+00 0.  1.
          2    1    1    2  501    0  0.18477116861E+02 -0.10763074637E+02  0.54365908883E+02  0.58420028003E+02  0.00000000000E+00 0. -1.
<scales pt_clust_5="13000.00000" pt_clust_6="13000.00000" pt_clust_7="13000.00000" pt_clust_8="13000.00000" pt_clust_9="13000.00000"></scales>
<clustering>
<clus scale="   91.520">  7  8 -1 -1</clus>
<clus scale="   92.717">  5  6 -1 -1</clus>
<clus scale="   21.383">  5  9 -1 -1</clus>
<clus scale="  105.999">  2  7  1 -1</clus>
<clus scale="  214.423">  1  5  2 -1</clus>
</clustering>
</event>
<event>
 9    1  0.3312826E-006  0.3729297E+03  0.7546771E-02  0.1089746E+00
         -2   -1    0    0    0  501 -0.00000000000E+00  0.00000000000E+00  0.33519972530E+03  0.33519972530E+03  0.00000000000E+00 0.  1.
         21   -1    0    0  501  502  0.00000000000E+00 -0.00000000000E+00 -0.21107278321E+03  0.21107278321E+03  0.00000000000E+00 0.  1.
         23    2    1    2    0    0 -0.40994304516E+02  0.96189943456E+02  0.10317552453E+03  0.17275475327E+03  0.90917422367E+02 0.  0.
         23    2    1    2    0    0  0.66587860787E+02 -0.93848741537E+02  0.16862887901E+03  0.22362064396E+03  0.91263158381E+02 0.  0.
        -11    1    4    4    0    0 -0.11504778104E+02 -0.16806914135E+02  0.80118338150E+02  0.82666682465E+02  0.00000000000E+00 0.  1.
         11    1    4    4    0    0  0.78092638891E+02 -0.77041827402E+02  0.88510540862E+02  0.14095396150E+03  0.00000000000E+00 0. -1.
        -11    1    3    3    0    0 -0.69866069383E+02  0.73870551833E+02  0.81510142482E+02  0.13031511580E+03  0.00000000000E+00 0.  1.
         11    1    3    3    0    0  0.28871764867E+02  0.22319391624E+02  0.21665382047E+02  0.42439637466E+02  0.00000000000E+00 0. -1.
         -2    1    1    2    0  502 -0.25593556271E+02 -0.23412019191E+01 -0.14767746145E+03  0.14989711128E+03  0.00000000000E+00 0.  1.
<scales pt_clust_5="13000.00000" pt_clust_6="13000.00000" pt_clust_7="13000.00000" pt_clust_8="13000.00000" pt_clust_9="13000.00000"></scales>
<clustering>
<clus scale="   90.917">  7  8 -1 -1</clus>
<clus scale="   91.263">  5  6 -1 -1</clus>
<clus scale="   25.700">  5  9 -1 -1</clus>
<clus scale="  138.561">  1  7  2 -1</clus>
<clus scale="  372.930">  2  5  1 -1</clus>
</clustering>
</event>
<event>
 9    1  0.3312826E-006  0.2572688E+03  0.7546771E-02  0.1137201E+00
          2   -1    0    0  502    0 -0.00000000000E+00  0.00000000000E+00  0.95113058732E+03  0.95113058732E+03  0.00000000000E+00 0. -1.
         21   -1    0    0  501  502  0.00000000000E+00 -0.00000000000E+00 -0.47630761051E+02  0.47630761051E+02  0.00000000000E+00 0.  1.
         23    2    1    2    0    0 -0.97786151833E+01 -0.91486486205E+02  0.12213778452E+03  0.17613512901E+03  0.87410221311E+02 0.  0.
         23    2    1    2    0    0 -0.60085054775E+01  0.10651514334E+03  0.78756737161E+03  0.79996347830E+03  0.91091294310E+02 0.  0.
        -11    1    4    4    0    0  0.36666237404E+02  0.15727048653E+02  0.21300219304E+03  0.21670645414E+03  0.00000000000E+00 0. -1.
         11    1    4    4    0    0 -0.42674742882E+02  0.90788094682E+02  0.57456517856E+03  0.58325702416E+03  0.00000000000E+00 0.  1.
        -11    1    3    3    0    0 -0.13951369148E+02 -0.16121675977E+02 -0.10315588039E+02  0.23684604578E+02  0.00000000000E+00 0.  1.
         11    1    3    3    0    0  0.41727539647E+01 -0.75364810228E+02  0.13245337256E+03  0.15245052443E+03  0.00000000000E+00 0. -1.
          2    1    1    2  501    0  0.15787120661E+02 -0.15028657130E+02 -0.62053298567E+01  0.22662741064E+02  0.00000000000E+00 0. -1.
<scales pt_clust_5="13000.00000" pt_clust_6="13000.00000" pt_clust_7="13000.00000" pt_clust_8="13000.00000" pt_clust_9="13000.00000"></scales>
<clustering>
<clus scale="   87.410">  7  8 -1 -1</clus>
<clus scale="   91.091">  5  6 -1 -1</clus>
<clus scale="   21.797">  5  9 -1 -1</clus>
<clus scale="  126.909">  1  7  2 -1</clus>
<clus scale="  257.269">  2  5  1 -1</clus>
</clustering>
</event>
<event>
 9    1  0.3312826E-006  0.3086074E+03  0.7546771E-02  0.1106181E+00
          1   -1    0    0  502    0 -0.00000000000E+00  0.00000000000E+00  0.51859087603E+03  0.51859087603E+03  0.00000000000E+00 0. -1.
         21   -1    0    0  501  502  0.00000000000E+00 -0.00000000000E+00 -0.11613696083E+03  0.11613696083E+03  0.00000000000E+00 0. -1.
         23    2    1    2    0    0 -0.15296679362E+02 -0.13011989861E+03  0.23407680632E+03  0.28317505687E+03  0.90724777016E+02 0.  0.
         23    2    1    2    0    0  0.49152272389E+02 -0.32081477553E+02  0.15073718049E+03  0.18491948596E+03  0.89601069312E+02 0.  0.
        -11    1    4    4    0    0 -0.64975748124E+00 -0.50814577790E+02  0.51703376915E+02  0.72496777068E+02  0.00000000000E+00 0. -1.
         11    1    4    4    0    0  0.49802029870E+02  0.18733100237E+02  0.99033803575E+02  0.11242270889E+03  0.00000000000E+00 0.  1.
        -13    1    3    3    0    0  0.27947129720E+02 -0.33702839845E+02  0.29123543282E+02  0.52584258543E+02  0.00000000000E+00 0.  1.
         13    1    3    3    0    0 -0.43243809082E+02 -0.96417058760E+02  0.20495326304E+03  0.23059079833E+03  0.00000000000E+00 0. -1.
          1    1    1    2  501    0 -0.33855593027E+02  0.16220137616E+03  0.17639928391E+02  0.16663329403E+03  0.00000000000E+00 0. -1.
<scales pt_clust_5="13000.00000" pt_clust_6="13000.00000" pt_clust_7="13000.00000" pt_clust_8="13000.00000" pt_clust_9="13000.00000"></scales>
<clustering>
<clus scale="   89.601">  5  6 -1 -1</clus>
<clus scale="   90.725">  7  8 -1 -1</clus>
<clus scale="  159.362">  1  7  2 -1</clus>
<clus scale="  122.549">  5  9 -1 -1</clus>
<clus scale="  308.607">  2  5  1 -1</clus>
</clustering>
</event>
<event>
 9    1  0.3312826E-006  0.6225150E+03  0.7546771E-02  0.1047176E+00
          1   -1    0    0  502    0 -0.00000000000E+00  0.00000000000E+00  0.25460022141E+03  0.25460022141E+03  0.00000000000E+00 0. -1.
         21   -1    0    0  501  502  0.00000000000E+00 -0.00000000000E+00 -0.57975597229E+03  0.57975597229E+03  0.00000000000E+00 0.  1.
         23    2    1    2    0    0 -0.30683304850E+02 -0.24914811550E+02  0.49062183129E+02  0.10802022926E+03  0.87744282344E+02 0.  0.
         23    2    1    2    0    0  0.25941659880E+03  0.11101144167E+03 -0.21044060058E+02  0.29684401490E+03  0.89738535774E+02 0.  0.
        -11    1    4    4    0    0  0.44981150468E+02  0.18910473763E+02  0.30899697425E+02  0.57755529747E+02  0.00000000000E+00 0.  1.
         11    1    4    4    0    0  0.21443544833E+03  0.92100967906E+02 -0.51943757483E+02  0.23908848515E+03  0.00000000000E+00 0. -1.
        -13    1    3    3    0    0  0.56294032089E+01 -0.44950845902E+02  0.48744535619E+02  0.66545461757E+02  0.00000000000E+00 0. -1.
         13    1    3    3    0    0 -0.36312708059E+02  0.20036034351E+02  0.31764750968E+00  0.41474767498E+02  0.00000000000E+00 0.  1.
          1    1    1    2  501    0 -0.22873329395E+03 -0.86096630119E+02 -0.35317387395E+03  0.42949194954E+03  0.00000000000E+00 0. -1.
<scales pt_clust_5="13000.00000" pt_clust_6="13000.00000" pt_clust_7="13000.00000" pt_clust_8="13000.00000" pt_clust_9="13000.00000"></scales>
<clustering>
<clus scale="   87.744">  7  8 -1 -1</clus>
<clus scale="   89.739">  5  6 -1 -1</clus>
<clus scale="   96.236">  1  7  2 -1</clus>
<clus scale="  252.541">  5  9 -1 -1</clus>
<clus scale="  622.515">  2  5  1 -1</clus>
</clustering>
</event>
<event>
 9    1  0.3312826E-006  0.3345732E+03  0.7546771E-02  0.1116198E+00
         21   -1    0    0  501  502  0.00000000000E+00  0.00000000000E+00  0.20029193847E+03  0.20029193847E+03  0.00000000000E+00 0.  1.
          2   -1    0    0  502    0 -0.00000000000E+00 -0.00000000000E+00 -0.56014760174E+03  0.56014760174E+03  0.00000000000E+00 0.  1.
         23    2    1    2    0    0 -0.32555581199E+02  0.43949211854E+01 -0.41073250803E+03  0.42202015354E+03  0.91217518302E+02 0.  0.
         23    2    1    2    0    0 -0.73153630979E+02 -0.10675790647E+03 -0.40676664615E+02  0.16511427025E+03  0.94124528551E+02 0.  0.
        -13    1    4    4    0    0 -0.30358061129E+02 -0.79562775551E+02 -0.66654235173E+02  0.10814173198E+03  0.00000000000E+00 0.  1.
         13    1    4    4    0    0 -0.42795569850E+02 -0.27195130922E+02  0.25977570557E+02  0.56972538268E+02  0.00000000000E+00 0. -1.
        -13    1    3    3    0    0 -0.63398938263E+02  0.57799807919E+01 -0.22902834548E+03  0.23771162484E+03  0.00000000000E+00 0.  1.
         13    1    3    3    0    0  0.30843357063E+02 -0.13850596065E+01 -0.18170416254E+03  0.18430852870E+03  0.00000000000E+00 0. -1.
          2    1    1    2  501    0  0.10570921218E+03  0.10236298529E+03  0.91553509377E+02  0.17330511642E+03  0.00000000000E+00 0.  1.
<scales pt_clust_5="13000.00000" pt_clust_6="13000.00000" pt_clust_7="13000.00000" pt_clust_8="13000.00000" pt_clust_9="13000.00000"></scales>
<clustering>
<clus scale="   91.218">  7  8 -1 -1</clus>
<clus scale="   94.125">  5  6 -1 -1</clus>
<clus scale="   96.953">  2  7  1 -1</clus>
<clus scale="  141.559">  5  9 -1 -1</clus>
<clus scale="  334.573">  1  5  2 -1</clus>
</clustering>
</event>
<event>
 9    1  0.3312826E-006  0.1669003E+03  0.7546771E-02  0.1200082E+00
         21   -1    0    0  501  502  0.00000000000E+00  0.00000000000E+00  0.86208141078E+02  0.86208141078E+02  0.00000000000E+00 0.  1.
          1   -1    0    0  502    0 -0.00000000000E+00 -0.00000000000E+00 -0.25667009780E+03  0.25667009780E+03  0.00000000000E+00 0. -1.
         23    2    1    2    0    0 -0.66374371348E+02  0.38666888746E+01 -0.13180468245E+03  0.17155953316E+03  0.87405323915E+02 0.  0.
         23    2    1    2    0    0  0.50681034704E+02 -0.44341121636E+02  0.23394958222E+01  0.11160944613E+03  0.88974675483E+02 0.  0.
        -11    1    3    3    0    0  0.12563121791E+02 -0.22978729165E+02 -0.36626847554E+02  0.45026436512E+02  0.00000000000E+00 0. -1.
         11    1    3    3    0    0 -0.78937493139E+02  0.26845418040E+02 -0.95177834891E+02  0.12653309665E+03  0.00000000000E+00 0.  1.
        -13    1    4    4    0    0  0.73013477065E+02 -0.14804919121E+02 -0.11553747424E+00  0.74499441690E+02  0.00000000000E+00 0. -1.
         13    1    4    4    0    0 -0.22332442360E+02 -0.29536202515E+02  0.24550332965E+01  0.37110004436E+02  0.00000000000E+00 0.  1.
          1    1    1    2  501    0  0.15693336643E+02  0.40474432762E+02 -0.40996770096E+02  0.59709259589E+02  0.00000000000E+00 0. -1.
<scales pt_clust_5="13000.00000" pt_clust_6="13000.00000" pt_clust_7="13000.00000" pt_clust_8="13000.00000" pt_clust_9="13000.00000"></scales>
<clustering>
<clus scale="   87.405">  5  6 -1 -1</clus>
<clus scale="   88.975">  7  8 -1 -1</clus>
<clus scale="   43.410">  7  9 -1 -1</clus>
<clus scale="  109.819">  2  5  1 -1</clus>
<clus scale="  166.900">  1  5  2 -1</clus>
</clustering>
</event>
<event>
 9    1  0.3312826E-006  0.4532265E+03  0.7546771E-02  0.1046667E+00
         21   -1    0    0  501  502  0.00000000000E+00  0.00000000000E+00  0.14329403940E+03  0.14329403940E+03  0.00000000000E+00 0.  1.
         -1   -1    0    0    0  501 -0.00000000000E+00 -0.00000000000E+00 -0.11429654652E+04  0.11429654652E+04  0.00000000000E+00 0.  1.
         23    2    1    2    0    0 -0.22994093803E+03  0.53896662412E+02 -0.69635352533E+03  0.74090092448E+03  0.90819945232E+02 0.  0.
         23    2    1    2    0    0  0.74988118183E+02 -0.54888215983E+02 -0.35878948450E+03  0.38077286933E+03  0.87304923713E+02 0.  0.
        -11    1    4    4    0    0  0.20032470891E+02 -0.59557120708E+02 -0.11735211988E+03  0.13311600414E+03  0.00000000000E+00 0. -1.
         11    1    4    4    0    0  0.54955647293E+02  0.46689047256E+01 -0.24143736462E+03  0.24765686519E+03  0.00000000000E+00 0.  1.
        -11    1    3    3    0    0 -0.10495983372E+03  0.20837657468E+02 -0.18754772766E+03  0.21592805472E+03  0.00000000000E+00 0. -1.
         11    1    3    3    0    0 -0.12498110431E+03  0.33059004943E+02 -0.50880579768E+03  0.52497286977E+03  0.00000000000E+00 0.  1.
         -1    1    1    2    0  502  0.15495281985E+03  0.99155357101E+00  0.55471584036E+02  0.16458571078E+03  0.00000000000E+00 0.  1.
<scales pt_clust_5="13000.00000" pt_clust_6="13000.00000" pt_clust_7="13000.00000" pt_clust_8="13000.00000" pt_clust_9="13000.00000"></scales>
<clustering>
<clus scale="   87.305">  5  6 -1 -1</clus>
<clus scale="   90.820">  7  8 -1 -1</clus>
<clus scale="  154.956">  5  9 -1 -1</clus>
<clus scale="  253.033">  2  7  1 -1</clus>
<clus scale="  453.226">  1  5  2 -1</clus>
</clustering>
</event>
<event>
 9    1  0.3312826E-006  0.4183129E+03  0.7546771E-02  0.1091668E+00
         21   -1    0    0  501  502  0.00000000000E+00  0.00000000000E+00  0.11268763375E+03  0.11268763375E+03  0.00000000000E+00 0.  1.
          3   -1    0    0  502    0 -0.00000000000E+00 -0.00000000000E+00 -0.68979491322E+03  0.68979491322E+03  0.00000000000E+00 0. -1.
         23    2    1    2    0    0 -0.18887336573E+02  0.15991738395E+01 -0.26388050679E+03  0.27989604082E+03  0.91376052463E+02 0.  0.
         23    2    1    2    0    0  0.11065361265E+03  0.17257333066E+03 -0.13448617794E+03  0.25668180338E+03  0.75981837847E+02 0.  0.
        -11    1    4    4    0    0  0.59457314520E+02  0.11177089411E+03 -0.12274117101E+03  0.17633292398E+03  0.00000000000E+00 0.  1.
         11    1    4    4    0    0  0.51196298127E+02  0.60802436549E+02 -0.11745006929E+02  0.80348879395E+02  0.00000000000E+00 0. -1.
        -11    1    3    3    0    0  0.28139165443E+02 -0.11877254736E+02 -0.37870613150E+02  0.48652493792E+02  0.00000000000E+00 0. -1.
         11    1    3    3    0    0 -0.47026502016E+02  0.13476428575E+02 -0.22600989364E+03  0.23124354703E+03  0.00000000000E+00 0.  1.
          3    1    1    2  501    0 -0.91766276075E+02 -0.17417250450E+03 -0.17874059474E+03  0.26590470277E+03  0.00000000000E+00 0. -1.
<scales pt_clust_5="13000.00000" pt_clust_6="13000.00000" pt_clust_7="13000.00000" pt_clust_8="13000.00000" pt_clust_9="13000.00000"></scales>
<clustering>
<clus scale="   75.982">  5  6 -1 -1</clus>
<clus scale="   91.376">  7  8 -1 -1</clus>
<clus scale="   93.321">  2  7  1 -1</clus>
<clus scale="  201.014">  5  9 -1 -1</clus>
<clus scale="  418.313">  1  5  2 -1</clus>
</clustering>
</event>
<event>
 9    1  0.3312826E-006  0.5556752E+03  0.7546771E-02  0.1043814E+00
         21   -1    0    0  501  502  0.00000000000E+00  0.00000000000E+00  0.74575498165E+03  0.74575498165E+03  0.00000000000E+00 0.  1.
         -1   -1    0    0    0  501 -0.00000000000E+00 -0.00000000000E+00 -0.18104395895E+03  0.18104395895E+03  0.00000000000E+00 0.  1.
         23    2    1    2    0    0  0.12722344151E+03 -0.10282037066E+02  0.23098260079E+02  0.15083546439E+03  0.76982357345E+02 0.  0.
         23    2    1    2    0    0  0.51585655745E+01  0.20990874443E+03  0.55254592753E+02  0.23381950318E+03  0.86776714955E+02 0.  0.
        -13    1    4    4    0    0 -0.28638060883E+02  0.11702135035E+03  0.60546379221E+02  0.13483322664E+03  0.00000000000E+00 0. -1.
         13    1    4    4    0    0  0.33796626458E+02  0.92887394085E+02 -0.52917864673E+01  0.98986276543E+02  0.00000000000E+00 0.  1.
        -13    1    3    3    0    0  0.35957113673E+02 -0.34978997718E+02 -0.90432085489E+01  0.50972776321E+02  0.00000000000E+00 0. -1.
         13    1    3    3    0    0  0.91266327835E+02  0.24696960652E+02  0.32141468627E+02  0.99862688064E+02  0.00000000000E+00 0.  1.
         -1    1    1    2    0  502 -0.13238200708E+03 -0.19962670737E+03  0.48635816987E+03  0.54214397303E+03  0.00000000000E+00 0.  1.
<scales pt_clust_5="13000.00000" pt_clust_6="13000.00000" pt_clust_7="13000.00000" pt_clust_8="13000.00000" pt_clust_9="13000.00000"></scales>
<clustering>
<clus scale="   76.982">  7  8 -1 -1</clus>
<clus scale="   86.777">  5  6 -1 -1</clus>
<clus scale="  149.056">  2  7  1 -1</clus>
<clus scale="  226.402">  5  9 -1 -1</clus>
<clus scale="  555.675">  1  5  2 -1</clus>
</clustering>
</event>
<event>
 9    1  0.3312826E-006  0.2637872E+03  0.7546771E-02  0.1143795E+00
          3   -1    0    0  502    0 -0.00000000000E+00  0.00000000000E+00  0.33795418010E+03  0.33795418010E+03  0.00000000000E+00 0. -1.
         21   -1    0    0  501  502  0.00000000000E+00 -0.00000000000E+00 -0.12849071961E+03  0.12849071961E+03  0.00000000000E+00 0.  1.
         23    2    1    2    0    0  0.33152423316E+02 -0.26632300622E+02 -0.35435156697E+02  0.10650183273E+03  0.90986963002E+02 0.  0.
         23    2    1    2    0    0  0.24304291466E+02 -0.29828784850E+02  0.25985042489E+03  0.27801209116E+03  0.91038588109E+02 0.  0.
        -11    1    3    3    0    0  0.45987169602E+02  0.99808929947E+01  0.85742190216E+01  0.47832574934E+02  0.00000000000E+00 0. -1.
         11    1    3    3    0    0 -0.12834746286E+02 -0.36613193617E+02 -0.44009375718E+02  0.58669257795E+02  0.00000000000E+00 0.  1.
        -11    1    4    4    0    0 -0.31303910988E+02  0.46203733741E+01  0.11100061456E+03  0.11542278426E+03  0.00000000000E+00 0. -1.
         11    1    4    4    0    0  0.55608202454E+02 -0.34449158225E+02  0.14884981033E+03  0.16258930690E+03  0.00000000000E+00 0.  1.
          3    1    1    2  501    0 -0.57456714782E+02  0.56461085473E+02 -0.14951807708E+02  0.81930975827E+02  0.00000000000E+00 0. -1.
<scales pt_clust_5="13000.00000" pt_clust_6="13000.00000" pt_clust_7="13000.00000" pt_clust_8="13000.00000" pt_clust_9="13000.00000"></scales>
<clustering>
<clus scale="   90.987">  5  6 -1 -1</clus>
<clus scale="   91.039">  7  8 -1 -1</clus>
<clus scale="   80.555">  7  9 -1 -1</clus>
<clus scale="  100.434">  1  5  2 -1</clus>
<clus scale="  263.787">  2  5  1 -1</clus>
</clustering>
</event>
<event>
 9    1  0.3312826E-006  0.1741689E+03  0.7546771E-02  0.1194163E+00
         -3   -1    0    0    0  501 -0.00000000000E+00  0.00000000000E+00  0.86790742249E+02  0.86790742249E+02  0.00000000000E+00 0.  1.
         21   -1    0    0  501  502  0.00000000000E+00 -0.00000000000E+00 -0.26295469055E+03  0.26295469055E+03  0.00000000000E+00 0. -1.
         23    2    1    2    0    0  0.14177677501E+02 -0.22838495736E+02 -0.12858900234E+03  0.16919580209E+03  0.10662778482E+03 0.  0.
         23    2    1    2    0    0 -0.37976779363E+02  0.55814874114E+02 -0.70513606437E+02  0.13385893650E+03  0.91588810694E+02 0.  0.
        -11    1    3    3    0    0  0.44651869546E+02 -0.30625121764E+02 -0.12658496247E+03  0.13767875747E+03  0.00000000000E+00 0.  1.
         11    1    3    3    0    0 -0.30474192045E+02  0.77866260277E+01 -0.20040398745E+01  0.31517044619E+02  0.00000000000E+00 0. -1.
        -11    1    4    4    0    0 -0.12568136813E+02 -0.17243747745E+02  0.87912879114E+01  0.23077947101E+02  0.00000000000E+00 0.  1.
         11    1    4    4    0    0 -0.25408642550E+02  0.73058621859E+02 -0.79304894349E+02  0.11078098940E+03  0.00000000000E+00 0. -1.
         -3    1    1    2    0  502  0.23799101862E+02 -0.32976378378E+02  0.22938660483E+02  0.46690694203E+02  0.00000000000E+00 0.  1.
<scales pt_clust_5="13000.00000" pt_clust_6="13000.00000" pt_clust_7="13000.00000" pt_clust_8="13000.00000" pt_clust_9="13000.00000"></scales>
<clustering>
<clus scale="   91.589">  7  8 -1 -1</clus>
<clus scale="   40.667">  7  9 -1 -1</clus>
<clus scale="  106.628">  5  6 -1 -1</clus>
<clus scale="  109.964">  1  5  2 -1</clus>
<clus scale="  174.169">  2  5  1 -1</clus>
</clustering>
</event>
<event>
 9    1  0.3312826E-006  0.1650171E+03  0.7546771E-02  0.1204533E+00
          1   -1    0    0  502    0 -0.00000000000E+00  0.00000000000E+00  0.11430024390E+03  0.11430024390E+03  0.00000000000E+00 0. -1.
         21   -1    0    0  501  502  0.00000000000E+00 -0.00000000000E+00 -0.15737205981E+03  0.15737205981E+03  0.00000000000E+00 0. -1.
         23    2    1    2    0    0 -0.18639640859E+02  0.29555743473E+02 -0.14664726715E+02  0.10422800653E+03  0.97095030520E+02 0.  0.
         23    2    1    2    0    0 -0.27689741093E+02 -0.45181828728E+01  0.17860490123E+02  0.97344511382E+02  0.91486726089E+02 0.  0.
        -11    1    3    3    0    0 -0.37250123886E+02 -0.21916471084E+02 -0.22846926202E+02  0.48886454884E+02  0.00000000000E+00 0.  1.
         11    1    3    3    0    0  0.18610483027E+02  0.51472214557E+02  0.81821994866E+01  0.55341551644E+02  0.00000000000E+00 0. -1.
        -11    1    4    4    0    0 -0.54344503563E+02 -0.18727667386E+02  0.29942485749E+02  0.64812059418E+02  0.00000000000E+00 0. -1.
         11    1    4    4    0    0  0.26654762469E+02  0.14209484513E+02 -0.12081995627E+02  0.32532451963E+02  0.00000000000E+00 0.  1.
          1    1    1    2  501    0  0.46329381952E+02 -0.25037560601E+02 -0.46267579321E+02  0.70099785799E+02  0.00000000000E+00 0. -1.
<scales pt_clust_5="13000.00000" pt_clust_6="13000.00000" pt_clust_7="13000.00000" pt_clust_8="13000.00000" pt_clust_9="13000.00000"></scales>
<clustering>
<clus scale="   91.487">  7  8 -1 -1</clus>
<clus scale="   52.662">  7  9 -1 -1</clus>
<clus scale="   97.095">  5  6 -1 -1</clus>
<clus scale="  103.191">  1  5  2 -1</clus>
<clus scale="  165.017">  2  5  1 -1</clus>
</clustering>
</event>
<event>
 9    1  0.3312826E-006  0.3738881E+03  0.7546771E-02  0.1098945E+00
         21   -1    0    0  501  502  0.00000000000E+00  0.00000000000E+00  0.56376888457E+02  0.56376888457E+02  0.00000000000E+00 0. -1.
          1   -1    0    0  502    0 -0.00000000000E+00 -0.00000000000E+00 -0.11053742748E+04  0.11053742748E+04  0.00000000000E+00 0. -1.
         23    2    1    2    0    0 -0.18506576773E+02 -0.55476564718E+02 -0.38341375351E+03  0.39834176364E+03  0.90829024354E+02 0.  0.
         23    2    1    2    0    0  0.16735007286E+03  0.41429005731E+02 -0.51121243380E+03  0.54850898702E+03  0.99002762412E+02 0.  0.
        -11    1    3    3    0    0 -0.54708060901E+02 -0.23770739468E+02 -0.19848618713E+03  0.20725536535E+03  0.00000000000E+00 0.  1.
         11    1    3    3    0    0  0.36201484128E+02 -0.31705825249E+02 -0.18492756638E+03  0.19108639830E+03  0.00000000000E+00 0. -1.
        -11    1    4    4    0    0  0.14101833652E+01 -0.20427778507E+02 -0.74300264461E+02  0.77070176144E+02  0.00000000000E+00 0.  1.
         11    1    4    4    0    0  0.16593988949E+03  0.61856784238E+02 -0.43691216934E+03  0.47143881087E+03  0.00000000000E+00 0. -1.
          1    1    1    2  501    0 -0.14884349608E+03  0.14047558987E+02 -0.15437119900E+03  0.21490041256E+03  0.00000000000E+00 0. -1.
<scales pt_clust_5="13000.00000" pt_clust_6="13000.00000" pt_clust_7="13000.00000" pt_clust_8="13000.00000" pt_clust_9="13000.00000"></scales>
<clustering>
<clus scale="   90.829">  5  6 -1 -1</clus>
<clus scale="   99.003">  7  8 -1 -1</clus>
<clus scale="  108.028">  2  5  1 -1</clus>
<clus scale="  153.626">  7  9 -1 -1</clus>
<clus scale="  373.888">  1  5  2 -1</clus>
</clustering>
</event>
<event>
 9    1  0.3312826E-006  0.1546385E+03  0.7546771E-02  0.1215190E+00
         21   -1    0    0  501  502  0.00000000000E+00  0.00000000000E+00  0.16669351335E+03  0.16669351335E+03  0.00000000000E+00 0.  1.
          1   -1    0    0  502    0 -0.00000000000E+00 -0.00000000000E+00 -0.12841710375E+03  0.12841710375E+03  0.00000000000E+00 0. -1.
         23    2    1    2    0    0 -0.28878708023E+02  0.32122991660E+02 -0.55506327847E+02  0.11425638195E+03  0.90042778805E+02 0.  0.
         23    2    1    2    0    0 -0.16230307995E+02 -0.32948845612E+02  0.39322010735E+02  0.11013312010E+03  0.96093882690E+02 0.  0.
        -13    1    4    4    0    0  0.19737161554E+02  0.25934736627E+02  0.46787417725E+01  0.32925016852E+02  0.00000000000E+00 0. -1.
         13    1    4    4    0    0 -0.35967469549E+02 -0.58883582239E+02  0.34643268963E+02  0.77208103250E+02  0.00000000000E+00 0.  1.
        -13    1    3    3    0    0 -0.37606867577E+02 -0.16303622424E+02 -0.50133750814E+02  0.64757065744E+02  0.00000000000E+00 0.  1.
         13    1    3    3    0    0  0.87281595536E+01  0.48426614084E+02 -0.53725770323E+01  0.49499316206E+02  0.00000000000E+00 0. -1.
          1    1    1    2  501    0  0.45109016019E+02  0.82585395219E+00  0.54460726712E+02  0.70721115057E+02  0.00000000000E+00 0. -1.
<scales pt_clust_5="13000.00000" pt_clust_6="13000.00000" pt_clust_7="13000.00000" pt_clust_8="13000.00000" pt_clust_9="13000.00000"></scales>
<clustering>
<clus scale="   90.043">  7  8 -1 -1</clus>
<clus scale="   96.094">  5  6 -1 -1</clus>
<clus scale="   45.117">  5  9 -1 -1</clus>
<clus scale="   99.868">  2  7  1 -1</clus>
<clus scale="  154.638">  1  5  2 -1</clus>
</clustering>
</event>
<event>
 9    1  0.3312826E-006  0.1273721E+03  0.7546771E-02  0.1242460E+00
          2   -1    0    0  502    0 -0.00000000000E+00  0.00000000000E+00  0.41854487192E+03  0.41854487192E+03  0.00000000000E+00 0. -1.
         21   -1    0    0  501  502  0.00000000000E+00 -0.00000000000E+00 -0.32550072494E+02  0.32550072494E+02  0.00000000000E+00 0.  1.
         23    2    1    2    0    0  0.83270715139E+01 -0.56735170299E+02  0.21555758816E+03  0.23832158388E+03  0.83927849127E+02 0.  0.
         23    2    1    2    0    0 -0.22545630838E+02  0.30704060339E+02  0.13192529146E+03  0.16416313443E+03  0.89967813066E+02 0.  0.
        -11    1    4    4    0    0 -0.30421637845E+02 -0.25912073675E+02  0.63187756846E+02  0.74763655786E+02  0.00000000000E+00 0. -1.
         11    1    4    4    0    0  0.78760070065E+01  0.56616134014E+02  0.68737534612E+02  0.89399478643E+02  0.00000000000E+00 0.  1.
        -11    1    3    3    0    0  0.35621618584E+02 -0.24204980391E+01  0.46220341359E+02  0.58404438844E+02  0.00000000000E+00 0.  1.
         11    1    3    3    0    0 -0.27294547070E+02 -0.54314672260E+02  0.16933724680E+03  0.17991714503E+03  0.00000000000E+00 0. -1.
          2    1    1    2  501    0  0.14218559324E+02  0.26031109960E+02  0.38511919807E+02  0.48610226108E+02  0.00000000000E+00 0. -1.
<scales pt_clust_5="13000.00000" pt_clust_6="13000.00000" pt_clust_7="13000.00000" pt_clust_8="13000.00000" pt_clust_9="13000.00000"></scales>
<clustering>
<clus scale="   83.928">  7  8 -1 -1</clus>
<clus scale="   89.968">  5  6 -1 -1</clus>
<clus scale="   29.661">  5  9 -1 -1</clus>
<clus scale="  101.647">  1  7  2 -1</clus>
<clus scale="  127.372">  2  5  1 -1</clus>
</clustering>
</event>
<event>
 9    1  0.3312826E-006  0.1846976E+03  0.7546771E-02  0.1188491E+00
          3   -1    0    0  502    0 -0.00000000000E+00  0.00000000000E+00  0.76506710519E+02  0.76506710519E+02  0.00000000000E+00 0. -1.
         21   -1    0    0  501  502  0.00000000000E+00 -0.00000000000E+00 -0.27328069736E+03  0.27328069736E+03  0.00000000000E+00 0.  1.
         23    2    1    2    0    0 -0.34814555350E+01 -0.52346167248E+02 -0.70334927791E+02  0.12595698971E+03  0.90365476992E+02 0.  0.
         23    2    1    2    0    0  0.25683746943E+02  0.30420601293E+02  0.13892127158E+01  0.92248735365E+02  0.83203554157E+02 0.  0.
        -11    1    4    4    0    0  0.18340975413E+01 -0.28543953645E+02 -0.66140669656E+00  0.28610464210E+02  0.00000000000E+00 0.  1.
         11    1    4    4    0    0  0.23849649402E+02  0.58964554938E+02  0.20506194124E+01  0.63638271155E+02  0.00000000000E+00 0. -1.
        -13    1    3    3    0    0 -0.40041227051E+02 -0.53044725759E+02 -0.55149913187E+02  0.86362930237E+02  0.00000000000E+00 0.  1.
         13    1    3    3    0    0  0.36559771516E+02  0.69855851137E+00 -0.15185014604E+02  0.39594059476E+02  0.00000000000E+00 0. -1.
          3    1    1    2  501    0 -0.22202291408E+02  0.21925565955E+02 -0.12782827176E+03  0.13158168280E+03  0.00000000000E+00 0. -1.
<scales pt_clust_5="13000.00000" pt_clust_6="13000.00000" pt_clust_7="13000.00000" pt_clust_8="13000.00000" pt_clust_9="13000.00000"></scales>
<clustering>
<clus scale="   83.204">  5  6 -1 -1</clus>
<clus scale="   31.204">  5  9 -1 -1</clus>
<clus scale="   90.365">  7  8 -1 -1</clus>
<clus scale="  104.490">  1  7  2 -1</clus>
<clus scale="  184.698">  2  5  1 -1</clus>
</clustering>
</event>
<event>
 9    1  0.3312826E-006  0.1617243E+03  0.7546771E-02  0.1195618E+00
          1   -1    0    0  502    0 -0.00000000000E+00  0.00000000000E+00  0.72087989545E+03  0.72087989545E+03  0.00000000000E+00 0. -1.
         21   -1    0    0  501  502  0.00000000000E+00 -0.00000000000E+00 -0.33294052452E+02  0.33294052452E+02  0.00000000000E+00 0.  1.
         23    2    1    2    0    0  0.81633550805E+02 -0.23267943075E+00  0.42922566223E+03  0.44937119309E+03  0.10505098430E+03 0.  0.
         23    2    1    2    0    0 -0.90076418288E+02 -0.19170545734E+02  0.23696877280E+03  0.27471356252E+03  0.10407723668E+03 0.  0.
        -13    1    3    3    0    0  0.11368126528E+02  0.43682256917E+02  0.97304374797E+02  0.10726376473E+03  0.00000000000E+00 0.  1.
         13    1    3    3    0    0  0.70265424278E+02 -0.43914936347E+02  0.33192128744E+03  0.34210742836E+03  0.00000000000E+00 0. -1.
        -13    1    4    4    0    0 -0.85239056018E+02 -0.55872633224E+02  0.17649370503E+03  0.20380744768E+03  0.00000000000E+00 0.  1.
         13    1    4    4    0    0 -0.48373622694E+01  0.36702087490E+02  0.60475067774E+02  0.70906114843E+02  0.00000000000E+00 0. -1.
          1    1    1    2  501    0  0.84428674822E+01  0.19403225165E+02  0.21391407963E+02  0.30089192291E+02  0.00000000000E+00 0. -1.
<scales pt_clust_5="13000.00000" pt_clust_6="13000.00000" pt_clust_7="13000.00000" pt_clust_8="13000.00000" pt_clust_9="13000.00000"></scales>
<clustering>
<clus scale="  104.077">  7  8 -1 -1</clus>
<clus scale="   21.161">  7  9 -1 -1</clus>
<clus scale="  105.051">  5  6 -1 -1</clus>
<clus scale="  133.041">  1  5  2 -1</clus>
<clus scale="  161.724">  2  5  1 -1</clus>
</clustering>
</event>
<event>
 9    1  0.3312826E-006  0.2468598E+03  0.7546771E-02  0.1134067E+00
         21   -1    0    0  501  502  0.00000000000E+00  0.00000000000E+00  0.25210398431E+03  0.25210398431E+03  0.00000000000E+00 0. -1.
          3   -1    0    0  502    0 -0.00000000000E+00 -0.00000000000E+00 -0.16321049021E+03  0.16321049021E+03  0.00000000000E+00 0. -1.
         23    2    1    2    0    0 -0.10780354622E+03 -0.63078386760E+02  0.62129255834E+02  0.16700800791E+03  0.91821254743E+02 0.  0.
         23    2    1    2    0    0  0.43465831946E+02  0.12052002261E+03 -0.82846871792E+01  0.15520807681E+03  0.87215575830E+02 0.  0.
        -11    1    4    4    0    0  0.22772166597E+02 -0.76037031925E+01 -0.83659183940E+01  0.25423934871E+02  0.00000000000E+00 0.  1.
         11    1    4    4    0    0  0.20693665349E+02  0.12812372580E+03  0.81231214842E-01  0.12978414194E+03  0.00000000000E+00 0. -1.
        -13    1    3    3    0    0 -0.61535859102E+02 -0.70529291052E+02  0.58662371917E+01  0.93784090285E+02  0.00000000000E+00 0.  1.
         13    1    3    3    0    0 -0.46267687120E+02  0.74509042923E+01  0.56263018642E+02  0.73223917629E+02  0.00000000000E+00 0. -1.
          3    1    1    2  501    0  0.64337714275E+02 -0.57441635852E+02  0.35048925445E+02  0.93098389795E+02  0.00000000000E+00 0. -1.
<scales pt_clust_5="13000.00000" pt_clust_6="13000.00000" pt_clust_7="13000.00000" pt_clust_8="13000.00000" pt_clust_9="13000.00000"></scales>
<clustering>
<clus scale="   87.216">  5  6 -1 -1</clus>
<clus scale="   86.249">  5  9 -1 -1</clus>
<clus scale="   91.821">  7  8 -1 -1</clus>
<clus scale="  155.021">  2  7  1 -1</clus>
<clus scale="  246.860">  1  5  2 -1</clus>
</clustering>
</event>
<event>
 9    1  0.3312826E-006  0.3083787E+03  0.7546771E-02  0.1126350E+00
         21   -1    0    0  501  502  0.00000000000E+00  0.00000000000E+00  0.22285087863E+03  0.22285087863E+03  0.00000000000E+00 0.  1.
          1   -1    0    0  502    0 -0.00000000000E+00 -0.00000000000E+00 -0.18505046159E+03  0.18505046159E+03  0.00000000000E+00 0. -1.
         23    2    1    2    0    0  0.65784167900E+01 -0.14657953895E+02  0.24751121477E+02  0.99246634198E+02  0.94758351639E+02 0.  0.
         23    2    1    2    0    0 -0.11381284843E+03 -0.75113654377E+02  0.31673489175E+02  0.16756953469E+03  0.92091875310E+02 0.  0.
        -11    1    4    4    0    0 -0.10037809390E+03 -0.95638473953E+02  0.34509250086E+02  0.14287535748E+03  0.00000000000E+00 0.  1.
         11    1    4    4    0    0 -0.13434754537E+02  0.20524819576E+02 -0.28357609110E+01  0.24694177209E+02  0.00000000000E+00 0. -1.
        -13    1    3    3    0    0 -0.18103190644E+02 -0.49089528011E+02  0.51695869499E+01  0.52575963149E+02  0.00000000000E+00 0.  1.
         13    1    3    3    0    0  0.24681607434E+02  0.34431574116E+02  0.19581534527E+02  0.46670671048E+02  0.00000000000E+00 0. -1.
          1    1    1    2  501    0  0.10723443164E+03  0.89771608272E+02 -0.18624193612E+02  0.14108517133E+03  0.00000000000E+00 0. -1.
<scales pt_clust_5="13000.00000" pt_clust_6="13000.00000" pt_clust_7="13000.00000" pt_clust_8="13000.00000" pt_clust_9="13000.00000"></scales>
<clustering>
<clus scale="   92.092">  5  6 -1 -1</clus>
<clus scale="   94.758">  7  8 -1 -1</clus>
<clus scale="   96.111">  2  7  1 -1</clus>
<clus scale="  137.746">  5  9 -1 -1</clus>
<clus scale="  308.379">  1  5  2 -1</clus>
</clustering>
</event>
<event>
 9    1  0.3312826E-006  0.4164719E+03  0.7546771E-02  0.1089780E+00
         21   -1    0    0  501  502  0.00000000000E+00  0.00000000000E+00  0.37300139571E+03  0.37300139571E+03  0.00000000000E+00 0. -1.
          1   -1    0    0  502    0 -0.00000000000E+00 -0.00000000000E+00 -0.17868151999E+03  0.17868151999E+03  0.00000000000E+00 0. -1.
         23    2    1    2    0    0 -0.28738958982E+00  0.37047482698E+02  0.46736490266E+02  0.10983486210E+03  0.92232309107E+02 0.  0.
         23    2    1    2    0    0 -0.92299322691E+01  0.67948765696E+02 -0.11345047679E+03  0.16032812742E+03  0.90176889225E+02 0.  0.
        -11    1    4    4    0    0 -0.34271867370E+02 -0.33205531385E+01 -0.18806498182E+02  0.39233548654E+02  0.00000000000E+00 0.  1.
         11    1    4    4    0    0  0.25041935101E+02  0.71269318835E+02 -0.94643978608E+02  0.12109457877E+03  0.00000000000E+00 0. -1.
        -11    1    3    3    0    0 -0.32870655044E+02 -0.14680403239E+02  0.63260105951E+01  0.36551506293E+02  0.00000000000E+00 0.  1.
         11    1    3    3    0    0  0.32583265454E+02  0.51727885937E+02  0.40410479671E+02  0.73283355808E+02  0.00000000000E+00 0. -1.
          1    1    1    2  501    0  0.95173218589E+01 -0.10499624839E+03  0.26103386225E+03  0.28151992617E+03  0.00000000000E+00 0. -1.
<scales pt_clust_5="13000.00000" pt_clust_6="13000.00000" pt_clust_7="13000.00000" pt_clust_8="13000.00000" pt_clust_9="13000.00000"></scales>
<clustering>
<clus scale="   90.177">  5  6 -1 -1</clus>
<clus scale="   92.232">  7  8 -1 -1</clus>
<clus scale="   99.395">  2  7  1 -1</clus>
<clus scale="  102.857">  5  9 -1 -1</clus>
<clus scale="  416.472">  1  5  2 -1</clus>
</clustering>
</event>
<event>
 9    1  0.4639154E-006  0.8720677E+03  0.7546771E-02  0.1003866E+00
         21   -1    0    0  501  502  0.00000000000E+00  0.00000000000E+00  0.53193164364E+03  0.53193164364E+03  0.00000000000E+00 0.  1.
         -3   -1    0    0    0  501 -0.00000000000E+00 -0.00000000000E+00 -0.47091657561E+03  0.47091657561E+03  0.00000000000E+00 0.  1.
         23    2    1    2    0    0  0.58310691291E+02  0.65766069433E+02  0.21558814091E+02  0.12988839338E+03  0.93171345710E+02 0.  0.
         23    2    1    2    0    0  0.60706716630E+02 -0.24565159870E+02 -0.40021385017E+03  0.41560606915E+03  0.90931437499E+02 0.  0.
        -11    1    3    3    0    0  0.39720339758E+02 -0.85237577993E+01  0.33152558787E+02  0.52435217093E+02  0.00000000000E+00 0. -1.
         11    1    3    3    0    0  0.18590351534E+02  0.74289827232E+02 -0.11593744696E+02  0.77453176283E+02  0.00000000000E+00 0.  1.
        -13    1    4    4    0    0 -0.11344193433E+02 -0.37190086259E+02 -0.14342052990E+03  0.14859758288E+03  0.00000000000E+00 0. -1.
         13    1    4    4    0    0  0.72050910063E+02  0.12624926390E+02 -0.25679332027E+03  0.26700848628E+03  0.00000000000E+00 0.  1.
         -3    1    1    2    0  502 -0.11901740792E+03 -0.41200909563E+02  0.43967010412E+03  0.45735375672E+03  0.00000000000E+00 0.  1.
<scales pt_clust_5="13000.00000" pt_clust_6="13000.00000" pt_clust_7="13000.00000" pt_clust_8="13000.00000" pt_clust_9="13000.00000"></scales>
<clustering>
<clus scale="   90.931">  7  8 -1 -1</clus>
<clus scale="   93.171">  5  6 -1 -1</clus>
<clus scale="  125.947">  7  9 -1 -1</clus>
<clus scale="  128.087">  2  5  1 -1</clus>
<clus scale="  872.068">  1  5  2 -1</clus>
</clustering>
</event>
<event>
 9    1  0.3312826E-006  0.1672127E+03  0.7546771E-02  0.1192975E+00
          2   -1    0    0  502    0 -0.00000000000E+00  0.00000000000E+00  0.46224026301E+03  0.46224026301E+03  0.00000000000E+00 0. -1.
         21   -1    0    0  501  502  0.00000000000E+00 -0.00000000000E+00 -0.49160187133E+02  0.49160187133E+02  0.00000000000E+00 0. -1.
         23    2    1    2    0    0 -0.58114959904E+02  0.67825143765E+02  0.12672549740E+03  0.17979975562E+03  0.91054938018E+02 0.  0.
         23    2    1    2    0    0  0.12135020467E+02 -0.73051919897E+02  0.22319910203E+03  0.25330581458E+03  0.94139018662E+02 0.  0.
        -11    1    3    3    0    0 -0.34581977828E+02 -0.14905002795E+02  0.60431917697E+02  0.71204557265E+02  0.00000000000E+00 0.  1.
         11    1    3    3    0    0 -0.23532982076E+02  0.82730146561E+02  0.66293579705E+02  0.10859519835E+03  0.00000000000E+00 0. -1.
        -13    1    4    4    0    0  0.18164976556E+02  0.19409735132E+02  0.60262009129E+02  0.65865119263E+02  0.00000000000E+00 0.  1.
         13    1    4    4    0    0 -0.60299560897E+01 -0.92461655028E+02  0.16293709290E+03  0.18744069532E+03  0.00000000000E+00 0. -1.
          2    1    1    2  501    0  0.45979939437E+02  0.52267761315E+01  0.63155476450E+02  0.78294879942E+02  0.00000000000E+00 0. -1.
<scales pt_clust_5="13000.00000" pt_clust_6="13000.00000" pt_clust_7="13000.00000" pt_clust_8="13000.00000" pt_clust_9="13000.00000"></scales>
<clustering>
<clus scale="   91.055">  5  6 -1 -1</clus>
<clus scale="   94.139">  7  8 -1 -1</clus>
<clus scale="   46.276">  7  9 -1 -1</clus>
<clus scale="  127.548">  1  5  2 -1</clus>
<clus scale="  167.213">  2  5  1 -1</clus>
</clustering>
</event>
<event>
 9    1  0.3312826E-006  0.4170281E+03  0.7546771E-02  0.1051033E+00
          2   -1    0    0  502    0 -0.00000000000E+00  0.00000000000E+00  0.59542920937E+03  0.59542920937E+03  0.00000000000E+00 0. -1.
         21   -1    0    0  501  502  0.00000000000E+00 -0.00000000000E+00 -0.28244138996E+03  0.28244138996E+03  0.00000000000E+00 0. -1.
         23    2    1    2    0    0 -0.26304300002E+03 -0.69778879624E+02 -0.87438886724E+02  0.29972354434E+03  0.90155045466E+02 0.  0.
         23    2    1    2    0    0  0.77235401639E+02 -0.41776540059E+02  0.32376926365E+03  0.34826569697E+03  0.93551445933E+02 0.  0.
        -11    1    4    4    0    0  0.75290208336E+02 -0.62293969988E+02  0.30541798381E+03  0.32067007812E+03  0.00000000000E+00 0. -1.
         11    1    4    4    0    0  0.19451933031E+01  0.20517429929E+02  0.18351279842E+02  0.27595618850E+02  0.00000000000E+00 0.  1.
        -13    1    3    3    0    0 -0.14022275745E+02 -0.31456958846E+02 -0.14993378511E+02  0.37562825720E+02  0.00000000000E+00 0.  1.
         13    1    3    3    0    0 -0.24902072427E+03 -0.38321920778E+02 -0.72445508213E+02  0.26216071862E+03  0.00000000000E+00 0. -1.
          2    1    1    2  501    0  0.18580759838E+03  0.11155541968E+03  0.76657442474E+02  0.22988135801E+03  0.00000000000E+00 0. -1.
<scales pt_clust_5="13000.00000" pt_clust_6="13000.00000" pt_clust_7="13000.00000" pt_clust_8="13000.00000" pt_clust_9="13000.00000"></scales>
<clustering>
<clus scale="   90.155">  7  8 -1 -1</clus>
<clus scale="   93.551">  5  6 -1 -1</clus>
<clus scale="  216.724">  5  9 -1 -1</clus>
<clus scale="  286.686">  1  7  2 -1</clus>
<clus scale="  417.028">  2  5  1 -1</clus>
</clustering>
</event>
<event>
 9    1  0.3312826E-006  0.2879009E+03  0.7546771E-02  0.1129457E+00
         21   -1    0    0  501  502  0.00000000000E+00  0.00000000000E+00  0.14127202545E+03  0.14127202545E+03  0.00000000000E+00 0.  1.
          2   -1    0    0  502    0 -0.00000000000E+00 -0.00000000000E+00 -0.28233528573E+03  0.28233528573E+03  0.00000000000E+00 0.  1.
         23    2    1    2    0    0  0.39636339628E+02  0.45395812031E+02 -0.58701451552E+02  0.12415719288E+03  0.91308975252E+02 0.  0.
         23    2    1    2    0    0 -0.21537168543E+02  0.28015249592E+02 -0.15974283971E+03  0.19126237444E+03  0.99069759268E+02 0.  0.
        -13    1    3    3    0    0  0.61476580783E+02  0.49986746208E+02 -0.23801913001E+02  0.82731951771E+02  0.00000000000E+00 0.  1.
         13    1    3    3    0    0 -0.21840241154E+02 -0.45909341769E+01 -0.34899538551E+02  0.41425241114E+02  0.00000000000E+00 0. -1.
        -13    1    4    4    0    0 -0.13578347031E+02  0.65267303253E+02 -0.93207576854E+02  0.11459426148E+03  0.00000000000E+00 0.  1.
         13    1    4    4    0    0 -0.79588215123E+01 -0.37252053661E+02 -0.66535262854E+02  0.76668112960E+02  0.00000000000E+00 0. -1.
          2    1    1    2  501    0 -0.18099171085E+02 -0.73411061624E+02  0.77381030985E+02  0.10818774385E+03  0.00000000000E+00 0.  1.
<scales pt_clust_5="13000.00000" pt_clust_6="13000.00000" pt_clust_7="13000.00000" pt_clust_8="13000.00000" pt_clust_9="13000.00000"></scales>
<clustering>
<clus scale="   91.309">  5  6 -1 -1</clus>
<clus scale="   99.070">  7  8 -1 -1</clus>
<clus scale="   75.609">  7  9 -1 -1</clus>
<clus scale="  109.404">  2  5  1 -1</clus>
<clus scale="  287.901">  1  5  2 -1</clus>
</clustering>
</event>
<event>
 9    1  0.3312826E-006  0.2107933E+03  0.7546771E-02  0.1178791E+00
         21   -1    0    0  501  502  0.00000000000E+00  0.00000000000E+00  0.54206323368E+02  0.54206323368E+02  0.00000000000E+00 0. -1.
          1   -1    0    0  502    0 -0.00000000000E+00 -0.00000000000E+00 -0.42016907030E+03  0.42016907030E+03  0.00000000000E+00 0. -1.
         23    2    1    2    0    0 -0.21249275118E+02  0.32332562895E+01 -0.75054211022E+02  0.11512395059E+03  0.84607350559E+02 0.  0.
         23    2    1    2    0    0 -0.24737876874E+02  0.58789469859E+02 -0.24260609944E+03  0.26817585866E+03  0.94828304668E+02 0.  0.
        -11    1    3    3    0    0 -0.11777298474E+02  0.42920627425E+02 -0.51280157720E+02  0.67900954292E+02  0.00000000000E+00 0. -1.
         11    1    3    3    0    0 -0.94719766443E+01 -0.39687371136E+02 -0.23774053301E+02  0.47222996301E+02  0.00000000000E+00 0.  1.
        -11    1    4    4    0    0  0.35891642598E+02  0.22430288458E+02 -0.72265477404E+02  0.83747400396E+02  0.00000000000E+00 0.  1.
         11    1    4    4    0    0 -0.60629519472E+02  0.36359181400E+02 -0.17034062203E+03  0.18442845826E+03  0.00000000000E+00 0. -1.
          1    1    1    2  501    0  0.45987151992E+02 -0.62022726148E+02 -0.48302436473E+02  0.91075584414E+02  0.00000000000E+00 0. -1.
<scales pt_clust_5="13000.00000" pt_clust_6="13000.00000" pt_clust_7="13000.00000" pt_clust_8="13000.00000" pt_clust_9="13000.00000"></scales>
<clustering>
<clus scale="   84.607">  5  6 -1 -1</clus>
<clus scale="   87.295">  2  5  1 -1</clus>
<clus scale="   94.828">  7  8 -1 -1</clus>
<clus scale="   74.013">  7  9 -1 -1</clus>
<clus scale="  210.793">  1  5  2 -1</clus>
</clustering>
</event>
<event>
 9    1  0.3312826E-006  0.5631579E+03  0.7546771E-02  0.1040191E+00
         -2   -1    0    0    0  501 -0.00000000000E+00  0.00000000000E+00  0.39044121050E+03  0.39044121050E+03  0.00000000000E+00 0.  1.
         21   -1    0    0  501  502  0.00000000000E+00 -0.00000000000E+00 -0.35969700469E+03  0.35969700469E+03  0.00000000000E+00 0.  1.
         23    2    1    2    0    0 -0.74228148194E+02  0.10597776188E+03  0.91871848746E+02  0.18367248566E+03  0.92488060841E+02 0.  0.
         23    2    1    2    0    0  0.40642224114E+02 -0.50172327787E+02  0.23646782247E+03  0.26182607059E+03  0.92015255925E+02 0.  0.
        -13    1    3    3    0    0 -0.44633547596E+02  0.11254158668E+03  0.94010771104E+02  0.15328335652E+03  0.00000000000E+00 0.  1.
         13    1    3    3    0    0 -0.29594600599E+02 -0.65638248027E+01 -0.21389223576E+01  0.30389129133E+02  0.00000000000E+00 0. -1.
        -13    1    4    4    0    0  0.53861381266E+01  0.24929281519E+02  0.89440501718E+02  0.93005821907E+02  0.00000000000E+00 0.  1.
         13    1    4    4    0    0  0.35256085987E+02 -0.75101609306E+02  0.14702732075E+03  0.16882024868E+03  0.00000000000E+00 0. -1.
         -2    1    1    2    0  502  0.33585924080E+02 -0.55805434089E+02 -0.29759546540E+03  0.30463965894E+03  0.00000000000E+00 0.  1.
<scales pt_clust_5="13000.00000" pt_clust_6="13000.00000" pt_clust_7="13000.00000" pt_clust_8="13000.00000" pt_clust_9="13000.00000"></scales>
<clustering>
<clus scale="   92.015">  7  8 -1 -1</clus>
<clus scale="   65.133">  7  9 -1 -1</clus>
<clus scale="   92.488">  5  6 -1 -1</clus>
<clus scale="  159.044">  1  5  2 -1</clus>
<clus scale="  563.158">  2  5  1 -1</clus>
</clustering>
</event>
<event>
 9    1  0.3312826E-006  0.1795937E+03  0.7546771E-02  0.1195302E+00
          4   -1    0    0  502    0 -0.00000000000E+00  0.00000000000E+00  0.39028565508E+02  0.39028565508E+02  0.00000000000E+00 0. -1.
         21   -1    0    0  501  502  0.00000000000E+00 -0.00000000000E+00 -0.49755139698E+03  0.49755139698E+03  0.00000000000E+00 0. -1.
         23    2    1    2    0    0 -0.30118238133E+02 -0.16501962272E+02 -0.13770767178E+03  0.16891671904E+03  0.91597118278E+02 0.  0.
         23    2    1    2    0    0  0.30555744239E+02 -0.34090934017E+02 -0.10806143260E+03  0.14897629606E+03  0.91765016667E+02 0.  0.
        -11    1    3    3    0    0  0.14183916409E+02 -0.41899353679E+02 -0.83180756256E+02  0.94211345043E+02  0.00000000000E+00 0. -1.
         11    1    3    3    0    0 -0.44302154542E+02  0.25397391408E+02 -0.54526915528E+02  0.74705373999E+02  0.00000000000E+00 0.  1.
        -13    1    4    4    0    0  0.13567117624E+02  0.23006899592E+02 -0.77600843959E+02  0.82068721768E+02  0.00000000000E+00 0.  1.
         13    1    4    4    0    0  0.16988626614E+02 -0.57097833609E+02 -0.30460588637E+02  0.66907574289E+02  0.00000000000E+00 0. -1.
          4    1    1    2  501    0 -0.43750610580E+00  0.50592896288E+02 -0.21275372710E+03  0.21868694739E+03  0.00000000000E+00 0. -1.
<scales pt_clust_5="13000.00000" pt_clust_6="13000.00000" pt_clust_7="13000.00000" pt_clust_8="13000.00000" pt_clust_9="13000.00000"></scales>
<clustering>
<clus scale="   91.597">  5  6 -1 -1</clus>
<clus scale="   91.765">  7  8 -1 -1</clus>
<clus scale="   50.595">  7  9 -1 -1</clus>
<clus scale="   97.824">  1  5  2 -1</clus>
<clus scale="  179.594">  2  5  1 -1</clus>
</clustering>
</event>
<event>
 9    1  0.3312826E-006  0.6705633E+03  0.7546771E-02  0.9787124E-01
         21   -1    0    0  501  502  0.00000000000E+00  0.00000000000E+00  0.21655738279E+03  0.21655738279E+03  0.00000000000E+00 0.  1.
          2   -1    0    0  502    0 -0.00000000000E+00 -0.00000000000E+00 -0.21848078854E+04  0.21848078854E+04  0.00000000000E+00 0. -1.
         23    2    1    2    0    0 -0.26059755769E+03  0.56834612705E+03 -0.57033664497E+03  0.85094006384E+03  0.88807074255E+02 0.  0.
         23    2    1    2    0    0  0.19145561947E+03 -0.20711163857E+03 -0.74728603332E+03  0.80303806969E+03  0.82965298272E+02 0.  0.
        -13    1    4    4    0    0  0.15890963643E+03 -0.17548160546E+03 -0.52127217622E+03  0.57251266196E+03  0.00000000000E+00 0.  1.
         13    1    4    4    0    0  0.32545983038E+02 -0.31630033107E+02 -0.22601385710E+03  0.23052540773E+03  0.00000000000E+00 0. -1.
        -13    1    3    3    0    0 -0.26591798776E+02  0.26275315495E+02 -0.14667176737E+02  0.40157714575E+02  0.00000000000E+00 0. -1.
         13    1    3    3    0    0 -0.23400575891E+03  0.54207081156E+03 -0.55566946823E+03  0.81078234926E+03  0.00000000000E+00 0.  1.
          2    1    1    2  501    0  0.69141938220E+02 -0.36123448848E+03 -0.65062782434E+03  0.74738713469E+03  0.00000000000E+00 0. -1.
<scales pt_clust_5="13000.00000" pt_clust_6="13000.00000" pt_clust_7="13000.00000" pt_clust_8="13000.00000" pt_clust_9="13000.00000"></scales>
<clustering>
<clus scale="   82.965">  5  6 -1 -1</clus>
<clus scale="   88.807">  7  8 -1 -1</clus>
<clus scale="  367.792">  5  9 -1 -1</clus>
<clus scale="  631.518">  2  7  1 -1</clus>
<clus scale="  670.563">  1  5  2 -1</clus>
</clustering>
</event>
<event>
 9    1  0.3312826E-006  0.1960220E+03  0.7546771E-02  0.1177436E+00
          2   -1    0    0  502    0 -0.00000000000E+00  0.00000000000E+00  0.36154006990E+03  0.36154006990E+03  0.00000000000E+00 0. -1.
         21   -1    0    0  501  502  0.00000000000E+00 -0.00000000000E+00 -0.88546590451E+02  0.88546590451E+02  0.00000000000E+00 0.  1.
         23    2    1    2    0    0  0.27590582221E+02 -0.69965380013E+02  0.22030731388E+03  0.24710772979E+03  0.82888617723E+02 0.  0.
         23    2    1    2    0    0 -0.69421041397E+02  0.78050378524E+02  0.63996962552E+01  0.14006953732E+03  0.93098746484E+02 0.  0.
        -13    1    3    3    0    0 -0.18116453852E+02  0.85569979514E+01  0.54054997908E+02  0.57648685266E+02  0.00000000000E+00 0.  1.
         13    1    3    3    0    0  0.45707036073E+02 -0.78522377964E+02  0.16625231597E+03  0.18945904453E+03  0.00000000000E+00 0. -1.
        -13    1    4    4    0    0 -0.24640919817E+02  0.62380228834E+02  0.43414567262E+02  0.79895510070E+02  0.00000000000E+00 0. -1.
         13    1    4    4    0    0 -0.44780121579E+02  0.15670149691E+02 -0.37014871007E+02  0.60174027252E+02  0.00000000000E+00 0.  1.
          2    1    1    2  501    0  0.41830459175E+02 -0.80849985115E+01  0.46286469320E+02  0.62909393240E+02  0.00000000000E+00 0. -1.
<scales pt_clust_5="13000.00000" pt_clust_6="13000.00000" pt_clust_7="13000.00000" pt_clust_8="13000.00000" pt_clust_9="13000.00000"></scales>
<clustering>
<clus scale="   82.889">  5  6 -1 -1</clus>
<clus scale="   93.099">  7  8 -1 -1</clus>
<clus scale="   42.605">  7  9 -1 -1</clus>
<clus scale="  111.924">  1  5  2 -1</clus>
<clus scale="  196.022">  2  5  1 -1</clus>
</clustering>
</event>
<event>
 9    1  0.3312826E-006  0.2725389E+03  0.7546771E-02  0.1143641E+00
         21   -1    0    0  501  502  0.00000000000E+00  0.00000000000E+00  0.24390498670E+03  0.24390498670E+03  0.00000000000E+00 0.  1.
         -1   -1    0    0    0  501 -0.00000000000E+00 -0.00000000000E+00 -0.19833924253E+03  0.19833924253E+03  0.00000000000E+00 0.  1.
         23    2    1    2    0    0  0.18806002390E+00  0.82746667356E+01 -0.98162902372E+02  0.13412839919E+03  0.91027284867E+02 0.  0.
         23    2    1    2    0    0  0.80006886560E+02 -0.93453820374E+02  0.60147290474E+02  0.16433627394E+03  0.90851504886E+02 0.  0.
        -11    1    4    4    0    0  0.45504687661E+02 -0.74166434086E+02 -0.60632308580E+01  0.87224419245E+02  0.00000000000E+00 0.  1.
         11    1    4    4    0    0  0.34502198900E+02 -0.19287386288E+02  0.66210521332E+02  0.77111854691E+02  0.00000000000E+00 0. -1.
        -13    1    3    3    0    0  0.34673330513E+02 -0.25239674369E+02 -0.39829173975E+02  0.58529002304E+02  0.00000000000E+00 0.  1.
         13    1    3    3    0    0 -0.34485270490E+02  0.33514341105E+02 -0.58333728397E+02  0.75599396883E+02  0.00000000000E+00 0. -1.
         -1    1    1    2    0  502 -0.80194946584E+02  0.85179153639E+02  0.83581356070E+02  0.14377955611E+03  0.00000000000E+00 0.  1.
<scales pt_clust_5="13000.00000" pt_clust_6="13000.00000" pt_clust_7="13000.00000" pt_clust_8="13000.00000" pt_clust_9="13000.00000"></scales>
<clustering>
<clus scale="   90.852">  5  6 -1 -1</clus>
<clus scale="   91.027">  7  8 -1 -1</clus>
<clus scale="   91.403">  2  7  1 -1</clus>
<clus scale="  119.168">  5  9 -1 -1</clus>
<clus scale="  272.539">  1  5  2 -1</clus>
</clustering>
</event>
<event>
 9    1  0.3312826E-006  0.4553064E+03  0.7546771E-02  0.1079482E+00
          3   -1    0    0  502    0 -0.00000000000E+00  0.00000000000E+00  0.26249170110E+03  0.26249170110E+03  0.00000000000E+00 0. -1.
         21   -1    0    0  501  502  0.00000000000E+00 -0.00000000000E+00 -0.29524509976E+03  0.29524509976E+03  0.00000000000E+00 0. -1.
         23    2    1    2    0    0  0.28713231282E+01  0.41303713991E+02 -0.20727665285E+02  0.10227161736E+03  0.91189946399E+02 0.  0.
         23    2    1    2    0    0  0.17535957836E+02 -0.23297071958E+03  0.45743162647E+02  0.25424405266E+03  0.89245366175E+02 0.  0.
        -11    1    4    4    0    0  0.46811357950E+02 -0.69180092331E+02  0.19840165474E+02  0.85853483180E+02  0.00000000000E+00 0.  1.
         11    1    4    4    0    0 -0.29275400114E+02 -0.16379062725E+03  0.25902997173E+02  0.16839056948E+03  0.00000000000E+00 0. -1.
        -13    1    3    3    0    0  0.24787116432E+02  0.24464386757E+02 -0.50694954336E+02  0.61505168527E+02  0.00000000000E+00 0.  1.
         13    1    3    3    0    0 -0.21915793303E+02  0.16839327234E+02  0.29967289051E+02  0.40766448838E+02  0.00000000000E+00 0. -1.
          3    1    1    2  501    0 -0.20407280964E+02  0.19166700559E+03 -0.57768896018E+02  0.20122113083E+03  0.00000000000E+00 0. -1.
<scales pt_clust_5="13000.00000" pt_clust_6="13000.00000" pt_clust_7="13000.00000" pt_clust_8="13000.00000" pt_clust_9="13000.00000"></scales>
<clustering>
<clus scale="   89.245">  5  6 -1 -1</clus>
<clus scale="   91.190">  7  8 -1 -1</clus>
<clus scale="  100.149">  1  7  2 -1</clus>
<clus scale="  205.952">  5  9 -1 -1</clus>
<clus scale="  455.306">  2  5  1 -1</clus>
</clustering>
</event>
<event>
 9    1  0.3312826E-006  0.2736480E+03  0.7546771E-02  0.1134352E+00
         21   -1    0    0  501  502  0.00000000000E+00  0.00000000000E+00  0.11905050769E+03  0.11905050769E+03  0.00000000000E+00 0. -1.
          1   -1    0    0  502    0 -0.00000000000E+00 -0.00000000000E+00 -0.31396606733E+03  0.31396606733E+03  0.00000000000E+00 0. -1.
         23    2    1    2    0    0 -0.45820284910E+02 -0.47022680785E+02 -0.56974033628E+02  0.12656737749E+03  0.91992551441E+02 0.  0.
         23    2    1    2    0    0 -0.65671110033E+01  0.69125618751E+02 -0.19569708825E+03  0.22540177878E+03  0.87676299039E+02 0.  0.
        -11    1    3    3    0    0  0.74278262952E+01 -0.54214277684E+02 -0.10919856243E+02  0.55799675346E+02  0.00000000000E+00 0.  1.
         11    1    3    3    0    0 -0.53248111206E+02  0.71915968990E+01 -0.46054177384E+02  0.70767702149E+02  0.00000000000E+00 0. -1.
        -13    1    4    4    0    0 -0.45726623339E+02  0.26854557953E+02 -0.11026005486E+03  0.12234938113E+03  0.00000000000E+00 0. -1.
         13    1    4    4    0    0  0.39159512335E+02  0.42271060798E+02 -0.85437033390E+02  0.10305239765E+03  0.00000000000E+00 0.  1.
          1    1    1    2  501    0  0.52387395914E+02 -0.22102937965E+02  0.57755562230E+02  0.81047418749E+02  0.00000000000E+00 0. -1.
<scales pt_clust_5="13000.00000" pt_clust_6="13000.00000" pt_clust_7="13000.00000" pt_clust_8="13000.00000" pt_clust_9="13000.00000"></scales>
<clustering>
<clus scale="   87.676">  7  8 -1 -1</clus>
<clus scale="   56.859">  7  9 -1 -1</clus>
<clus scale="   91.993">  5  6 -1 -1</clus>
<clus scale="  113.019">  2  5  1 -1</clus>
<clus scale="  273.648">  1  5  2 -1</clus>
</clustering>
</event>
<event>
 9    1  0.3312826E-006  0.3318413E+03  0.7546771E-02  0.1100221E+00
          1   -1    0    0  502    0 -0.00000000000E+00  0.00000000000E+00  0.69348990420E+02  0.69348990420E+02  0.00000000000E+00 0. -1.
         21   -1    0    0  501  502  0.00000000000E+00 -0.00000000000E+00 -0.94643353082E+03  0.94643353082E+03  0.00000000000E+00 0. -1.
         23    2    1    2    0    0  0.11365040820E+03  0.99211418069E+01 -0.12916686118E+03  0.19755302487E+03  0.96582996795E+02 0.  0.
         23    2    1    2    0    0 -0.14998221157E+03 -0.12011665402E+03 -0.42204822396E+03  0.47231917169E+03  0.89655017926E+02 0.  0.
        -13    1    4    4    0    0 -0.14965621968E+03 -0.96142325994E+02 -0.30708595973E+03  0.35488324503E+03  0.00000000000E+00 0. -1.
         13    1    4    4    0    0 -0.32599188813E+00 -0.23974328022E+02 -0.11496226422E+03  0.11743592666E+03  0.00000000000E+00 0.  1.
        -13    1    3    3    0    0  0.41764353644E+02 -0.41734664036E+02 -0.36568330057E+02  0.69449882510E+02  0.00000000000E+00 0.  1.
         13    1    3    3    0    0  0.71886054554E+02  0.51655805843E+02 -0.92598531119E+02  0.12810314236E+03  0.00000000000E+00 0. -1.
          1    1    1    2  501    0  0.36331803372E+02  0.11019551221E+03 -0.32586945527E+03  0.34591032469E+03  0.00000000000E+00 0. -1.
<scales pt_clust_5="13000.00000" pt_clust_6="13000.00000" pt_clust_7="13000.00000" pt_clust_8="13000.00000" pt_clust_9="13000.00000"></scales>
<clustering>
<clus scale="   89.655">  5  6 -1 -1</clus>
<clus scale="   96.583">  7  8 -1 -1</clus>
<clus scale="  116.030">  5  9 -1 -1</clus>
<clus scale="  149.476">  1  7  2 -1</clus>
<clus scale="  331.841">  2  5  1 -1</clus>
</clustering>
</event>
<event>
 9    1  0.3312826E-006  0.2682369E+03  0.7546771E-02  0.1134648E+00
          2   -1    0    0  502    0 -0.00000000000E+00  0.00000000000E+00  0.23228925770E+03  0.23228925770E+03  0.00000000000E+00 0. -1.
         21   -1    0    0  501  502  0.00000000000E+00 -0.00000000000E+00 -0.22585194950E+03  0.22585194950E+03  0.00000000000E+00 0. -1.
         23    2    1    2    0    0  0.59190701751E+02  0.48052733809E+02  0.11795127815E+03  0.16764785927E+03  0.91546143009E+02 0.  0.
         23    2    1    2    0    0  0.31810271215E+02  0.50536206993E+02  0.10162635359E+02  0.10936865992E+03  0.91062742347E+02 0.  0.
        -13    1    4    4    0    0  0.13485819603E+02  0.71973783450E+02 -0.11082041606E+02  0.74060140971E+02  0.00000000000E+00 0.  1.
         13    1    4    4    0    0  0.18324451611E+02 -0.21437576457E+02  0.21244676965E+02  0.35308518952E+02  0.00000000000E+00 0. -1.
        -13    1    3    3    0    0  0.36860008686E+02  0.49244824784E+02  0.12884345429E+03  0.14277376763E+03  0.00000000000E+00 0. -1.
         13    1    3    3    0    0  0.22330693065E+02 -0.11920909751E+01 -0.10892176146E+02  0.24874091639E+02  0.00000000000E+00 0.  1.
          2    1    1    2  501    0 -0.91000972966E+02 -0.98588940801E+02 -0.12167660531E+03  0.18112468801E+03  0.00000000000E+00 0. -1.
<scales pt_clust_5="13000.00000" pt_clust_6="13000.00000" pt_clust_7="13000.00000" pt_clust_8="13000.00000" pt_clust_9="13000.00000"></scales>
<clustering>
<clus scale="   91.063">  5  6 -1 -1</clus>
<clus scale="   91.546">  7  8 -1 -1</clus>
<clus scale="  119.136">  1  7  2 -1</clus>
<clus scale="  109.165">  5  9 -1 -1</clus>
<clus scale="  268.237">  2  5  1 -1</clus>
</clustering>
</event>
<event>
 9    1  0.3312826E-006  0.2175157E+03  0.7546771E-02  0.1166963E+00
         -3   -1    0    0    0  501 -0.00000000000E+00  0.00000000000E+00  0.10020912647E+03  0.10020912647E+03  0.00000000000E+00 0.  1.
         21   -1    0    0  501  502  0.00000000000E+00 -0.00000000000E+00 -0.25788870137E+03  0.25788870137E+03  0.00000000000E+00 0.  1.
         23    2    1    2    0    0  0.27042835519E+01  0.49146988810E+02 -0.50045428882E+02  0.11540831123E+03  0.91606733866E+02 0.  0.
         23    2    1    2    0    0 -0.83616609639E+02 -0.17523169329E+02 -0.91114105881E+02  0.15425998423E+03  0.90529351994E+02 0.  0.
        -11    1    4    4    0    0 -0.57322054958E+02 -0.39815663012E+02 -0.15986268177E+02  0.71600738655E+02  0.00000000000E+00 0. -1.
         11    1    4    4    0    0 -0.26294554681E+02  0.22292493683E+02 -0.75127837704E+02  0.82659245572E+02  0.00000000000E+00 0.  1.
        -11    1    3    3    0    0  0.38341849402E+02 -0.52648236687E+01 -0.14849341162E+02  0.41452608082E+02  0.00000000000E+00 0. -1.
         11    1    3    3    0    0 -0.35637565850E+02  0.54411812479E+02 -0.35196087720E+02  0.73955703145E+02  0.00000000000E+00 0.  1.
         -3    1    1    2    0  502  0.80912326087E+02 -0.31623819481E+02 -0.16520040138E+02  0.88429532383E+02  0.00000000000E+00 0.  1.
<scales pt_clust_5="13000.00000" pt_clust_6="13000.00000" pt_clust_7="13000.00000" pt_clust_8="13000.00000" pt_clust_9="13000.00000"></scales>
<clustering>
<clus scale="   90.529">  5  6 -1 -1</clus>
<clus scale="   86.873">  5  9 -1 -1</clus>
<clus scale="   91.607">  7  8 -1 -1</clus>
<clus scale="  103.993">  1  7  2 -1</clus>
<clus scale="  217.516">  2  5  1 -1</clus>
</clustering>
</event>
<event>
 9    1  0.3312826E-006  0.1610047E+03  0.7546771E-02  0.1191941E+00
         21   -1    0    0  501  502  0.00000000000E+00  0.00000000000E+00  0.12983618288E+03  0.12983618288E+03  0.00000000000E+00 0.  1.
          2   -1    0    0  502    0 -0.00000000000E+00 -0.00000000000E+00 -0.26271169175E+03  0.26271169175E+03  0.00000000000E+00 0. -1.
         23    2    1    2    0    0  0.10230415286E+03 -0.40190123137E+02 -0.17313673418E+03  0.22658562937E+03  0.96350054625E+02 0.  0.
         23    2    1    2    0    0 -0.53158820486E+02  0.78602057566E+01  0.13397159372E+02  0.10129258243E+03  0.84811911581E+02 0.  0.
        -11    1    4    4    0    0 -0.57780709720E+02 -0.22340128008E+02 -0.10077739077E+02  0.62763465170E+02  0.00000000000E+00 0. -1.
         11    1    4    4    0    0  0.46218892348E+01  0.30200333764E+02  0.23474898450E+02  0.38529117259E+02  0.00000000000E+00 0.  1.
        -13    1    3    3    0    0  0.83661037635E+02 -0.22681855817E+02 -0.18027575826E+03  0.20003245941E+03  0.00000000000E+00 0.  1.
         13    1    3    3    0    0  0.18643115226E+02 -0.17508267320E+02  0.71390240879E+01  0.26553169958E+02  0.00000000000E+00 0. -1.
          2    1    1    2  501    0 -0.49145332375E+02  0.32329917380E+02  0.26864065934E+02  0.64669662831E+02  0.00000000000E+00 0. -1.
<scales pt_clust_5="13000.00000" pt_clust_6="13000.00000" pt_clust_7="13000.00000" pt_clust_8="13000.00000" pt_clust_9="13000.00000"></scales>
<clustering>
<clus scale="   84.812">  5  6 -1 -1</clus>
<clus scale="   58.826">  5  9 -1 -1</clus>
<clus scale="   96.350">  7  8 -1 -1</clus>
<clus scale="  146.167">  2  7  1 -1</clus>
<clus scale="  161.005">  1  5  2 -1</clus>
</clustering>
</event>
<event>
 9    1  0.3312826E-006  0.4309729E+03  0.7546771E-02  0.1070921E+00
         21   -1    0    0  501  502  0.00000000000E+00  0.00000000000E+00  0.57845873007E+03  0.57845873007E+03  0.00000000000E+00 0. -1.
          2   -1    0    0  502    0 -0.00000000000E+00 -0.00000000000E+00 -0.18705805859E+03  0.18705805859E+03  0.00000000000E+00 0. -1.
         23    2    1    2    0    0  0.80214137381E+02 -0.85025751193E+02 -0.41463332373E+02  0.15469042341E+03  0.92445837988E+02 0.  0.
         23    2    1    2    0    0 -0.20370882468E+02  0.19282027460E+01 -0.57797624236E+02  0.10959263635E+03  0.90836610223E+02 0.  0.
        -11    1    3    3    0    0  0.30905948982E+02  0.16812849008E+02 -0.35593012539E+01  0.35362666750E+02  0.00000000000E+00 0.  1.
         11    1    3    3    0    0  0.49308188399E+02 -0.10183860020E+03 -0.37904031119E+02  0.11932775666E+03  0.00000000000E+00 0. -1.
        -11    1    4    4    0    0 -0.43666612142E+02 -0.30126156600E+02 -0.38291951418E+02  0.65426537971E+02  0.00000000000E+00 0.  1.
         11    1    4    4    0    0  0.23295729674E+02  0.32054359346E+02 -0.19505672818E+02  0.44166098381E+02  0.00000000000E+00 0. -1.
          2    1    1    2  501    0 -0.59843254913E+02  0.83097548447E+02  0.49066162809E+03  0.50123372891E+03  0.00000000000E+00 0. -1.
<scales pt_clust_5="13000.00000" pt_clust_6="13000.00000" pt_clust_7="13000.00000" pt_clust_8="13000.00000" pt_clust_9="13000.00000"></scales>
<clustering>
<clus scale="   90.837">  7  8 -1 -1</clus>
<clus scale="   92.446">  5  6 -1 -1</clus>
<clus scale="  102.403">  7  9 -1 -1</clus>
<clus scale="  149.030">  2  5  1 -1</clus>
<clus scale="  430.973">  1  5  2 -1</clus>
</clustering>
</event>
<event>
 9    1  0.3312826E-006  0.2438142E+03  0.7546771E-02  0.1120424E+00
         -1   -1    0    0    0  501 -0.00000000000E+00  0.00000000000E+00  0.17843519292E+03  0.17843519292E+03  0.00000000000E+00 0.  1.
         21   -1    0    0  501  502  0.00000000000E+00 -0.00000000000E+00 -0.35597727714E+03  0.35597727714E+03  0.00000000000E+00 0. -1.
         23    2    1    2    0    0  0.19135991613E+03 -0.76395058780E+02 -0.18339360029E+03  0.29052806257E+03  0.91205920901E+02 0.  0.
         23    2    1    2    0    0 -0.12433487766E+03  0.20121443086E+02 -0.20785303353E+01  0.15600971693E+03  0.92036282048E+02 0.  0.
        -11    1    4    4    0    0 -0.12195250354E+03 -0.73952916269E+01 -0.18960856460E+02  0.12363906153E+03  0.00000000000E+00 0.  1.
         11    1    4    4    0    0 -0.23823741207E+01  0.27516734712E+02  0.16882326125E+02  0.32370655401E+02  0.00000000000E+00 0. -1.
        -13    1    3    3    0    0  0.16039821029E+03 -0.43365906937E+02 -0.18024643681E+03  0.24514682484E+03  0.00000000000E+00 0. -1.
         13    1    3    3    0    0  0.30961705844E+02 -0.33029151843E+02 -0.31471634846E+01  0.45381237733E+02  0.00000000000E+00 0.  1.
         -1    1    1    2    0  502 -0.67025038471E+02  0.56273615695E+02  0.79300464032E+01  0.87874690562E+02  0.00000000000E+00 0.  1.
<scales pt_clust_5="13000.00000" pt_clust_6="13000.00000" pt_clust_7="13000.00000" pt_clust_8="13000.00000" pt_clust_9="13000.00000"></scales>
<clustering>
<clus scale="   91.206">  7  8 -1 -1</clus>
<clus scale="   92.036">  5  6 -1 -1</clus>
<clus scale="   87.516">  5  9 -1 -1</clus>
<clus scale="  225.330">  1  7  2 -1</clus>
<clus scale="  243.814">  2  5  1 -1</clus>
</clustering>
</event>
<event>
 9    1  0.3312826E-006  0.3664940E+03  0.7546771E-02  0.1100128E+00
          3   -1    0    0  502    0 -0.00000000000E+00  0.00000000000E+00  0.27452103159E+03  0.27452103159E+03  0.00000000000E+00 0. -1.
         21   -1    0    0  501  502  0.00000000000E+00 -0.00000000000E+00 -0.20786184975E+03  0.20786184975E+03  0.00000000000E+00 0. -1.
         23    2    1    2    0    0 -0.60616301127E+02 -0.86753020468E+01  0.13160465986E+02  0.11200472718E+03  0.92856147976E+02 0.  0.
         23    2    1    2    0    0  0.98314952744E+02  0.51132602123E+02  0.18117878251E+03  0.23064265372E+03  0.89943924457E+02 0.  0.
        -13    1    4    4    0    0  0.96279700463E+02  0.11420420877E+02  0.15568844563E+03  0.18340964761E+03  0.00000000000E+00 0. -1.
         13    1    4    4    0    0  0.20352522807E+01  0.39712181246E+02  0.25490336884E+02  0.47233006103E+02  0.00000000000E+00 0.  1.
        -13    1    3    3    0    0  0.23153774925E+02 -0.14300161499E+02  0.16920590475E+01  0.27266370789E+02  0.00000000000E+00 0. -1.
         13    1    3    3    0    0 -0.83770076052E+02  0.56248594520E+01  0.11468406938E+02  0.84738356388E+02  0.00000000000E+00 0.  1.
          3    1    1    2  501    0 -0.37698651617E+02 -0.42457300076E+02 -0.12768006665E+03  0.13973550044E+03  0.00000000000E+00 0. -1.
<scales pt_clust_5="13000.00000" pt_clust_6="13000.00000" pt_clust_7="13000.00000" pt_clust_8="13000.00000" pt_clust_9="13000.00000"></scales>
<clustering>
<clus scale="   89.944">  5  6 -1 -1</clus>
<clus scale="   56.779">  5  9 -1 -1</clus>
<clus scale="   92.856">  7  8 -1 -1</clus>
<clus scale="  111.229">  1  7  2 -1</clus>
<clus scale="  366.494">  2  5  1 -1</clus>
</clustering>
</event>
<event>
 9    1  0.3312826E-006  0.2633433E+03  0.7546771E-02  0.1111423E+00
         -1   -1    0    0    0  501 -0.00000000000E+00  0.00000000000E+00  0.67426963538E+03  0.67426963538E+03  0.00000000000E+00 0.  1.
         21   -1    0    0  501  502  0.00000000000E+00 -0.00000000000E+00 -0.98328898620E+02  0.98328898620E+02  0.00000000000E+00 0.  1.
         23    2    1    2    0    0  0.10286851402E+03  0.17688473474E+03  0.39104337019E+03  0.45082730109E+03  0.91979331760E+02 0.  0.
         23    2    1    2    0    0 -0.10775466108E+03 -0.11723357386E+03  0.78091816195E+02  0.19933937015E+03  0.91011399902E+02 0.  0.
        -11    1    3    3    0    0  0.37693655772E+02  0.91055386540E+02  0.27658211844E+03  0.29361465111E+03  0.00000000000E+00 0.  1.
         11    1    3    3    0    0  0.65174858248E+02  0.85829348205E+02  0.11446125175E+03  0.15721264998E+03  0.00000000000E+00 0. -1.
        -11    1    4    4    0    0  0.16315742078E+02 -0.18810586488E+02  0.80089281811E+01  0.26156921344E+02  0.00000000000E+00 0. -1.
         11    1    4    4    0    0 -0.12407040316E+03 -0.98422987367E+02  0.70082888014E+02  0.17318244881E+03  0.00000000000E+00 0.  1.
         -1    1    1    2    0  502  0.48861470618E+01 -0.59651160889E+02  0.10680555037E+03  0.12243186275E+03  0.00000000000E+00 0.  1.
<scales pt_clust_5="13000.00000" pt_clust_6="13000.00000" pt_clust_7="13000.00000" pt_clust_8="13000.00000" pt_clust_9="13000.00000"></scales>
<clustering>
<clus scale="   91.011">  7  8 -1 -1</clus>
<clus scale="   59.851">  7  9 -1 -1</clus>
<clus scale="   91.979">  5  6 -1 -1</clus>
<clus scale="  224.344">  1  5  2 -1</clus>
<clus scale="  263.343">  2  5  1 -1</clus>
</clustering>
</event>
<event>
 9    1  0.3312826E-006  0.2882205E+03  0.7546771E-02  0.1102453E+00
         21   -1    0    0  501  502  0.00000000000E+00  0.00000000000E+00  0.18669394565E+03  0.18669394565E+03  0.00000000000E+00 0.  1.
          2   -1    0    0  502    0 -0.00000000000E+00 -0.00000000000E+00 -0.38647542433E+03  0.38647542433E+03  0.00000000000E+00 0. -1.
         23    2    1    2    0    0  0.53434422693E+02  0.18746666550E+03  0.11754153546E+02  0.21565241683E+03  0.91481236103E+02 0.  0.
         23    2    1    2    0    0 -0.31635516972E+02 -0.63203860560E+02 -0.19981457186E+03  0.23081328218E+03  0.91396795223E+02 0.  0.
        -13    1    4    4    0    0  0.24802483918E+01  0.22232014512E+02 -0.53396325664E+02  0.57892846671E+02  0.00000000000E+00 0.  1.
         13    1    4    4    0    0 -0.34115765363E+02 -0.85435875071E+02 -0.14641824620E+03  0.17292043551E+03  0.00000000000E+00 0. -1.
        -13    1    3    3    0    0  0.30410288633E+02  0.11033631953E+03  0.51940520028E+02  0.12568495011E+03  0.00000000000E+00 0.  1.
         13    1    3    3    0    0  0.23024134060E+02  0.77130345964E+02 -0.40186366482E+02  0.89967466724E+02  0.00000000000E+00 0. -1.
          2    1    1    2  501    0 -0.21798905721E+02 -0.12426280494E+03 -0.11721060357E+02  0.12670367097E+03  0.00000000000E+00 0. -1.
<scales pt_clust_5="13000.00000" pt_clust_6="13000.00000" pt_clust_7="13000.00000" pt_clust_8="13000.00000" pt_clust_9="13000.00000"></scales>
<clustering>
<clus scale="   91.397">  5  6 -1 -1</clus>
<clus scale="   91.481">  7  8 -1 -1</clus>
<clus scale="  126.160">  5  9 -1 -1</clus>
<clus scale="  215.332">  2  7  1 -1</clus>
<clus scale="  288.220">  1  5  2 -1</clus>
</clustering>
</event>
<event>
 9    1  0.3312826E-006  0.1582867E+03  0.7546771E-02  0.1199592E+00
         21   -1    0    0  501  502  0.00000000000E+00  0.00000000000E+00  0.48648622308E+03  0.48648622308E+03  0.00000000000E+00 0. -1.
          1   -1    0    0  502    0 -0.00000000000E+00 -0.00000000000E+00 -0.60723398306E+02  0.60723398306E+02  0.00000000000E+00 0. -1.
         23    2    1    2    0    0 -0.10342534343E+02 -0.91364967113E+02  0.49866805017E+02  0.13934627688E+03  0.92066070877E+02 0.  0.
         23    2    1    2    0    0 -0.24173195758E+02  0.49092422625E+02  0.23494970383E+03  0.25672047297E+03  0.87804490544E+02 0.  0.
        -11    1    3    3    0    0  0.84466576303E+01 -0.10202469334E+03  0.23096219516E+02  0.10494674569E+03  0.00000000000E+00 0. -1.
         11    1    3    3    0    0 -0.18789191973E+02  0.10659726223E+02  0.26770585502E+02  0.34399531192E+02  0.00000000000E+00 0.  1.
        -13    1    4    4    0    0  0.30924688356E+02  0.32915994545E+01  0.57914433675E+02  0.65736235097E+02  0.00000000000E+00 0.  1.
         13    1    4    4    0    0 -0.55097884113E+02  0.45800823170E+02  0.17703527015E+03  0.19098423787E+03  0.00000000000E+00 0. -1.
          1    1    1    2  501    0  0.34515730100E+02  0.42272544488E+02  0.14094631593E+03  0.15114287154E+03  0.00000000000E+00 0. -1.
<scales pt_clust_5="13000.00000" pt_clust_6="13000.00000" pt_clust_7="13000.00000" pt_clust_8="13000.00000" pt_clust_9="13000.00000"></scales>
<clustering>
<clus scale="   87.804">  7  8 -1 -1</clus>
<clus scale="   54.574">  7  9 -1 -1</clus>
<clus scale="   92.066">  5  6 -1 -1</clus>
<clus scale="  130.118">  2  5  1 -1</clus>
<clus scale="  158.287">  1  5  2 -1</clus>
</clustering>
</event>
<event>
 9    1  0.3312826E-006  0.2569811E+03  0.7546771E-02  0.1112317E+00
         -2   -1    0    0    0  501 -0.00000000000E+00  0.00000000000E+00  0.33553000193E+03  0.33553000193E+03  0.00000000000E+00 0. -1.
         21   -1    0    0  501  502  0.00000000000E+00 -0.00000000000E+00 -0.51654332234E+03  0.51654332234E+03  0.00000000000E+00 0. -1.
         23    2    1    2    0    0 -0.17499693554E+03 -0.13225843982E+03  0.25406518329E+03  0.34676885713E+03  0.87082148378E+02 0.  0.
         23    2    1    2    0    0  0.10976162597E+03  0.12230516899E+03 -0.35227361400E+03  0.39942074330E+03  0.91837150200E+02 0.  0.
        -13    1    4    4    0    0  0.95249010014E+02  0.13746907309E+03 -0.31494634921E+03  0.35659686320E+03  0.00000000000E+00 0. -1.
         13    1    4    4    0    0  0.14512615952E+02 -0.15163904102E+02 -0.37327264793E+02  0.42823880094E+02  0.00000000000E+00 0.  1.
        -13    1    3    3    0    0 -0.17040594132E+03 -0.10498777166E+03  0.24757798321E+03  0.31836374606E+03  0.00000000000E+00 0. -1.
         13    1    3    3    0    0 -0.45909942226E+01 -0.27270668167E+02  0.64872000717E+01  0.28405111072E+02  0.00000000000E+00 0.  1.
         -2    1    1    2    0  502  0.65235309574E+02  0.99532708319E+01 -0.82804889694E+02  0.10588372383E+03  0.00000000000E+00 0. -1.
<scales pt_clust_5="13000.00000" pt_clust_6="13000.00000" pt_clust_7="13000.00000" pt_clust_8="13000.00000" pt_clust_9="13000.00000"></scales>
<clustering>
<clus scale="   87.082">  7  8 -1 -1</clus>
<clus scale="   91.837">  5  6 -1 -1</clus>
<clus scale="   65.990">  5  9 -1 -1</clus>
<clus scale="  236.007">  1  7  2 -1</clus>
<clus scale="  256.981">  2  5  1 -1</clus>
</clustering>
</event>
<event>
 9    1  0.3312826E-006  0.2567223E+03  0.7546771E-02  0.1146533E+00
          1   -1    0    0  502    0 -0.00000000000E+00  0.00000000000E+00  0.28585833681E+03  0.28585833681E+03  0.00000000000E+00 0. -1.
         21   -1    0    0  501  502  0.00000000000E+00 -0.00000000000E+00 -0.26528928785E+03  0.26528928785E+03  0.00000000000E+00 0. -1.
         23    2    1    2    0    0 -0.15347204284E+02  0.51715774592E+02  0.20907290755E+03  0.23265112072E+03  0.86631433573E+02 0.  0.
         23    2    1    2    0    0 -0.81635265061E+02 -0.34813243960E+02 -0.32170135063E+02  0.13374930365E+03  0.94750621004E+02 0.  0.
        -11    1    3    3    0    0  0.12706959559E+02 -0.20587956274E+02  0.42379112481E+02  0.48798769856E+02  0.00000000000E+00 0.  1.
         11    1    3    3    0    0 -0.28054163843E+02  0.72303730866E+02  0.16669379507E+03  0.18385235087E+03  0.00000000000E+00 0. -1.
        -11    1    4    4    0    0  0.14770159492E+02 -0.26924745103E+02  0.29315594068E+01  0.30849530804E+02  0.00000000000E+00 0.  1.
         11    1    4    4    0    0 -0.96405424553E+02 -0.78884988571E+01 -0.35101694469E+02  0.10289977285E+03  0.00000000000E+00 0. -1.
          1    1    1    2  501    0  0.96982469345E+02 -0.16902530632E+02 -0.15633372352E+03  0.18474720028E+03  0.00000000000E+00 0. -1.
<scales pt_clust_5="13000.00000" pt_clust_6="13000.00000" pt_clust_7="13000.00000" pt_clust_8="13000.00000" pt_clust_9="13000.00000"></scales>
<clustering>
<clus scale="   86.631">  5  6 -1 -1</clus>
<clus scale="   94.751">  7  8 -1 -1</clus>
<clus scale="   98.444">  7  9 -1 -1</clus>
<clus scale="  102.054">  1  5  2 -1</clus>
<clus scale="  256.722">  2  5  1 -1</clus>
</clustering>
</event>
<event>
 9    1  0.3312826E-006  0.1185334E+03  0.7546771E-02  0.1254177E+00
         21   -1    0    0  501  502  0.00000000000E+00  0.00000000000E+00  0.97086327186E+02  0.97086327186E+02  0.00000000000E+00 0.  1.
          1   -1    0    0  502    0 -0.00000000000E+00 -0.00000000000E+00 -0.22178078638E+03  0.22178078638E+03  0.00000000000E+00 0. -1.
         23    2    1    2    0    0 -0.14407949540E+02  0.31233013106E+02 -0.16573414209E+03  0.19343016516E+03  0.93618015478E+02 0.  0.
         23    2    1    2    0    0  0.17167378069E+02 -0.25833234889E+01  0.23046217228E+01  0.77179056566E+02  0.75165837062E+02 0.  0.
        -11    1    4    4    0    0  0.10204031828E+02 -0.38731241890E+02 -0.20772182387E+01  0.40106685222E+02  0.00000000000E+00 0. -1.
         11    1    4    4    0    0  0.69633462408E+01  0.36147918401E+02  0.43818399615E+01  0.37072371344E+02  0.00000000000E+00 0.  1.
        -13    1    3    3    0    0 -0.11784487555E+02  0.63800021862E+02 -0.12809484640E+03  0.14358832338E+03  0.00000000000E+00 0.  1.
         13    1    3    3    0    0 -0.26234619856E+01 -0.32567008757E+02 -0.37639295694E+02  0.49841841784E+02  0.00000000000E+00 0. -1.
          1    1    1    2  501    0 -0.27594285289E+01 -0.28649689617E+02  0.38735061171E+02  0.48257891840E+02  0.00000000000E+00 0. -1.
<scales pt_clust_5="13000.00000" pt_clust_6="13000.00000" pt_clust_7="13000.00000" pt_clust_8="13000.00000" pt_clust_9="13000.00000"></scales>
<clustering>
<clus scale="   75.166">  5  6 -1 -1</clus>
<clus scale="   28.782">  5  9 -1 -1</clus>
<clus scale="   93.618">  7  8 -1 -1</clus>
<clus scale="   99.737">  2  7  1 -1</clus>
<clus scale="  118.533">  1  5  2 -1</clus>
</clustering>
</event>
<event>
 9    1  0.3312826E-006  0.3528935E+03  0.7546771E-02  0.1064672E+00
         21   -1    0    0  501  502  0.00000000000E+00  0.00000000000E+00  0.41601351004E+03  0.41601351004E+03  0.00000000000E+00 0.  1.
         -1   -1    0    0    0  501 -0.00000000000E+00 -0.00000000000E+00 -0.27424802413E+03  0.27424802413E+03  0.00000000000E+00 0.  1.
         23    2    1    2    0    0  0.30307379314E+03 -0.59957069078E+02  0.75257239596E+02  0.33115543551E+03  0.92475381237E+02 0.  0.
         23    2    1    2    0    0 -0.88179167102E+02  0.52862952578E+02  0.21966352623E+02  0.13952921671E+03  0.91737802477E+02 0.  0.
        -11    1    3    3    0    0  0.25821779993E+03 -0.15952986985E+02  0.70474400976E+02  0.26813722455E+03  0.00000000000E+00 0.  1.
         11    1    3    3    0    0  0.44855993212E+02 -0.44004082093E+02  0.47828386192E+01  0.63018210965E+02  0.00000000000E+00 0. -1.
        -13    1    4    4    0    0 -0.19016965578E+02 -0.26424981847E+02  0.61710200355E+01  0.33136175605E+02  0.00000000000E+00 0. -1.
         13    1    4    4    0    0 -0.69162201524E+02  0.79287934425E+02  0.15795332587E+02  0.10639304111E+03  0.00000000000E+00 0.  1.
         -1    1    1    2    0  502 -0.21489462604E+03  0.70941165003E+01  0.44541893697E+02  0.21957688194E+03  0.00000000000E+00 0.  1.
<scales pt_clust_5="13000.00000" pt_clust_6="13000.00000" pt_clust_7="13000.00000" pt_clust_8="13000.00000" pt_clust_9="13000.00000"></scales>
<clustering>
<clus scale="   91.738">  7  8 -1 -1</clus>
<clus scale="   92.475">  5  6 -1 -1</clus>
<clus scale="  215.012">  7  9 -1 -1</clus>
<clus scale="  322.491">  2  5  1 -1</clus>
<clus scale="  352.894">  1  5  2 -1</clus>
</clustering>
</event>
<event>
 9    1  0.3755447E-006  0.3426290E+03  0.7546771E-02  0.1095756E+00
          1   -1    0    0  502    0 -0.00000000000E+00  0.00000000000E+00  0.67607340611E+03  0.67607340611E+03  0.00000000000E+00 0. -1.
         21   -1    0    0  501  502  0.00000000000E+00 -0.00000000000E+00 -0.10692138099E+03  0.10692138099E+03  0.00000000000E+00 0.  1.
         23    2    1    2    0    0  0.26790666257E+02 -0.11960657775E+03  0.49159340462E+02  0.16026933008E+03  0.90808282490E+02 0.  0.
         23    2    1    2    0    0  0.61045544848E+02  0.21963717231E+02  0.46849721452E+03  0.48165415719E+03  0.91061098743E+02 0.  0.
        -13    1    3    3    0    0 -0.28682687225E+02 -0.11514780062E+02  0.72278318922E+01  0.31741585659E+02  0.00000000000E+00 0. -1.
         13    1    3    3    0    0  0.55473353482E+02 -0.10809179769E+03  0.41931508570E+02  0.12852774442E+03  0.00000000000E+00 0.  1.
        -13    1    4    4    0    0  0.31370324166E+02 -0.33475748544E+02  0.14438638383E+03  0.15149967265E+03  0.00000000000E+00 0.  1.
         13    1    4    4    0    0  0.29675220682E+02  0.55439465775E+02  0.32411083069E+03  0.33015448453E+03  0.00000000000E+00 0. -1.
          1    1    1    2  501    0 -0.87836211105E+02  0.97642860522E+02  0.51495470148E+02  0.14107129984E+03  0.00000000000E+00 0. -1.
<scales pt_clust_5="13000.00000" pt_clust_6="13000.00000" pt_clust_7="13000.00000" pt_clust_8="13000.00000" pt_clust_9="13000.00000"></scales>
<clustering>
<clus scale="   90.808">  5  6 -1 -1</clus>
<clus scale="   91.061">  7  8 -1 -1</clus>
<clus scale="  131.337">  7  9 -1 -1</clus>
<clus scale="  152.544">  1  5  2 -1</clus>
<clus scale="  342.629">  2  5  1 -1</clus>
</clustering>
</event>
<event>
 9    1  0.3312826E-006  0.1736490E+03  0.7546771E-02  0.1198453E+00
          3   -1    0    0  502    0 -0.00000000000E+00  0.00000000000E+00  0.42494606827E+02  0.42494606827E+02  0.00000000000E+00 0. -1.
         21   -1    0    0  501  502  0.00000000000E+00 -0.00000000000E+00 -0.47911861102E+03  0.47911861102E+03  0.00000000000E+00 0.  1.
         23    2    1    2    0    0 -0.26017743242E+02  0.25923216624E+02 -0.96406631583E+02  0.13964223099E+03  0.94110456060E+02 0.  0.
         23    2    1    2    0    0 -0.13346101263E+02 -0.31801441061E+01 -0.10179010689E+03  0.13924826307E+03  0.94024577488E+02 0.  0.
        -11    1    4    4    0    0 -0.65815379051E+01  0.36006865216E+02 -0.90936962392E+02  0.98027251889E+02  0.00000000000E+00 0.  1.
         11    1    4    4    0    0 -0.67645633574E+01 -0.39187009322E+02 -0.10853144493E+02  0.41221011177E+02  0.00000000000E+00 0. -1.
        -11    1    3    3    0    0  0.29792216969E+02  0.22603891957E+02 -0.13732145934E+02  0.39838222293E+02  0.00000000000E+00 0.  1.
         11    1    3    3    0    0 -0.55809960212E+02  0.33193246674E+01 -0.82674485649E+02  0.99804008700E+02  0.00000000000E+00 0. -1.
          3    1    1    2  501    0  0.39363844505E+02 -0.22743072518E+02 -0.23842726572E+03  0.24272272379E+03  0.00000000000E+00 0. -1.
<scales pt_clust_5="13000.00000" pt_clust_6="13000.00000" pt_clust_7="13000.00000" pt_clust_8="13000.00000" pt_clust_9="13000.00000"></scales>
<clustering>
<clus scale="   94.025">  5  6 -1 -1</clus>
<clus scale="   45.462">  5  9 -1 -1</clus>
<clus scale="   94.110">  7  8 -1 -1</clus>
<clus scale="  101.023">  1  7  2 -1</clus>
<clus scale="  173.649">  2  5  1 -1</clus>
</clustering>
</event>
<event>
 9    1  0.3312826E-006  0.2101588E+03  0.7546771E-02  0.1167623E+00
         -1   -1    0    0    0  501 -0.00000000000E+00  0.00000000000E+00  0.14375555420E+03  0.14375555420E+03  0.00000000000E+00 0.  1.
         21   -1    0    0  501  502  0.00000000000E+00 -0.00000000000E+00 -0.34665684207E+03  0.34665684207E+03  0.00000000000E+00 0.  1.
         23    2    1    2    0    0 -0.34159944595E+02  0.55099812524E+02  0.79330826837E+02  0.13852934031E+03  0.93242194772E+02 0.  0.
         23    2    1    2    0    0 -0.49618477705E+02 -0.23825733067E+02 -0.19780123888E+03  0.22889742719E+03  0.10118815734E+03 0.  0.
        -11    1    4    4    0    0  0.24563375118E+02  0.17578188566E+02 -0.49593140161E+02  0.58067475074E+02  0.00000000000E+00 0. -1.
         11    1    4    4    0    0 -0.74181852822E+02 -0.41403921633E+02 -0.14820809872E+03  0.17082995211E+03  0.00000000000E+00 0.  1.
        -13    1    3    3    0    0  0.26111271638E+02 -0.69471878565E+01  0.17253187242E+02  0.32058296831E+02  0.00000000000E+00 0. -1.
         13    1    3    3    0    0 -0.60271216233E+02  0.62047000380E+02  0.62077639595E+02  0.10647104348E+03  0.00000000000E+00 0.  1.
         -1    1    1    2    0  502  0.83778422299E+02 -0.31274079457E+02 -0.84430875828E+02  0.12298562876E+03  0.00000000000E+00 0.  1.
<scales pt_clust_5="13000.00000" pt_clust_6="13000.00000" pt_clust_7="13000.00000" pt_clust_8="13000.00000" pt_clust_9="13000.00000"></scales>
<clustering>
<clus scale="   93.242">  7  8 -1 -1</clus>
<clus scale="  101.188">  5  6 -1 -1</clus>
<clus scale="   89.425">  5  9 -1 -1</clus>
<clus scale="  113.565">  1  7  2 -1</clus>
<clus scale="  210.159">  2  5  1 -1</clus>
</clustering>
</event>
<event>
 9    1  0.4691353E-006  0.5971021E+03  0.7546771E-02  0.1021623E+00
          1   -1    0    0  502    0 -0.00000000000E+00  0.00000000000E+00  0.42598929324E+03  0.42598929324E+03  0.00000000000E+00 0. -1.
         21   -1    0    0  501  502  0.00000000000E+00 -0.00000000000E+00 -0.56511725314E+03  0.56511725314E+03  0.00000000000E+00 0.  1.
         23    2    1    2    0    0  0.10887414760E+03 -0.18222641083E+03 -0.29417342002E+03  0.37420298151E+03  0.91814081171E+02 0.  0.
         23    2    1    2    0    0  0.29811236761E+02  0.73692993201E+02  0.33979862573E+03  0.36166471442E+03  0.94967849943E+02 0.  0.
        -13    1    4    4    0    0 -0.31225908264E+02  0.13637831688E+02  0.14372756411E+03  0.14771140946E+03  0.00000000000E+00 0.  1.
         13    1    4    4    0    0  0.61037145025E+02  0.60055161514E+02  0.19607106163E+03  0.21395330496E+03  0.00000000000E+00 0. -1.
        -13    1    3    3    0    0  0.88625373245E+02 -0.76426937129E+02 -0.10872509700E+03  0.15973941348E+03  0.00000000000E+00 0.  1.
         13    1    3    3    0    0  0.20248774352E+02 -0.10579947370E+03 -0.18544832302E+03  0.21446356802E+03  0.00000000000E+00 0. -1.
          1    1    1    2  501    0 -0.13868538436E+03  0.10853341763E+03 -0.18475316561E+03  0.25523885045E+03  0.00000000000E+00 0. -1.
<scales pt_clust_5="13000.00000" pt_clust_6="13000.00000" pt_clust_7="13000.00000" pt_clust_8="13000.00000" pt_clust_9="13000.00000"></scales>
<clustering>
<clus scale="   91.814">  7  8 -1 -1</clus>
<clus scale="   94.968">  5  6 -1 -1</clus>
<clus scale="  176.106">  5  9 -1 -1</clus>
<clus scale="  231.279">  1  7  2 -1</clus>
<clus scale="  597.102">  2  5  1 -1</clus>
</clustering>
</event>
<event>
 9    1  0.3312826E-006  0.2266764E+03  0.7546771E-02  0.1142625E+00
          1   -1    0    0  502    0 -0.00000000000E+00  0.00000000000E+00  0.84424619748E+02  0.84424619748E+02  0.00000000000E+00 0. -1.
         21   -1    0    0  501  502  0.00000000000E+00 -0.00000000000E+00 -0.52522734420E+03  0.52522734420E+03  0.00000000000E+00 0. -1.
         23    2    1    2    0    0 -0.75828337033E+02 -0.11144905026E+03 -0.30414831544E+03  0.34496985112E+03  0.91253344607E+02 0.  0.
         23    2    1    2    0    0  0.32466388901E+02  0.14287578074E+02 -0.44543880347E+01  0.94983981512E+02  0.87999510655E+02 0.  0.
        -13    1    4    4    0    0  0.32195237548E+02  0.49151207080E+02  0.46787236256E+01  0.58942895525E+02  0.00000000000E+00 0. -1.
         13    1    4    4    0    0  0.27115135275E+00 -0.34863629005E+02 -0.91331116602E+01  0.36041085986E+02  0.00000000000E+00 0.  1.
        -13    1    3    3    0    0 -0.95107416308E+02 -0.87343248606E+02 -0.21696730215E+03  0.25248578953E+03  0.00000000000E+00 0. -1.
         13    1    3    3    0    0  0.19279079275E+02 -0.24105801652E+02 -0.87181013286E+02  0.92484061592E+02  0.00000000000E+00 0.  1.
          1    1    1    2  501    0  0.43361948132E+02  0.97161472183E+02 -0.13220002098E+03  0.16969813131E+03  0.00000000000E+00 0. -1.
<scales pt_clust_5="13000.00000" pt_clust_6="13000.00000" pt_clust_7="13000.00000" pt_clust_8="13000.00000" pt_clust_9="13000.00000"></scales>
<clustering>
<clus scale="   88.000">  5  6 -1 -1</clus>
<clus scale="   91.253">  7  8 -1 -1</clus>
<clus scale="  106.398">  5  9 -1 -1</clus>
<clus scale="  162.782">  1  7  2 -1</clus>
<clus scale="  226.676">  2  5  1 -1</clus>
</clustering>
</event>
<event>
 9    1  0.3312826E-006  0.3603144E+03  0.7546771E-02  0.1067045E+00
         -3   -1    0    0    0  501 -0.00000000000E+00  0.00000000000E+00  0.12726318032E+03  0.12726318032E+03  0.00000000000E+00 0.  1.
         21   -1    0    0  501  502  0.00000000000E+00 -0.00000000000E+00 -0.91126374687E+03  0.91126374687E+03  0.00000000000E+00 0.  1.
         23    2    1    2    0    0 -0.15612464497E+03 -0.21850454844E+03 -0.18243289649E+03  0.33730645707E+03  0.91513615372E+02 0.  0.
         23    2    1    2    0    0  0.23079395166E+02 -0.14641240975E+02 -0.12878112489E+03  0.15754307046E+03  0.86534481580E+02 0.  0.
        -11    1    3    3    0    0 -0.14697681776E+03 -0.16982754318E+03 -0.11138742212E+03  0.25070049299E+03  0.00000000000E+00 0.  1.
         11    1    3    3    0    0 -0.91478272121E+01 -0.48677005266E+02 -0.71045474372E+02  0.86605964073E+02  0.00000000000E+00 0. -1.
        -13    1    4    4    0    0  0.27735486415E+02 -0.34835348792E+02 -0.12936186845E+03  0.13681100738E+03  0.00000000000E+00 0.  1.
         13    1    4    4    0    0 -0.46560912493E+01  0.20194107817E+02  0.58074355844E+00  0.20732063075E+02  0.00000000000E+00 0. -1.
         -3    1    1    2    0  502  0.13304524981E+03  0.23314578942E+03 -0.47278654516E+03  0.54367739966E+03  0.00000000000E+00 0.  1.
<scales pt_clust_5="13000.00000" pt_clust_6="13000.00000" pt_clust_7="13000.00000" pt_clust_8="13000.00000" pt_clust_9="13000.00000"></scales>
<clustering>
<clus scale="   86.534">  7  8 -1 -1</clus>
<clus scale="   91.514">  5  6 -1 -1</clus>
<clus scale="  268.436">  7  9 -1 -1</clus>
<clus scale="  283.714">  1  5  2 -1</clus>
<clus scale="  360.314">  2  5  1 -1</clus>
</clustering>
</event>
<event>
 9    1  0.3312826E-006  0.1770982E+03  0.7546771E-02  0.1194266E+00
          2   -1    0    0  502    0 -0.00000000000E+00  0.00000000000E+00  0.41874816160E+03  0.41874816160E+03  0.00000000000E+00 0. -1.
         21   -1    0    0  501  502  0.00000000000E+00 -0.00000000000E+00 -0.72233364988E+02  0.72233364988E+02  0.00000000000E+00 0. -1.
         23    2    1    2    0    0 -0.24072872136E+02 -0.43109724322E+02  0.28499635132E+03  0.30350276877E+03  0.91940518175E+02 0.  0.
         23    2    1    2    0    0 -0.43896101265E+02  0.26113601108E+02  0.53337973583E+02  0.11694103977E+03  0.90672374445E+02 0.  0.
        -13    1    4    4    0    0  0.26752588295E+02  0.58833942257E+01  0.28095150628E+02  0.39238409714E+02  0.00000000000E+00 0.  1.
         13    1    4    4    0    0 -0.70648689559E+02  0.20230206883E+02  0.25242822956E+02  0.77702630057E+02  0.00000000000E+00 0. -1.
        -13    1    3    3    0    0 -0.53080339907E+02 -0.35224664270E+02  0.24683964408E+03  0.25492765512E+03  0.00000000000E+00 0. -1.
         13    1    3    3    0    0  0.29007467771E+02 -0.78850600519E+01  0.38156707243E+02  0.48575113650E+02  0.00000000000E+00 0.  1.
          2    1    1    2  501    0  0.67968973401E+02  0.16996123213E+02  0.81804717068E+01  0.70537718044E+02  0.00000000000E+00 0. -1.
<scales pt_clust_5="13000.00000" pt_clust_6="13000.00000" pt_clust_7="13000.00000" pt_clust_8="13000.00000" pt_clust_9="13000.00000"></scales>
<clustering>
<clus scale="   90.672">  5  6 -1 -1</clus>
<clus scale="   70.062">  5  9 -1 -1</clus>
<clus scale="   91.941">  7  8 -1 -1</clus>
<clus scale="  104.360">  1  7  2 -1</clus>
<clus scale="  177.098">  2  5  1 -1</clus>
</clustering>
</event>
<event>
 9    1  0.3312826E-006  0.1635043E+03  0.7546771E-02  0.1206726E+00
         21   -1    0    0  501  502  0.00000000000E+00  0.00000000000E+00  0.13346613532E+03  0.13346613532E+03  0.00000000000E+00 0.  1.
         -3   -1    0    0    0  501 -0.00000000000E+00 -0.00000000000E+00 -0.13931767669E+03  0.13931767669E+03  0.00000000000E+00 0.  1.
         23    2    1    2    0    0 -0.14484229213E+02 -0.38465445757E+02 -0.34244633596E+02  0.10683253059E+03  0.92472218800E+02 0.  0.
         23    2    1    2    0    0 -0.22289415165E+01 -0.21344223900E+02  0.14716301592E+02  0.10236212148E+03  0.98999445991E+02 0.  0.
        -13    1    4    4    0    0  0.34430818909E+02  0.11246731741E+02  0.33978099743E+02  0.49663684194E+02  0.00000000000E+00 0. -1.
         13    1    4    4    0    0 -0.36659760425E+02 -0.32590955641E+02 -0.19261798151E+02  0.52698437282E+02  0.00000000000E+00 0.  1.
        -13    1    3    3    0    0 -0.13655429226E+02 -0.64406328492E+02 -0.43909651908E+02  0.79137244253E+02  0.00000000000E+00 0.  1.
         13    1    3    3    0    0 -0.82879998669E+00  0.25940882736E+02  0.96650183124E+01  0.27695286341E+02  0.00000000000E+00 0. -1.
         -3    1    1    2    0  502  0.16713170729E+02  0.59809669656E+02  0.13676790631E+02  0.63589159943E+02  0.00000000000E+00 0.  1.
<scales pt_clust_5="13000.00000" pt_clust_6="13000.00000" pt_clust_7="13000.00000" pt_clust_8="13000.00000" pt_clust_9="13000.00000"></scales>
<clustering>
<clus scale="   92.472">  7  8 -1 -1</clus>
<clus scale="   98.999">  5  6 -1 -1</clus>
<clus scale="   62.101">  5  9 -1 -1</clus>
<clus scale="  101.195">  2  7  1 -1</clus>
<clus scale="  163.504">  1  5  2 -1</clus>
</clustering>
</event>
<event>
 9    1  0.3312826E-006  0.1594949E+03  0.7546771E-02  0.1208851E+00
         -1   -1    0    0    0  501 -0.00000000000E+00  0.00000000000E+00  0.21199835221E+03  0.21199835221E+03  0.00000000000E+00 0.  1.
         21   -1    0    0  501  502  0.00000000000E+00 -0.00000000000E+00 -0.85177527140E+02  0.85177527140E+02  0.00000000000E+00 0. -1.
         23    2    1    2    0    0 -0.36940758200E+02 -0.15426061668E+02  0.22418250036E+02  0.10654922022E+03  0.96164314586E+02 0.  0.
         23    2    1    2    0    0 -0.10845275376E+02  0.48816787663E+01  0.10673526819E+03  0.14163553266E+03  0.92340434545E+02 0.  0.
        -11    1    4    4    0    0  0.15530500752E+02 -0.36982122306E+02  0.29028974076E+02  0.49513181677E+02  0.00000000000E+00 0. -1.
         11    1    4    4    0    0 -0.26375776128E+02  0.41863801072E+02  0.77706294109E+02  0.92122350984E+02  0.00000000000E+00 0.  1.
        -13    1    3    3    0    0  0.10150691645E+02  0.32873277494E+02 -0.28326151510E+01  0.34521190922E+02  0.00000000000E+00 0.  1.
         13    1    3    3    0    0 -0.47091449845E+02 -0.48299339161E+02  0.25250865187E+02  0.72028029298E+02  0.00000000000E+00 0. -1.
         -1    1    1    2    0  502  0.47786033576E+02  0.10544382901E+02 -0.23326931490E+01  0.48991126472E+02  0.00000000000E+00 0.  1.
<scales pt_clust_5="13000.00000" pt_clust_6="13000.00000" pt_clust_7="13000.00000" pt_clust_8="13000.00000" pt_clust_9="13000.00000"></scales>
<clustering>
<clus scale="   92.340">  5  6 -1 -1</clus>
<clus scale="   48.936">  5  9 -1 -1</clus>
<clus scale="   96.164">  7  8 -1 -1</clus>
<clus scale="  104.164">  1  7  2 -1</clus>
<clus scale="  159.495">  2  5  1 -1</clus>
</clustering>
</event>
<event>
 9    1  0.3312826E-006  0.1491059E+03  0.7546771E-02  0.1212431E+00
         21   -1    0    0  501  502  0.00000000000E+00  0.00000000000E+00  0.27843386180E+03  0.27843386180E+03  0.00000000000E+00 0.  1.
          4   -1    0    0  502    0 -0.00000000000E+00 -0.00000000000E+00 -0.65163443749E+02  0.65163443749E+02  0.00000000000E+00 0. -1.
         23    2    1    2    0    0 -0.50884080479E+02 -0.46759195655E+02  0.72829492026E+02  0.13876510287E+03  0.95791475823E+02 0.  0.
         23    2    1    2    0    0  0.63130026449E+02  0.64478006605E+02  0.11299771765E+03  0.16994597130E+03  0.89276734882E+02 0.  0.
        -13    1    4    4    0    0 -0.59158206499E+01  0.48528837464E+02  0.75029171976E+02  0.89551223593E+02  0.00000000000E+00 0.  1.
         13    1    4    4    0    0  0.69045847099E+02  0.15949169141E+02  0.37968545672E+02  0.80394747704E+02  0.00000000000E+00 0. -1.
        -13    1    3    3    0    0 -0.88397085003E+01 -0.19350128064E+02 -0.22540903834E+02  0.30994519646E+02  0.00000000000E+00 0. -1.
         13    1    3    3    0    0 -0.42044371979E+02 -0.27409067591E+02  0.95370395860E+02  0.10777058322E+03  0.00000000000E+00 0.  1.
          4    1    1    2  501    0 -0.12245945970E+02 -0.17718810950E+02  0.27443208378E+02  0.34886231385E+02  0.00000000000E+00 0. -1.
<scales pt_clust_5="13000.00000" pt_clust_6="13000.00000" pt_clust_7="13000.00000" pt_clust_8="13000.00000" pt_clust_9="13000.00000"></scales>
<clustering>
<clus scale="   89.277">  5  6 -1 -1</clus>
<clus scale="   21.539">  5  9 -1 -1</clus>
<clus scale="   95.791">  7  8 -1 -1</clus>
<clus scale="  118.117">  2  7  1 -1</clus>
<clus scale="  149.106">  1  5  2 -1</clus>
</clustering>
</event>
<event>
 9    1  0.3312826E-006  0.2534310E+03  0.7546771E-02  0.1148203E+00
         21   -1    0    0  501  502  0.00000000000E+00  0.00000000000E+00  0.10040710371E+03  0.10040710371E+03  0.00000000000E+00 0.  1.
          2   -1    0    0  502    0 -0.00000000000E+00 -0.00000000000E+00 -0.32190630319E+03  0.32190630319E+03  0.00000000000E+00 0. -1.
         23    2    1    2    0    0 -0.38196504222E+01  0.41466888346E+02 -0.35498054485E+02  0.10795101458E+03  0.93054914532E+02 0.  0.
         23    2    1    2    0    0 -0.40045955639E+02 -0.10519195882E+03 -0.40875988181E+02  0.14990453407E+03  0.90174808900E+02 0.  0.
        -13    1    4    4    0    0  0.23416259469E+02 -0.40941579309E+01 -0.13869196027E+02  0.27521590345E+02  0.00000000000E+00 0. -1.
         13    1    4    4    0    0 -0.63462215108E+02 -0.10109780089E+03 -0.27006792154E+02  0.12238294372E+03  0.00000000000E+00 0.  1.
        -13    1    3    3    0    0 -0.28404647697E+02  0.62293204229E+02 -0.31898874847E+02  0.75530162984E+02  0.00000000000E+00 0.  1.
         13    1    3    3    0    0  0.24584997275E+02 -0.20826315883E+02 -0.35991796381E+01  0.32420851598E+02  0.00000000000E+00 0. -1.
          2    1    1    2  501    0  0.43865606061E+02  0.63725070477E+02 -0.14512515681E+03  0.16445785826E+03  0.00000000000E+00 0. -1.
<scales pt_clust_5="13000.00000" pt_clust_6="13000.00000" pt_clust_7="13000.00000" pt_clust_8="13000.00000" pt_clust_9="13000.00000"></scales>
<clustering>
<clus scale="   90.175">  5  6 -1 -1</clus>
<clus scale="   77.363">  5  9 -1 -1</clus>
<clus scale="   93.055">  7  8 -1 -1</clus>
<clus scale="  101.948">  2  7  1 -1</clus>
<clus scale="  253.431">  1  5  2 -1</clus>
</clustering>
</event>
<event>
 9    1  0.3312826E-006  0.3292663E+03  0.7546771E-02  0.1099543E+00
          2   -1    0    0  502    0 -0.00000000000E+00  0.00000000000E+00  0.29904025347E+03  0.29904025347E+03  0.00000000000E+00 0. -1.
         21   -1    0    0  501  502  0.00000000000E+00 -0.00000000000E+00 -0.22285051946E+03  0.22285051946E+03  0.00000000000E+00 0. -1.
         23    2    1    2    0    0  0.37687776732E+00 -0.11475214330E+03  0.11034033667E+03  0.19085823232E+03  0.10527905071E+03 0.  0.
         23    2    1    2    0    0 -0.13599288982E+03  0.99989928296E+02 -0.38478141699E+01  0.19129033258E+03  0.89917372198E+02 0.  0.
        -11    1    4    4    0    0 -0.48907901714E+02  0.71478893285E+02 -0.36536846891E+02  0.94000830933E+02  0.00000000000E+00 0.  1.
         11    1    4    4    0    0 -0.87084988104E+02  0.28511035011E+02  0.32689032721E+02  0.97289501647E+02  0.00000000000E+00 0. -1.
        -13    1    3    3    0    0 -0.40511598481E+02 -0.10653865621E+03  0.82773616684E+02  0.14086570377E+03  0.00000000000E+00 0. -1.
         13    1    3    3    0    0  0.40888476248E+02 -0.82134870901E+01  0.27566719984E+02  0.49992528549E+02  0.00000000000E+00 0.  1.
          2    1    1    2  501    0  0.13561601205E+03  0.14762215007E+02 -0.30302788492E+02  0.13974220804E+03  0.00000000000E+00 0. -1.
<scales pt_clust_5="13000.00000" pt_clust_6="13000.00000" pt_clust_7="13000.00000" pt_clust_8="13000.00000" pt_clust_9="13000.00000"></scales>
<clustering>
<clus scale="   89.917">  5  6 -1 -1</clus>
<clus scale="  105.279">  7  8 -1 -1</clus>
<clus scale="  136.417">  5  9 -1 -1</clus>
<clus scale="  155.730">  1  7  2 -1</clus>
<clus scale="  329.266">  2  5  1 -1</clus>
</clustering>
</event>
<event>
 9    1  0.3312826E-006  0.1496652E+03  0.7546771E-02  0.1216339E+00
         21   -1    0    0  501  502  0.00000000000E+00  0.00000000000E+00  0.43348307216E+03  0.43348307216E+03  0.00000000000E+00 0.  1.
          2   -1    0    0  502    0 -0.00000000000E+00 -0.00000000000E+00 -0.38576489117E+02  0.38576489117E+02  0.00000000000E+00 0. -1.
         23    2    1    2    0    0  0.44967256371E+02  0.36446524488E+02  0.19008183888E+03  0.21838095671E+03  0.90602061172E+02 0.  0.
         23    2    1    2    0    0  0.39700403479E+01 -0.29373262958E+02  0.11091054974E+03  0.14754300285E+03  0.92678141155E+02 0.  0.
        -11    1    3    3    0    0  0.67443250279E+02  0.47293690798E+02  0.15110808778E+03  0.17210153802E+03  0.00000000000E+00 0.  1.
         11    1    3    3    0    0 -0.22475993909E+02 -0.10847166310E+02  0.38973751107E+02  0.46279418692E+02  0.00000000000E+00 0. -1.
        -13    1    4    4    0    0 -0.40792116884E+02 -0.16528301393E+02  0.27168143808E+02  0.51723201610E+02  0.00000000000E+00 0. -1.
         13    1    4    4    0    0  0.44762157232E+02 -0.12844961566E+02  0.83742405934E+02  0.95819801238E+02  0.00000000000E+00 0.  1.
          2    1    1    2  501    0 -0.48937296719E+02 -0.70732615293E+01  0.93914194415E+02  0.10613560171E+03  0.00000000000E+00 0. -1.
<scales pt_clust_5="13000.00000" pt_clust_6="13000.00000" pt_clust_7="13000.00000" pt_clust_8="13000.00000" pt_clust_9="13000.00000"></scales>
<clustering>
<clus scale="   90.602">  5  6 -1 -1</clus>
<clus scale="   92.678">  7  8 -1 -1</clus>
<clus scale="   49.446">  7  9 -1 -1</clus>
<clus scale="  107.513">  2  5  1 -1</clus>
<clus scale="  149.665">  1  5  2 -1</clus>
</clustering>
</event>
<event>
 9    1  0.3312826E-006  0.1559611E+03  0.7546771E-02  0.1206004E+00
         21   -1    0    0  501  502  0.00000000000E+00  0.00000000000E+00  0.34869398021E+02  0.34869398021E+02  0.00000000000E+00 0.  1.
          2   -1    0    0  502    0 -0.00000000000E+00 -0.00000000000E+00 -0.82658942791E+03  0.82658942791E+03  0.00000000000E+00 0. -1.
         23    2    1    2    0    0  0.68531027087E+02 -0.33315753308E+02 -0.10832571047E+03  0.16049402792E+03  0.90650054366E+02 0.  0.
         23    2    1    2    0    0 -0.47564236060E+02 -0.12779777473E+02 -0.50491098232E+03  0.51543661712E+03  0.91181834455E+02 0.  0.
        -11    1    3    3    0    0  0.72199945731E+02  0.65095732223E+01 -0.44157915326E+02  0.84883026531E+02  0.00000000000E+00 0.  1.
         11    1    3    3    0    0 -0.36689186436E+01 -0.39825326530E+02 -0.64167795144E+02  0.75611001388E+02  0.00000000000E+00 0. -1.
        -11    1    4    4    0    0 -0.17594518649E+01 -0.46421835406E+02 -0.20632665384E+03  0.21149177421E+03  0.00000000000E+00 0. -1.
         11    1    4    4    0    0 -0.45804784195E+02  0.33642057933E+02 -0.29858432848E+03  0.30394484291E+03  0.00000000000E+00 0.  1.
          2    1    1    2  501    0 -0.20966791028E+02  0.46095530781E+02 -0.17848333710E+03  0.18552818089E+03  0.00000000000E+00 0. -1.
<scales pt_clust_5="13000.00000" pt_clust_6="13000.00000" pt_clust_7="13000.00000" pt_clust_8="13000.00000" pt_clust_9="13000.00000"></scales>
<clustering>
<clus scale="   90.650">  5  6 -1 -1</clus>
<clus scale="   91.182">  7  8 -1 -1</clus>
<clus scale="   50.640">  7  9 -1 -1</clus>
<clus scale="  118.422">  2  5  1 -1</clus>
<clus scale="  155.961">  1  5  2 -1</clus>
</clustering>
</event>
<event>
 9    1  0.3312826E-006  0.2208298E+03  0.7546771E-02  0.1166830E+00
         21   -1    0    0  501  502  0.00000000000E+00  0.00000000000E+00  0.38925674094E+03  0.38925674094E+03  0.00000000000E+00 0. -1.
          3   -1    0    0  502    0 -0.00000000000E+00 -0.00000000000E+00 -0.68710139630E+02  0.68710139630E+02  0.00000000000E+00 0. -1.
         23    2    1    2    0    0  0.30584348044E+02 -0.12797562346E+02  0.14451945133E+03  0.17556406357E+03  0.94008981795E+02 0.  0.
         23    2    1    2    0    0 -0.54749504809E+01 -0.68587714434E+02  0.39670445754E+02  0.12163218563E+03  0.92121629712E+02 0.  0.
        -11    1    4    4    0    0 -0.32356558993E+02 -0.32356728748E+02  0.57183048111E+02  0.73238007867E+02  0.00000000000E+00 0. -1.
         11    1    4    4    0    0  0.26881608512E+02 -0.36230985686E+02 -0.17512602357E+02  0.48394177762E+02  0.00000000000E+00 0.  1.
        -13    1    3    3    0    0 -0.22753638021E+02  0.16823580558E+02  0.14179784159E+02  0.31651653744E+02  0.00000000000E+00 0.  1.
         13    1    3    3    0    0  0.53337986065E+02 -0.29621142904E+02  0.13033966717E+03  0.14391240983E+03  0.00000000000E+00 0. -1.
          3    1    1    2  501    0 -0.25109397564E+02  0.81385276780E+02  0.13635670422E+03  0.16077063137E+03  0.00000000000E+00 0. -1.
<scales pt_clust_5="13000.00000" pt_clust_6="13000.00000" pt_clust_7="13000.00000" pt_clust_8="13000.00000" pt_clust_9="13000.00000"></scales>
<clustering>
<clus scale="   92.122">  5  6 -1 -1</clus>
<clus scale="   85.171">  5  9 -1 -1</clus>
<clus scale="   94.009">  7  8 -1 -1</clus>
<clus scale="   99.684">  2  7  1 -1</clus>
<clus scale="  220.830">  1  5  2 -1</clus>
</clustering>
</event>
<event>
 9    1  0.3312826E-006  0.1757361E+03  0.7546771E-02  0.1199878E+00
          1   -1    0    0  502    0 -0.00000000000E+00  0.00000000000E+00  0.43287330907E+02  0.43287330907E+02  0.00000000000E+00 0. -1.
         21   -1    0    0  501  502  0.00000000000E+00 -0.00000000000E+00 -0.42217710107E+03  0.42217710107E+03  0.00000000000E+00 0. -1.
         23    2    1    2    0    0 -0.11533606133E+02 -0.32355631613E+02 -0.13973107723E+03  0.16868155728E+03  0.88027171103E+02 0.  0.
         23    2    1    2    0    0  0.29708114219E+02 -0.14331414718E+02 -0.72037400334E+02  0.12231362389E+03  0.93184086864E+02 0.  0.
        -13    1    3    3    0    0  0.38516570374E+02 -0.17316679839E+02 -0.62778890546E+02  0.75660972054E+02  0.00000000000E+00 0. -1.
         13    1    3    3    0    0 -0.50050176507E+02 -0.15038951774E+02 -0.76952186687E+02  0.93020585221E+02  0.00000000000E+00 0.  1.
        -13    1    4    4    0    0 -0.75890355378E+01 -0.30959369416E+02 -0.74876553102E+02  0.81379200165E+02  0.00000000000E+00 0. -1.
         13    1    4    4    0    0  0.37297149757E+02  0.16627954699E+02  0.28391527680E+01  0.40934423727E+02  0.00000000000E+00 0.  1.
          1    1    1    2  501    0 -0.18174508086E+02  0.46687046331E+02 -0.16712129260E+03  0.17446925081E+03  0.00000000000E+00 0. -1.
<scales pt_clust_5="13000.00000" pt_clust_6="13000.00000" pt_clust_7="13000.00000" pt_clust_8="13000.00000" pt_clust_9="13000.00000"></scales>
<clustering>
<clus scale="   88.027">  5  6 -1 -1</clus>
<clus scale="   93.184">  7  8 -1 -1</clus>
<clus scale="   50.100">  7  9 -1 -1</clus>
<clus scale="   94.492">  1  5  2 -1</clus>
<clus scale="  175.736">  2  5  1 -1</clus>
</clustering>
</event>
<event>
 9    1  0.3312826E-006  0.6517343E+03  0.7546771E-02  0.1022166E+00
          2   -1    0    0  502    0 -0.00000000000E+00  0.00000000000E+00  0.18992248942E+04  0.18992248942E+04  0.00000000000E+00 0. -1.
         21   -1    0    0  501  502  0.00000000000E+00 -0.00000000000E+00 -0.10277786627E+03  0.10277786627E+03  0.00000000000E+00 0. -1.
         23    2    1    2    0    0  0.13823365331E+03  0.56795183449E+02  0.74239751329E+03  0.76273765027E+03  0.90996811143E+02 0.  0.
         23    2    1    2    0    0 -0.24955426380E+03 -0.26210796690E+03  0.85332855094E+03  0.93131296678E+03  0.90533470885E+02 0.  0.
        -11    1    4    4    0    0 -0.87635605571E+02 -0.12477816872E+03  0.45598241744E+03  0.48080095233E+03  0.00000000000E+00 0.  1.
         11    1    4    4    0    0 -0.16191865823E+03 -0.13732979818E+03  0.39734613350E+03  0.45051201445E+03  0.00000000000E+00 0. -1.
        -11    1    3    3    0    0 -0.71021120851E+01  0.24361371109E+02  0.86284885196E+02  0.89938855961E+02  0.00000000000E+00 0. -1.
         11    1    3    3    0    0  0.14533576540E+03  0.32433812340E+02  0.65611262809E+03  0.67279879431E+03  0.00000000000E+00 0.  1.
          2    1    1    2  501    0  0.11132061049E+03  0.20531278345E+03  0.20072096369E+03  0.30795214341E+03  0.00000000000E+00 0. -1.
<scales pt_clust_5="13000.00000" pt_clust_6="13000.00000" pt_clust_7="13000.00000" pt_clust_8="13000.00000" pt_clust_9="13000.00000"></scales>
<clustering>
<clus scale="   90.533">  5  6 -1 -1</clus>
<clus scale="   90.997">  7  8 -1 -1</clus>
<clus scale="  174.970">  1  7  2 -1</clus>
<clus scale="  260.084">  5  9 -1 -1</clus>
<clus scale="  651.734">  2  5  1 -1</clus>
</clustering>
</event>
<event>
 9    1  0.3312826E-006  0.1474762E+03  0.7546771E-02  0.1215805E+00
         21   -1    0    0  501  502  0.00000000000E+00  0.00000000000E+00  0.17302641944E+03  0.17302641944E+03  0.00000000000E+00 0. -1.
          1   -1    0    0  502    0 -0.00000000000E+00 -0.00000000000E+00 -0.18109130489E+03  0.18109130489E+03  0.00000000000E+00 0. -1.
         23    2    1    2    0    0 -0.67845834719E+02  0.10603700805E+02 -0.12276059284E+03  0.16729071814E+03  0.90556752709E+02 0.  0.
         23    2    1    2    0    0  0.63856887449E+02  0.16189631168E+02  0.11677322909E+03  0.15965881828E+03  0.86689935918E+02 0.  0.
        -11    1    4    4    0    0  0.42773609384E+02  0.25804358468E+01  0.12587193256E+03  0.13296609987E+03  0.00000000000E+00 0. -1.
         11    1    4    4    0    0  0.21083278065E+02  0.13609195321E+02 -0.90987034663E+01  0.26692718408E+02  0.00000000000E+00 0.  1.
        -13    1    3    3    0    0 -0.83368649250E+02 -0.13723761874E+02 -0.96643891270E+02  0.12836944745E+03  0.00000000000E+00 0. -1.
         13    1    3    3    0    0  0.15522814532E+02  0.24327462678E+02 -0.26116701568E+02  0.38921270690E+02  0.00000000000E+00 0.  1.
          1    1    1    2  501    0  0.39889472693E+01 -0.26793331972E+02 -0.20775217024E+01  0.27168187921E+02  0.00000000000E+00 0. -1.
<scales pt_clust_5="13000.00000" pt_clust_6="13000.00000" pt_clust_7="13000.00000" pt_clust_8="13000.00000" pt_clust_9="13000.00000"></scales>
<clustering>
<clus scale="   86.690">  5  6 -1 -1</clus>
<clus scale="   27.089">  5  9 -1 -1</clus>
<clus scale="   90.557">  7  8 -1 -1</clus>
<clus scale="  113.649">  2  7  1 -1</clus>
<clus scale="  147.476">  1  5  2 -1</clus>
</clustering>
</event>
<event>
 9    1  0.3312826E-006  0.5607682E+03  0.7546771E-02  0.1020734E+00
          2   -1    0    0  502    0 -0.00000000000E+00  0.00000000000E+00  0.17595262371E+04  0.17595262371E+04  0.00000000000E+00 0. -1.
         21   -1    0    0  501  502  0.00000000000E+00 -0.00000000000E+00 -0.10756002743E+03  0.10756002743E+03  0.00000000000E+00 0. -1.
         23    2    1    2    0    0  0.26694217974E+03  0.51665795274E+02  0.77280027401E+03  0.82430454536E+03  0.91270138959E+02 0.  0.
         23    2    1    2    0    0 -0.52451212654E+02  0.10769642398E+03  0.32407933024E+02  0.15486178645E+03  0.92640430325E+02 0.  0.
        -11    1    3    3    0    0  0.13293972609E+03 -0.18295089043E+02  0.40492867560E+03  0.42658517717E+03  0.00000000000E+00 0.  1.
         11    1    3    3    0    0  0.13400245365E+03  0.69960884317E+02  0.36787159841E+03  0.39771936819E+03  0.00000000000E+00 0. -1.
        -13    1    4    4    0    0 -0.10678140747E+02  0.44872651445E+02  0.58980258282E+02  0.74874885006E+02  0.00000000000E+00 0.  1.
         13    1    4    4    0    0 -0.41773071907E+02  0.62823772538E+02 -0.26572325258E+02  0.79986901441E+02  0.00000000000E+00 0. -1.
          2    1    1    2  501    0 -0.21449096709E+03 -0.15936221926E+03  0.84675800261E+03  0.88791993269E+03  0.00000000000E+00 0. -1.
<scales pt_clust_5="13000.00000" pt_clust_6="13000.00000" pt_clust_7="13000.00000" pt_clust_8="13000.00000" pt_clust_9="13000.00000"></scales>
<clustering>
<clus scale="   91.270">  5  6 -1 -1</clus>
<clus scale="   92.640">  7  8 -1 -1</clus>
<clus scale="  267.213">  7  9 -1 -1</clus>
<clus scale="  286.806">  1  5  2 -1</clus>
<clus scale="  560.768">  2  5  1 -1</clus>
</clustering>
</event>
<event>
 9    1  0.3312826E-006  0.1672858E+03  0.7546771E-02  0.1203663E+00
          2   -1    0    0  502    0 -0.00000000000E+00  0.00000000000E+00  0.29769658179E+03  0.29769658179E+03  0.00000000000E+00 0. -1.
         21   -1    0    0  501  502  0.00000000000E+00 -0.00000000000E+00 -0.69886018702E+02  0.69886018702E+02  0.00000000000E+00 0.  1.
         23    2    1    2    0    0  0.37255198965E+02 -0.14629568213E+02  0.23686751926E+02  0.10366772647E+03  0.92649669066E+02 0.  0.
         23    2    1    2    0    0  0.10029850465E+01  0.33456116791E+02  0.19818851523E+03  0.22086426064E+03  0.91553352369E+02 0.  0.
        -11    1    3    3    0    0 -0.10717368327E+02 -0.43078564108E+02  0.42094805272E+01  0.44590855518E+02  0.00000000000E+00 0. -1.
         11    1    3    3    0    0  0.47972567292E+02  0.28448995895E+02  0.19477271399E+02  0.59076870949E+02  0.00000000000E+00 0.  1.
        -13    1    4    4    0    0  0.37162712658E+02  0.27832999070E+01  0.35732132359E+02  0.51629441730E+02  0.00000000000E+00 0.  1.
         13    1    4    4    0    0 -0.36159727611E+02  0.30672816884E+02  0.16245638287E+03  0.16923481891E+03  0.00000000000E+00 0. -1.
          2    1    1    2  501    0 -0.38258184011E+02 -0.18826548578E+02  0.59352959355E+01  0.43050613387E+02  0.00000000000E+00 0. -1.
<scales pt_clust_5="13000.00000" pt_clust_6="13000.00000" pt_clust_7="13000.00000" pt_clust_8="13000.00000" pt_clust_9="13000.00000"></scales>
<clustering>
<clus scale="   91.553">  7  8 -1 -1</clus>
<clus scale="   42.640">  7  9 -1 -1</clus>
<clus scale="   92.650">  5  6 -1 -1</clus>
<clus scale="  100.925">  1  5  2 -1</clus>
<clus scale="  167.286">  2  5  1 -1</clus>
</clustering>
</event>
<event>
 9    1  0.3312826E-006  0.2177124E+03  0.7546771E-02  0.1146932E+00
         21   -1    0    0  501  502  0.00000000000E+00  0.00000000000E+00  0.33592324880E+02  0.33592324880E+02  0.00000000000E+00 0. -1.
          2   -1    0    0  502    0 -0.00000000000E+00 -0.00000000000E+00 -0.12034829653E+04  0.12034829653E+04  0.00000000000E+00 0. -1.
         23    2    1    2    0    0  0.11320950506E+03 -0.79772301680E+02 -0.69761419111E+03  0.71703324113E+03  0.91055461701E+02 0.  0.
         23    2    1    2    0    0 -0.57826918565E+02  0.12048001035E+02 -0.15094114839E+03  0.18701023765E+03  0.93276427180E+02 0.  0.
        -13    1    4    4    0    0  0.23712059334E+02  0.49476681468E+01 -0.59760305717E+02  0.64482829632E+02  0.00000000000E+00 0.  1.
         13    1    4    4    0    0 -0.81538977900E+02  0.71003328885E+01 -0.91180842674E+02  0.12252740801E+03  0.00000000000E+00 0. -1.
        -13    1    3    3    0    0  0.12541679985E+03 -0.61021953210E+02 -0.64413924644E+03  0.65906632539E+03  0.00000000000E+00 0.  1.
         13    1    3    3    0    0 -0.12207294789E+02 -0.18750348470E+02 -0.53474944669E+02  0.57966915747E+02  0.00000000000E+00 0. -1.
          2    1    1    2  501    0 -0.55382586493E+02  0.67724300645E+02 -0.32133530089E+03  0.33303181136E+03  0.00000000000E+00 0. -1.
<scales pt_clust_5="13000.00000" pt_clust_6="13000.00000" pt_clust_7="13000.00000" pt_clust_8="13000.00000" pt_clust_9="13000.00000"></scales>
<clustering>
<clus scale="   91.055">  7  8 -1 -1</clus>
<clus scale="   93.276">  5  6 -1 -1</clus>
<clus scale="   87.486">  5  9 -1 -1</clus>
<clus scale="  165.744">  2  7  1 -1</clus>
<clus scale="  217.712">  1  5  2 -1</clus>
</clustering>
</event>
<event>
 9    1  0.3312826E-006  0.2027323E+03  0.7546771E-02  0.1160069E+00
         21   -1    0    0  501  502  0.00000000000E+00  0.00000000000E+00  0.64991514455E+03  0.64991514455E+03  0.00000000000E+00 0. -1.
          1   -1    0    0  502    0 -0.00000000000E+00 -0.00000000000E+00 -0.53592974197E+02  0.53592974197E+02  0.00000000000E+00 0. -1.
         23    2    1    2    0    0 -0.10602402619E+03  0.53859627585E+02  0.37092672302E+03  0.40035225448E+03  0.92484270027E+02 0.  0.
         23    2    1    2    0    0  0.82648511850E+02  0.24498001859E+01  0.96952939292E+02  0.16097765146E+03  0.98372525632E+02 0.  0.
        -11    1    4    4    0    0  0.32119718540E+02 -0.15558923981E+02  0.10106167545E+03  0.10717844317E+03  0.00000000000E+00 0.  1.
         11    1    4    4    0    0  0.50528793310E+02  0.18008724167E+02 -0.41087361630E+01  0.53799208287E+02  0.00000000000E+00 0. -1.
        -13    1    3    3    0    0 -0.28607621410E+02 -0.26238415126E+02  0.10970410147E+03  0.11636941312E+03  0.00000000000E+00 0.  1.
         13    1    3    3    0    0 -0.77416404780E+02  0.80098042711E+02  0.26122262155E+03  0.28398284135E+03  0.00000000000E+00 0. -1.
          1    1    1    2  501    0  0.23375514341E+02 -0.56309427771E+02  0.12844250804E+03  0.14217821281E+03  0.00000000000E+00 0. -1.
<scales pt_clust_5="13000.00000" pt_clust_6="13000.00000" pt_clust_7="13000.00000" pt_clust_8="13000.00000" pt_clust_9="13000.00000"></scales>
<clustering>
<clus scale="   92.484">  7  8 -1 -1</clus>
<clus scale="   98.373">  5  6 -1 -1</clus>
<clus scale="   60.969">  5  9 -1 -1</clus>
<clus scale="  150.650">  2  7  1 -1</clus>
<clus scale="  202.732">  1  5  2 -1</clus>
</clustering>
</event>
<event>
 9    1  0.3312826E-006  0.2865802E+03  0.7546771E-02  0.1126351E+00
          1   -1    0    0  502    0 -0.00000000000E+00  0.00000000000E+00  0.10247537327E+03  0.10247537327E+03  0.00000000000E+00 0. -1.
         21   -1    0    0  501  502  0.00000000000E+00 -0.00000000000E+00 -0.48402695246E+03  0.48402695246E+03  0.00000000000E+00 0.  1.
         23    2    1    2    0    0 -0.62983982839E+02  0.46133265739E+02 -0.14200832470E+02  0.12058950290E+03  0.90801455188E+02 0.  0.
         23    2    1    2    0    0  0.12282198253E+03 -0.10526048221E+03 -0.30021457899E+03  0.35828439279E+03  0.10988131857E+03 0.  0.
        -13    1    4    4    0    0  0.88104497863E+02 -0.49876737929E+01 -0.11683041309E+03  0.14641251605E+03  0.00000000000E+00 0. -1.
         13    1    4    4    0    0  0.34717484669E+02 -0.10027280842E+03 -0.18338416590E+03  0.21187187674E+03  0.00000000000E+00 0.  1.
        -13    1    3    3    0    0 -0.56304806647E+02  0.46003256631E+01 -0.41801709421E+02  0.70276433875E+02  0.00000000000E+00 0.  1.
         13    1    3    3    0    0 -0.66791761922E+01  0.41532940076E+02  0.27600876951E+02  0.50313069022E+02  0.00000000000E+00 0. -1.
          1    1    1    2  501    0 -0.59837999693E+02  0.59127216472E+02 -0.67136167735E+02  0.10762843004E+03  0.00000000000E+00 0. -1.
<scales pt_clust_5="13000.00000" pt_clust_6="13000.00000" pt_clust_7="13000.00000" pt_clust_8="13000.00000" pt_clust_9="13000.00000"></scales>
<clustering>
<clus scale="   90.801">  7  8 -1 -1</clus>
<clus scale="  109.881">  5  6 -1 -1</clus>
<clus scale="   84.123">  5  9 -1 -1</clus>
<clus scale="  119.750">  1  7  2 -1</clus>
<clus scale="  286.580">  2  5  1 -1</clus>
</clustering>
</event>
<event>
 9    1  0.3312826E-006  0.1880727E+03  0.7546771E-02  0.1184632E+00
         -1   -1    0    0    0  501 -0.00000000000E+00  0.00000000000E+00  0.61009921272E+02  0.61009921272E+02  0.00000000000E+00 0.  1.
         21   -1    0    0  501  502  0.00000000000E+00 -0.00000000000E+00 -0.42001953407E+03  0.42001953407E+03  0.00000000000E+00 0.  1.
         23    2    1    2    0    0 -0.37560697038E+02 -0.44694638425E+02 -0.49016587110E+02  0.11844563659E+03  0.90654985238E+02 0.  0.
         23    2    1    2    0    0 -0.29955578720E+01  0.85022754112E+02 -0.24989851161E+03  0.27962288006E+03  0.92205460055E+02 0.  0.
        -11    1    3    3    0    0  0.19861808523E+02  0.13703177005E+02 -0.25053637226E+01  0.24259953529E+02  0.00000000000E+00 0. -1.
         11    1    3    3    0    0 -0.57422505561E+02 -0.58397815430E+02 -0.46511223388E+02  0.94185683057E+02  0.00000000000E+00 0.  1.
        -13    1    4    4    0    0 -0.22236544176E+02  0.98971832106E+02 -0.20912748477E+03  0.23243104856E+03  0.00000000000E+00 0.  1.
         13    1    4    4    0    0  0.19240986304E+02 -0.13949077994E+02 -0.40771026838E+02  0.47191831500E+02  0.00000000000E+00 0. -1.
         -1    1    1    2    0  502  0.40556254910E+02 -0.40328115687E+02 -0.60094514082E+02  0.82960938700E+02  0.00000000000E+00 0.  1.
<scales pt_clust_5="13000.00000" pt_clust_6="13000.00000" pt_clust_7="13000.00000" pt_clust_8="13000.00000" pt_clust_9="13000.00000"></scales>
<clustering>
<clus scale="   90.655">  5  6 -1 -1</clus>
<clus scale="   92.205">  7  8 -1 -1</clus>
<clus scale="   57.194">  7  9 -1 -1</clus>
<clus scale="  107.827">  1  5  2 -1</clus>
<clus scale="  188.073">  2  5  1 -1</clus>
</clustering>
</event>
<event>
 9    1  0.3312826E-006  0.1947608E+03  0.7546771E-02  0.1184380E+00
         21   -1    0    0  501  502  0.00000000000E+00  0.00000000000E+00  0.37144531806E+02  0.37144531806E+02  0.00000000000E+00 0. -1.
          1   -1    0    0  502    0 -0.00000000000E+00 -0.00000000000E+00 -0.58182154198E+03  0.58182154198E+03  0.00000000000E+00 0. -1.
         23    2    1    2    0    0 -0.34391199935E+02 -0.70335953850E+01 -0.21343210807E+03  0.23470712767E+03  0.91115009333E+02 0.  0.
         23    2    1    2    0    0  0.68369615190E+01  0.34572873096E+02 -0.32847088216E+03  0.34520330558E+03  0.10015075717E+03 0.  0.
        -11    1    4    4    0    0  0.49082490414E+02 -0.32485099318E+01 -0.16510801250E+03  0.17227971289E+03  0.00000000000E+00 0.  1.
         11    1    4    4    0    0 -0.42245528895E+02  0.37821383027E+02 -0.16336286966E+03  0.17292359269E+03  0.00000000000E+00 0. -1.
        -13    1    3    3    0    0  0.98697078908E+01  0.34359909117E+02 -0.61507135982E+02  0.71141705526E+02  0.00000000000E+00 0.  1.
         13    1    3    3    0    0 -0.44260907825E+02 -0.41393504502E+02 -0.15192497209E+03  0.16356542214E+03  0.00000000000E+00 0. -1.
          1    1    1    2  501    0  0.27554238416E+02 -0.27539277711E+02 -0.27740199486E+01  0.39055640542E+02  0.00000000000E+00 0. -1.
<scales pt_clust_5="13000.00000" pt_clust_6="13000.00000" pt_clust_7="13000.00000" pt_clust_8="13000.00000" pt_clust_9="13000.00000"></scales>
<clustering>
<clus scale="   91.115">  7  8 -1 -1</clus>
<clus scale="   97.643">  2  7  1 -1</clus>
<clus scale="  100.151">  5  6 -1 -1</clus>
<clus scale="   37.864">  5  9 -1 -1</clus>
<clus scale="  194.761">  1  5  2 -1</clus>
</clustering>
</event>
<event>
 9    1  0.3312826E-006  0.6408397E+03  0.7546771E-02  0.1016916E+00
         -1   -1    0    0    0  501 -0.00000000000E+00  0.00000000000E+00  0.61088483537E+03  0.61088483537E+03  0.00000000000E+00 0.  1.
         21   -1    0    0  501  502  0.00000000000E+00 -0.00000000000E+00 -0.30424472845E+03  0.30424472845E+03  0.00000000000E+00 0.  1.
         23    2    1    2    0    0  0.14117449934E+03 -0.13556343481E+03  0.12355956167E+03  0.24865079884E+03  0.90843658901E+02 0.  0.
         23    2    1    2    0    0 -0.32045654690E+03  0.54248022562E+02  0.28715663527E+03  0.44379944093E+03  0.94147566043E+02 0.  0.
        -13    1    4    4    0    0 -0.17081418810E+03 -0.97796927037E+01  0.18319564976E+03  0.25066666179E+03  0.00000000000E+00 0.  1.
         13    1    4    4    0    0 -0.14964235880E+03  0.64027715266E+02  0.10396098551E+03  0.19313277914E+03  0.00000000000E+00 0. -1.
        -13    1    3    3    0    0 -0.10620861142E+02 -0.18674880194E+02  0.16051636760E+01  0.21543685666E+02  0.00000000000E+00 0.  1.
         13    1    3    3    0    0  0.15179536048E+03 -0.11688855461E+03  0.12195439800E+03  0.22710711317E+03  0.00000000000E+00 0. -1.
         -1    1    1    2    0  502  0.17928204755E+03  0.81315412243E+02 -0.10407609002E+03  0.22267932405E+03  0.00000000000E+00 0.  1.
<scales pt_clust_5="13000.00000" pt_clust_6="13000.00000" pt_clust_7="13000.00000" pt_clust_8="13000.00000" pt_clust_9="13000.00000"></scales>
<clustering>
<clus scale="   90.844">  7  8 -1 -1</clus>
<clus scale="   94.148">  5  6 -1 -1</clus>
<clus scale="  196.861">  5  9 -1 -1</clus>
<clus scale="  215.778">  1  7  2 -1</clus>
<clus scale="  640.840">  2  5  1 -1</clus>
</clustering>
</event>
<event>
 9    1  0.3312826E-006  0.3103198E+03  0.7546771E-02  0.1081615E+00
         21   -1    0    0  501  502  0.00000000000E+00  0.00000000000E+00  0.84849509562E+02  0.84849509562E+02  0.00000000000E+00 0.  1.
         -2   -1    0    0    0  501 -0.00000000000E+00 -0.00000000000E+00 -0.12296365919E+04  0.12296365919E+04  0.00000000000E+00 0.  1.
         23    2    1    2    0    0  0.71083131288E+02 -0.27601139957E+03 -0.34341541314E+03  0.45512880719E+03  0.89291549997E+02 0.  0.
         23    2    1    2    0    0 -0.19934904556E+02  0.17742896551E+03 -0.50800234591E+03  0.54566923704E+03  0.88374739515E+02 0.  0.
        -13    1    3    3    0    0 -0.45411677456E+01 -0.40568303285E+02 -0.13860284279E+02  0.43110519786E+02  0.00000000000E+00 0. -1.
         13    1    3    3    0    0  0.75624299034E+02 -0.23544309629E+03 -0.32955512886E+03  0.41201828740E+03  0.00000000000E+00 0.  1.
        -13    1    4    4    0    0  0.13235247141E+02  0.12925813796E+03 -0.25744271718E+03  0.28837404638E+03  0.00000000000E+00 0.  1.
         13    1    4    4    0    0 -0.33170151697E+02  0.48170827551E+02 -0.25055962873E+03  0.25729519067E+03  0.00000000000E+00 0. -1.
         -2    1    1    2    0  502 -0.51148226732E+02  0.98582434064E+02 -0.29336932328E+03  0.31368805723E+03  0.00000000000E+00 0.  1.
<scales pt_clust_5="13000.00000" pt_clust_6="13000.00000" pt_clust_7="13000.00000" pt_clust_8="13000.00000" pt_clust_9="13000.00000"></scales>
<clustering>
<clus scale="   88.375">  7  8 -1 -1</clus>
<clus scale="   89.292">  5  6 -1 -1</clus>
<clus scale="  111.061">  7  9 -1 -1</clus>
<clus scale="  298.677">  2  5  1 -1</clus>
<clus scale="  310.320">  1  5  2 -1</clus>
</clustering>
</event>
<event>
 9    1  0.3312826E-006  0.1956271E+03  0.7546771E-02  0.1180374E+00
         21   -1    0    0  501  502  0.00000000000E+00  0.00000000000E+00  0.17184183800E+03  0.17184183800E+03  0.00000000000E+00 0. -1.
         -2   -1    0    0    0  501 -0.00000000000E+00 -0.00000000000E+00 -0.18053934321E+03  0.18053934321E+03  0.00000000000E+00 0.  1.
         23    2    1    2    0    0  0.48302152857E+02  0.16122190573E+02 -0.91864112632E+02  0.13980963225E+03  0.92275105421E+02 0.  0.
         23    2    1    2    0    0 -0.38873821728E+02 -0.60428170540E+02  0.26396158803E+01  0.12017831514E+03  0.96297051079E+02 0.  0.
        -11    1    3    3    0    0 -0.66147671597E+01  0.43511289469E+02 -0.39490282009E+02  0.59130954914E+02  0.00000000000E+00 0.  1.
         11    1    3    3    0    0  0.54916920017E+02 -0.27389098896E+02 -0.52373830623E+02  0.80678677335E+02  0.00000000000E+00 0. -1.
        -11    1    4    4    0    0 -0.18276478480E+02  0.24954163469E+02  0.87188601298E+01  0.32136559586E+02  0.00000000000E+00 0.  1.
         11    1    4    4    0    0 -0.20597343249E+02 -0.85382334010E+02 -0.60792442496E+01  0.88041755551E+02  0.00000000000E+00 0. -1.
         -2    1    1    2    0  502 -0.94283311292E+01  0.44305979967E+02  0.80526991550E+02  0.92393233826E+02  0.00000000000E+00 0.  1.
<scales pt_clust_5="13000.00000" pt_clust_6="13000.00000" pt_clust_7="13000.00000" pt_clust_8="13000.00000" pt_clust_9="13000.00000"></scales>
<clustering>
<clus scale="   92.275">  5  6 -1 -1</clus>
<clus scale="   96.297">  7  8 -1 -1</clus>
<clus scale="   45.298">  7  9 -1 -1</clus>
<clus scale="  105.393">  2  5  1 -1</clus>
<clus scale="  195.627">  1  5  2 -1</clus>
</clustering>
</event>
<event>
 9    1  0.3312826E-006  0.7097359E+03  0.7546771E-02  0.1027234E+00
         21   -1    0    0  501  502  0.00000000000E+00  0.00000000000E+00  0.19263847002E+03  0.19263847002E+03  0.00000000000E+00 0. -1.
          4   -1    0    0  502    0 -0.00000000000E+00 -0.00000000000E+00 -0.94425853247E+03  0.94425853247E+03  0.00000000000E+00 0. -1.
         23    2    1    2    0    0  0.67295598273E+02 -0.19890034621E+02 -0.22433841936E+03  0.25273013992E+03  0.92846573438E+02 0.  0.
         23    2    1    2    0    0  0.13320186430E+03  0.93748181520E+02 -0.62276568124E+03  0.65013383093E+03  0.91134220789E+02 0.  0.
        -11    1    4    4    0    0  0.44522649929E+02  0.81980204754E+02 -0.25155523578E+03  0.26829658398E+03  0.00000000000E+00 0.  1.
         11    1    4    4    0    0  0.88679214368E+02  0.11767976766E+02 -0.37121044545E+03  0.38183724694E+03  0.00000000000E+00 0. -1.
        -11    1    3    3    0    0  0.82594250481E+02 -0.35777894810E+02 -0.20291222553E+03  0.22198026768E+03  0.00000000000E+00 0. -1.
         11    1    3    3    0    0 -0.15298652208E+02  0.15887860190E+02 -0.21426193829E+02  0.30749872240E+02  0.00000000000E+00 0.  1.
          4    1    1    2  501    0 -0.20049746257E+03 -0.73858146899E+02  0.95484038151E+02  0.23403303165E+03  0.00000000000E+00 0. -1.
<scales pt_clust_5="13000.00000" pt_clust_6="13000.00000" pt_clust_7="13000.00000" pt_clust_8="13000.00000" pt_clust_9="13000.00000"></scales>
<clustering>
<clus scale="   91.134">  5  6 -1 -1</clus>
<clus scale="   92.847">  7  8 -1 -1</clus>
<clus scale="  116.382">  2  7  1 -1</clus>
<clus scale="  208.186">  5  9 -1 -1</clus>
<clus scale="  709.736">  1  5  2 -1</clus>
</clustering>
</event>
<event>
 9    1  0.3312826E-006  0.3995632E+03  0.7546771E-02  0.1095621E+00
         -3   -1    0    0    0  501 -0.00000000000E+00  0.00000000000E+00  0.42412564979E+03  0.42412564979E+03  0.00000000000E+00 0.  1.
         21   -1    0    0  501  502  0.00000000000E+00 -0.00000000000E+00 -0.18854559735E+03  0.18854559735E+03  0.00000000000E+00 0.  1.
         23    2    1    2    0    0 -0.21378824247E+02  0.18644720905E+02  0.18663829221E+03  0.21012176885E+03  0.92263892614E+02 0.  0.
         23    2    1    2    0    0  0.17130002122E+03 -0.11196375077E+03  0.32496248024E+02  0.22519316600E+03  0.88183769019E+02 0.  0.
        -13    1    3    3    0    0 -0.27647464355E+02 -0.33773045933E+02  0.80005848205E+02  0.91136911643E+02  0.00000000000E+00 0. -1.
         13    1    3    3    0    0  0.62686401080E+01  0.52417766839E+02  0.10663244401E+03  0.11898485721E+03  0.00000000000E+00 0.  1.
        -13    1    4    4    0    0  0.44808937529E+02 -0.57448923872E+02 -0.23432284037E+02  0.76532945009E+02  0.00000000000E+00 0. -1.
         13    1    4    4    0    0  0.12649108369E+03 -0.54514826899E+02  0.55928532060E+02  0.14866022099E+03  0.00000000000E+00 0.  1.
         -3    1    1    2    0  502 -0.14992119697E+03  0.93319029866E+02  0.16445512206E+02  0.17735631229E+03  0.00000000000E+00 0.  1.
<scales pt_clust_5="13000.00000" pt_clust_6="13000.00000" pt_clust_7="13000.00000" pt_clust_8="13000.00000" pt_clust_9="13000.00000"></scales>
<clustering>
<clus scale="   88.184">  7  8 -1 -1</clus>
<clus scale="   92.264">  5  6 -1 -1</clus>
<clus scale="   96.526">  1  5  2 -1</clus>
<clus scale="  188.622">  7  9 -1 -1</clus>
<clus scale="  399.563">  2  5  1 -1</clus>
</clustering>
</event>
<event>
 9    1  0.3312826E-006  0.2399590E+03  0.7546771E-02  0.1153408E+00
          2   -1    0    0  502    0 -0.00000000000E+00  0.00000000000E+00  0.55894868322E+03  0.55894868322E+03  0.00000000000E+00 0. -1.
         21   -1    0    0  501  502  0.00000000000E+00 -0.00000000000E+00 -0.61109647748E+02  0.61109647748E+02  0.00000000000E+00 0. -1.
         23    2    1    2    0    0  0.45187710391E+02 -0.26061413654E+02  0.26594141148E+03  0.28635663215E+03  0.92488701949E+02 0.  0.
         23    2    1    2    0    0  0.53338061548E+02  0.49594307917E+02  0.19208327390E+03  0.22486095588E+03  0.91443540941E+02 0.  0.
        -13    1    4    4    0    0  0.26745760012E+02 -0.10589011079E+02  0.87326049429E+01  0.30061956413E+02  0.00000000000E+00 0.  1.
         13    1    4    4    0    0  0.26592301535E+02  0.60183318996E+02  0.18335066896E+03  0.19479899947E+03  0.00000000000E+00 0. -1.
        -13    1    3    3    0    0  0.70875207587E+02 -0.34271260799E+02  0.20949909349E+03  0.22380278046E+03  0.00000000000E+00 0.  1.
         13    1    3    3    0    0 -0.25687497197E+02  0.82098471443E+01  0.56442317988E+02  0.62553851697E+02  0.00000000000E+00 0. -1.
          2    1    1    2  501    0 -0.98525771938E+02 -0.23532894262E+02  0.39814350090E+02  0.10884074293E+03  0.00000000000E+00 0. -1.
<scales pt_clust_5="13000.00000" pt_clust_6="13000.00000" pt_clust_7="13000.00000" pt_clust_8="13000.00000" pt_clust_9="13000.00000"></scales>
<clustering>
<clus scale="   91.444">  5  6 -1 -1</clus>
<clus scale="   92.489">  7  8 -1 -1</clus>
<clus scale="  101.297">  5  9 -1 -1</clus>
<clus scale="  106.185">  1  7  2 -1</clus>
<clus scale="  239.959">  2  5  1 -1</clus>
</clustering>
</event>
<event>
 9    1  0.3312826E-006  0.1312878E+03  0.7546771E-02  0.1235207E+00
         21   -1    0    0  501  502  0.00000000000E+00  0.00000000000E+00  0.28746268211E+03  0.28746268211E+03  0.00000000000E+00 0. -1.
         -3   -1    0    0    0  501 -0.00000000000E+00 -0.00000000000E+00 -0.52476049397E+02  0.52476049397E+02  0.00000000000E+00 0.  1.
         23    2    1    2    0    0  0.55251975194E+02 -0.16756117604E+02  0.67021685955E+02  0.12675168277E+03  0.90777389571E+02 0.  0.
         23    2    1    2    0    0 -0.18608370975E+02  0.19564214696E+02  0.11915375422E+03  0.15208736251E+03  0.90575486332E+02 0.  0.
        -11    1    4    4    0    0 -0.42897179344E+02  0.30046349839E+02  0.32856391813E+02  0.61826318161E+02  0.00000000000E+00 0.  1.
         11    1    4    4    0    0  0.24288808369E+02 -0.10482135144E+02  0.86297362406E+02  0.90261044351E+02  0.00000000000E+00 0. -1.
        -11    1    3    3    0    0  0.64557103760E+02 -0.35918101018E+02  0.73774637126E+02  0.10440510864E+03  0.00000000000E+00 0. -1.
         11    1    3    3    0    0 -0.93051285666E+01  0.19161983415E+02 -0.67529511704E+01  0.22346574134E+02  0.00000000000E+00 0.  1.
         -3    1    1    2    0  502 -0.36643604219E+02 -0.28080970920E+01  0.48811192540E+02  0.61099686224E+02  0.00000000000E+00 0.  1.
<scales pt_clust_5="13000.00000" pt_clust_6="13000.00000" pt_clust_7="13000.00000" pt_clust_8="13000.00000" pt_clust_9="13000.00000"></scales>
<clustering>
<clus scale="   90.575">  5  6 -1 -1</clus>
<clus scale="   36.751">  5  9 -1 -1</clus>
<clus scale="   90.777">  7  8 -1 -1</clus>
<clus scale="  107.583">  2  7  1 -1</clus>
<clus scale="  131.288">  1  5  2 -1</clus>
</clustering>
</event>
<event>
 9    1  0.3312826E-006  0.2998151E+03  0.7546771E-02  0.1120221E+00
          1   -1    0    0  502    0 -0.00000000000E+00  0.00000000000E+00  0.49135536590E+03  0.49135536590E+03  0.00000000000E+00 0. -1.
         21   -1    0    0  501  502  0.00000000000E+00 -0.00000000000E+00 -0.20705905636E+03  0.20705905636E+03  0.00000000000E+00 0. -1.
         23    2    1    2    0    0 -0.77616517421E+02 -0.24234465726E+02  0.36759166566E+03  0.38724369312E+03  0.90677517023E+02 0.  0.
         23    2    1    2    0    0  0.68561135254E+01 -0.10852036272E+03 -0.50550061173E+01  0.14160530931E+03  0.90569504361E+02 0.  0.
        -11    1    3    3    0    0 -0.32001158362E+02  0.25697724537E+02  0.23330872228E+03  0.23689112916E+03  0.00000000000E+00 0.  1.
         11    1    3    3    0    0 -0.45615359058E+02 -0.49932190263E+02  0.13428294338E+03  0.15035256396E+03  0.00000000000E+00 0. -1.
        -11    1    4    4    0    0  0.29875188409E+02 -0.22061529529E+02  0.27696461114E+02  0.46328521732E+02  0.00000000000E+00 0.  1.
         11    1    4    4    0    0 -0.23019074883E+02 -0.86458833193E+02 -0.32751467231E+02  0.95276787579E+02  0.00000000000E+00 0. -1.
          1    1    1    2  501    0  0.70760403896E+02  0.13275482845E+03 -0.78240349996E+02  0.16956541983E+03  0.00000000000E+00 0. -1.
<scales pt_clust_5="13000.00000" pt_clust_6="13000.00000" pt_clust_7="13000.00000" pt_clust_8="13000.00000" pt_clust_9="13000.00000"></scales>
<clustering>
<clus scale="   90.570">  7  8 -1 -1</clus>
<clus scale="   90.678">  5  6 -1 -1</clus>
<clus scale="  121.795">  1  5  2 -1</clus>
<clus scale="  129.275">  7  9 -1 -1</clus>
<clus scale="  299.815">  2  5  1 -1</clus>
</clustering>
</event>
<event>
 9    1  0.3312826E-006  0.3609597E+03  0.7546771E-02  0.1102670E+00
         21   -1    0    0  501  502  0.00000000000E+00  0.00000000000E+00  0.64468738135E+02  0.64468738135E+02  0.00000000000E+00 0. -1.
          1   -1    0    0  502    0 -0.00000000000E+00 -0.00000000000E+00 -0.90407836586E+03  0.90407836586E+03  0.00000000000E+00 0. -1.
         23    2    1    2    0    0  0.60981612253E+02  0.69693089793E+01 -0.30135700755E+03  0.32046705322E+03  0.90087501338E+02 0.  0.
         23    2    1    2    0    0  0.94903603655E+02  0.55769442084E+02 -0.41655927342E+03  0.44060566183E+03  0.92167219276E+02 0.  0.
        -11    1    4    4    0    0  0.73778297560E+02  0.80450169774E+02 -0.34839974586E+03  0.36509978077E+03  0.00000000000E+00 0. -1.
         11    1    4    4    0    0  0.21125306094E+02 -0.24680727689E+02 -0.68159527566E+02  0.75505881061E+02  0.00000000000E+00 0.  1.
        -13    1    3    3    0    0 -0.13845433392E+02  0.18897427254E+02 -0.26562059525E+02  0.35416829176E+02  0.00000000000E+00 0.  1.
         13    1    3    3    0    0  0.74827045646E+02 -0.11928118275E+02 -0.27479494803E+03  0.28505022405E+03  0.00000000000E+00 0. -1.
          1    1    1    2  501    0 -0.15588521591E+03 -0.62738751064E+02 -0.12169334675E+03  0.20747438894E+03  0.00000000000E+00 0. -1.
<scales pt_clust_5="13000.00000" pt_clust_6="13000.00000" pt_clust_7="13000.00000" pt_clust_8="13000.00000" pt_clust_9="13000.00000"></scales>
<clustering>
<clus scale="   90.088">  7  8 -1 -1</clus>
<clus scale="   92.167">  5  6 -1 -1</clus>
<clus scale="  109.010">  2  7  1 -1</clus>
<clus scale="  151.686">  5  9 -1 -1</clus>
<clus scale="  360.960">  1  5  2 -1</clus>
</clustering>
</event>
<event>
 9    1  0.3312826E-006  0.1377597E+03  0.7546771E-02  0.1230531E+00
          2   -1    0    0  502    0 -0.00000000000E+00  0.00000000000E+00  0.13626475090E+03  0.13626475090E+03  0.00000000000E+00 0. -1.
         21   -1    0    0  501  502  0.00000000000E+00 -0.00000000000E+00 -0.24811451514E+03  0.24811451514E+03  0.00000000000E+00 0.  1.
         23    2    1    2    0    0  0.95152391861E+01 -0.37194855918E+02  0.92402612786E+02  0.13801209739E+03  0.95053138258E+02 0.  0.
         23    2    1    2    0    0 -0.12990680346E+02  0.61744838176E+02 -0.18271665274E+03  0.21352561356E+03  0.90700769778E+02 0.  0.
        -11    1    3    3    0    0  0.20953571829E+02  0.12820780568E+02 -0.75174793438E+01  0.25689240597E+02  0.00000000000E+00 0.  1.
         11    1    3    3    0    0 -0.11438332643E+02 -0.50015636486E+02  0.99920092130E+02  0.11232285679E+03  0.00000000000E+00 0. -1.
        -11    1    4    4    0    0  0.38761864451E+02  0.23526115216E+02 -0.63048232324E+02  0.77659769714E+02  0.00000000000E+00 0. -1.
         11    1    4    4    0    0 -0.51752544797E+02  0.38218722960E+02 -0.11966842042E+03  0.13586584384E+03  0.00000000000E+00 0.  1.
          2    1    1    2  501    0  0.34754411598E+01 -0.24549982259E+02 -0.21535724283E+02  0.32841555087E+02  0.00000000000E+00 0. -1.
<scales pt_clust_5="13000.00000" pt_clust_6="13000.00000" pt_clust_7="13000.00000" pt_clust_8="13000.00000" pt_clust_9="13000.00000"></scales>
<clustering>
<clus scale="   90.701">  7  8 -1 -1</clus>
<clus scale="   24.795">  7  9 -1 -1</clus>
<clus scale="   95.053">  5  6 -1 -1</clus>
<clus scale="  102.514">  1  5  2 -1</clus>
<clus scale="  137.760">  2  5  1 -1</clus>
</clustering>
</event>
<event>
 9    1  0.3312826E-006  0.2522781E+03  0.7546771E-02  0.1150020E+00
         -1   -1    0    0    0  501 -0.00000000000E+00  0.00000000000E+00  0.46290120251E+03  0.46290120251E+03  0.00000000000E+00 0.  1.
         21   -1    0    0  501  502  0.00000000000E+00 -0.00000000000E+00 -0.86259656577E+02  0.86259656577E+02  0.00000000000E+00 0. -1.
         23    2    1    2    0    0 -0.34553052035E+02  0.22212792170E+02  0.24577303721E+03  0.26495885058E+03  0.90063783719E+02 0.  0.
         23    2    1    2    0    0  0.36022012568E+02  0.94163431605E+02  0.58486388674E+02  0.14714452200E+03  0.89813782098E+02 0.  0.
        -13    1    4    4    0    0  0.47909848239E+02  0.71570222196E+02  0.31276692170E+01  0.86182553792E+02  0.00000000000E+00 0. -1.
         13    1    4    4    0    0 -0.11887835671E+02  0.22593209409E+02  0.55358719457E+02  0.60961968212E+02  0.00000000000E+00 0.  1.
        -13    1    3    3    0    0  0.72455260851E+01  0.44732527444E+02  0.74251684524E+02  0.86987408942E+02  0.00000000000E+00 0.  1.
         13    1    3    3    0    0 -0.41798578120E+02 -0.22519735274E+02  0.17152135269E+03  0.17797144164E+03  0.00000000000E+00 0. -1.
         -1    1    1    2    0  502 -0.14689605333E+01 -0.11637622377E+03  0.72382120051E+02  0.13705748651E+03  0.00000000000E+00 0.  1.
<scales pt_clust_5="13000.00000" pt_clust_6="13000.00000" pt_clust_7="13000.00000" pt_clust_8="13000.00000" pt_clust_9="13000.00000"></scales>
<clustering>
<clus scale="   89.814">  5  6 -1 -1</clus>
<clus scale="   90.064">  7  8 -1 -1</clus>
<clus scale="   98.989">  1  7  2 -1</clus>
<clus scale="  106.853">  5  9 -1 -1</clus>
<clus scale="  252.278">  2  5  1 -1</clus>
</clustering>
</event>
<event>
 9    1  0.3312826E-006  0.2542222E+03  0.7546771E-02  0.1123735E+00
         21   -1    0    0  501  502  0.00000000000E+00  0.00000000000E+00  0.35910650281E+02  0.35910650281E+02  0.00000000000E+00 0. -1.
          2   -1    0    0  502    0 -0.00000000000E+00 -0.00000000000E+00 -0.13679349735E+04  0.13679349735E+04  0.00000000000E+00 0. -1.
         23    2    1    2    0    0  0.12868505491E+02 -0.15973943419E+03 -0.67431343947E+03  0.69871264710E+03  0.88422074738E+02 0.  0.
         23    2    1    2    0    0  0.37853593777E+02  0.48974587924E+02 -0.45828694678E+03  0.47144196454E+03  0.91647124969E+02 0.  0.
        -11    1    3    3    0    0 -0.25387679597E+02 -0.25562146353E+02 -0.72766347000E+02  0.81196667771E+02  0.00000000000E+00 0.  1.
         11    1    3    3    0    0  0.38256185088E+02 -0.13417728783E+03 -0.60154709247E+03  0.61751597933E+03  0.00000000000E+00 0. -1.
        -13    1    4    4    0    0  0.63131901573E+02  0.45037300621E+02 -0.40467685840E+03  0.41204047758E+03  0.00000000000E+00 0. -1.
         13    1    4    4    0    0 -0.25278307796E+02  0.39372873031E+01 -0.53610088385E+02  0.59401486959E+02  0.00000000000E+00 0.  1.
          2    1    1    2  501    0 -0.50722099269E+02  0.11076484626E+03 -0.19942393699E+03  0.23369101216E+03  0.00000000000E+00 0. -1.
<scales pt_clust_5="13000.00000" pt_clust_6="13000.00000" pt_clust_7="13000.00000" pt_clust_8="13000.00000" pt_clust_9="13000.00000"></scales>
<clustering>
<clus scale="   88.422">  5  6 -1 -1</clus>
<clus scale="   91.647">  7  8 -1 -1</clus>
<clus scale="  121.826">  7  9 -1 -1</clus>
<clus scale="  183.032">  2  5  1 -1</clus>
<clus scale="  254.222">  1  5  2 -1</clus>
</clustering>
</event>
<event>
 9    1  0.3312826E-006  0.3273215E+03  0.7546771E-02  0.1107511E+00
         -1   -1    0    0    0  501 -0.00000000000E+00  0.00000000000E+00  0.22176585282E+03  0.22176585282E+03  0.00000000000E+00 0.  1.
         21   -1    0    0  501  502  0.00000000000E+00 -0.00000000000E+00 -0.25304465555E+03  0.25304465555E+03  0.00000000000E+00 0.  1.
         23    2    1    2    0    0  0.70172383552E+02 -0.64917814564E+02  0.48518153329E+02  0.13790265573E+03  0.86744712771E+02 0.  0.
         23    2    1    2    0    0  0.39817244147E+02 -0.75985566380E+01  0.81151214681E+02  0.12891589136E+03  0.91600417066E+02 0.  0.
        -13    1    3    3    0    0  0.86498192720E+02 -0.53166416408E+02  0.56579788178E+02  0.11623199907E+03  0.00000000000E+00 0.  1.
         13    1    3    3    0    0 -0.16325809168E+02 -0.11751398156E+02 -0.80616348497E+01  0.21670656659E+02  0.00000000000E+00 0. -1.
        -13    1    4    4    0    0  0.28211220955E+02  0.90870004112E+01  0.98082388192E+02  0.10246268315E+03  0.00000000000E+00 0. -1.
         13    1    4    4    0    0  0.11606023192E+02 -0.16685557049E+02 -0.16931173510E+02  0.26453208214E+02  0.00000000000E+00 0.  1.
         -1    1    1    2    0  502 -0.10998962770E+03  0.72516371202E+02 -0.16094817073E+03  0.20799196128E+03  0.00000000000E+00 0.  1.
<scales pt_clust_5="13000.00000" pt_clust_6="13000.00000" pt_clust_7="13000.00000" pt_clust_8="13000.00000" pt_clust_9="13000.00000"></scales>
<clustering>
<clus scale="   86.745">  5  6 -1 -1</clus>
<clus scale="   91.600">  7  8 -1 -1</clus>
<clus scale="  129.086">  1  5  2 -1</clus>
<clus scale="  114.521">  7  9 -1 -1</clus>
<clus scale="  327.321">  2  5  1 -1</clus>
</clustering>
</event>
<event>
 9    1  0.3312826E-006  0.2453253E+03  0.7546771E-02  0.1151006E+00
          1   -1    0    0  502    0 -0.00000000000E+00  0.00000000000E+00  0.16632808298E+03  0.16632808298E+03  0.00000000000E+00 0. -1.
         21   -1    0    0  501  502  0.00000000000E+00 -0.00000000000E+00 -0.20571945190E+03  0.20571945190E+03  0.00000000000E+00 0. -1.
         23    2    1    2    0    0  0.26052696982E+02  0.46455632090E+02  0.42482346195E+02  0.11342073499E+03  0.90678799146E+02 0.  0.
         23    2    1    2    0    0 -0.31061148679E+02 -0.60929955642E+01  0.56516254216E+02  0.11438391228E+03  0.94274454895E+02 0.  0.
        -11    1    4    4    0    0  0.12934985881E+02 -0.18155688872E+02  0.64345064172E+02  0.68097211260E+02  0.00000000000E+00 0.  1.
         11    1    4    4    0    0 -0.43996134559E+02  0.12062693308E+02 -0.78288099563E+01  0.46286701020E+02  0.00000000000E+00 0. -1.
        -11    1    3    3    0    0  0.19459532367E+01  0.43953297355E+02  0.66215407518E+02  0.79499429401E+02  0.00000000000E+00 0. -1.
         11    1    3    3    0    0  0.24106743745E+02  0.25023347351E+01 -0.23733061323E+02  0.33921305589E+02  0.00000000000E+00 0.  1.
          1    1    1    2  501    0  0.50084516964E+01 -0.40362636526E+02 -0.13838996933E+03  0.14424288761E+03  0.00000000000E+00 0. -1.
<scales pt_clust_5="13000.00000" pt_clust_6="13000.00000" pt_clust_7="13000.00000" pt_clust_8="13000.00000" pt_clust_9="13000.00000"></scales>
<clustering>
<clus scale="   90.679">  7  8 -1 -1</clus>
<clus scale="   94.274">  5  6 -1 -1</clus>
<clus scale="   40.672">  5  9 -1 -1</clus>
<clus scale="  105.164">  1  7  2 -1</clus>
<clus scale="  245.325">  2  5  1 -1</clus>
</clustering>
</event>
<event>
 9    1  0.3312826E-006  0.2906747E+03  0.7546771E-02  0.1108851E+00
          1   -1    0    0  502    0 -0.00000000000E+00  0.00000000000E+00  0.14577241488E+03  0.14577241488E+03  0.00000000000E+00 0. -1.
         21   -1    0    0  501  502  0.00000000000E+00 -0.00000000000E+00 -0.53451357282E+03  0.53451357282E+03  0.00000000000E+00 0. -1.
         23    2    1    2    0    0 -0.51354952326E+02 -0.14689109374E+03  0.19448924260E+02  0.17917627701E+03  0.86669216221E+02 0.  0.
         23    2    1    2    0    0  0.78531274159E+02 -0.34719999312E+01 -0.12064682509E+03  0.17548916907E+03  0.10030740876E+03 0.  0.
        -11    1    4    4    0    0 -0.21120233491E+02  0.41509602067E+01 -0.45869457187E+02  0.50668548785E+02  0.00000000000E+00 0.  1.
         11    1    4    4    0    0  0.99651507650E+02 -0.76229601379E+01 -0.74777367905E+02  0.12482062029E+03  0.00000000000E+00 0. -1.
        -13    1    3    3    0    0  0.15321567165E+02 -0.21856960175E+02  0.26082208674E+02  0.37319682981E+02  0.00000000000E+00 0.  1.
         13    1    3    3    0    0 -0.66676519491E+02 -0.12503413357E+03 -0.66332844141E+01  0.14185659403E+03  0.00000000000E+00 0. -1.
          1    1    1    2  501    0 -0.27176321832E+02  0.15036309367E+03 -0.28754325712E+03  0.32562054161E+03  0.00000000000E+00 0. -1.
<scales pt_clust_5="13000.00000" pt_clust_6="13000.00000" pt_clust_7="13000.00000" pt_clust_8="13000.00000" pt_clust_9="13000.00000"></scales>
<clustering>
<clus scale="   86.669">  7  8 -1 -1</clus>
<clus scale="  100.307">  5  6 -1 -1</clus>
<clus scale="  152.799">  5  9 -1 -1</clus>
<clus scale="  178.118">  1  7  2 -1</clus>
<clus scale="  290.675">  2  5  1 -1</clus>
</clustering>
</event>
<event>
 9    1  0.3312826E-006  0.2909940E+03  0.7546771E-02  0.1118768E+00
          2   -1    0    0  502    0 -0.00000000000E+00  0.00000000000E+00  0.28748282712E+03  0.28748282712E+03  0.00000000000E+00 0. -1.
         21   -1    0    0  501  502  0.00000000000E+00 -0.00000000000E+00 -0.18095997739E+03  0.18095997739E+03  0.00000000000E+00 0. -1.
         23    2    1    2    0    0  0.86076392182E+02 -0.61773246554E+02 -0.38364668548E+02  0.14337371166E+03  0.88651531970E+02 0.  0.
         23    2    1    2    0    0 -0.22140035106E+01 -0.13599593055E+02  0.18485487186E+03  0.20543901914E+03  0.88566450713E+02 0.  0.
        -11    1    4    4    0    0  0.11549580984E+02  0.32965514230E+02  0.42395079494E+02  0.54931418283E+02  0.00000000000E+00 0.  1.
         11    1    4    4    0    0 -0.13763584494E+02 -0.46565107284E+02  0.14245979236E+03  0.15050760085E+03  0.00000000000E+00 0. -1.
        -13    1    3    3    0    0  0.15992929212E+02 -0.61015688248E+02 -0.37295817337E+02  0.73278004803E+02  0.00000000000E+00 0.  1.
         13    1    3    3    0    0  0.70083462970E+02 -0.75755830623E+00 -0.10688512119E+01  0.70095706854E+02  0.00000000000E+00 0. -1.
          2    1    1    2  501    0 -0.83862388671E+02  0.75372839609E+02 -0.39967353576E+02  0.11963007371E+03  0.00000000000E+00 0. -1.
<scales pt_clust_5="13000.00000" pt_clust_6="13000.00000" pt_clust_7="13000.00000" pt_clust_8="13000.00000" pt_clust_9="13000.00000"></scales>
<clustering>
<clus scale="   88.566">  5  6 -1 -1</clus>
<clus scale="   88.652">  7  8 -1 -1</clus>
<clus scale="  112.756">  5  9 -1 -1</clus>
<clus scale="  138.146">  1  7  2 -1</clus>
<clus scale="  290.994">  2  5  1 -1</clus>
</clustering>
</event>
<event>
 9    1  0.3312826E-006  0.2945487E+03  0.7546771E-02  0.1108091E+00
         21   -1    0    0  501  502  0.00000000000E+00  0.00000000000E+00  0.18265986401E+03  0.18265986401E+03  0.00000000000E+00 0. -1.
          2   -1    0    0  502    0 -0.00000000000E+00 -0.00000000000E+00 -0.35907920498E+03  0.35907920498E+03  0.00000000000E+00 0. -1.
         23    2    1    2    0    0 -0.11815787913E+02 -0.14829171220E+03 -0.17503495995E+03  0.24718706585E+03  0.91291640164E+02 0.  0.
         23    2    1    2    0    0  0.34109353642E+02  0.28095606666E+02 -0.96672338917E+02  0.13955554582E+03  0.90428967365E+02 0.  0.
        -11    1    3    3    0    0  0.23725783380E+02 -0.11568017169E+03 -0.15523490341E+03  0.19504535410E+03  0.00000000000E+00 0. -1.
         11    1    3    3    0    0 -0.35541571293E+02 -0.32611540513E+02 -0.19800056541E+02  0.52141711744E+02  0.00000000000E+00 0.  1.
        -13    1    4    4    0    0  0.29818743508E+02 -0.29185186723E+02 -0.52688029807E+02  0.67208340802E+02  0.00000000000E+00 0. -1.
         13    1    4    4    0    0  0.42906101343E+01  0.57280793389E+02 -0.43984309110E+02  0.72347205022E+02  0.00000000000E+00 0.  1.
          2    1    1    2  501    0 -0.22293565729E+02  0.12019610554E+03  0.95287957899E+02  0.15499645731E+03  0.00000000000E+00 0. -1.
<scales pt_clust_5="13000.00000" pt_clust_6="13000.00000" pt_clust_7="13000.00000" pt_clust_8="13000.00000" pt_clust_9="13000.00000"></scales>
<clustering>
<clus scale="   90.429">  7  8 -1 -1</clus>
<clus scale="   91.292">  5  6 -1 -1</clus>
<clus scale="  122.246">  7  9 -1 -1</clus>
<clus scale="  174.540">  2  5  1 -1</clus>
<clus scale="  294.549">  1  5  2 -1</clus>
</clustering>
</event>
<event>
 9    1  0.3312826E-006  0.7932651E+03  0.7546771E-02  0.9763514E-01
          2   -1    0    0  502    0 -0.00000000000E+00  0.00000000000E+00  0.26504381307E+03  0.26504381307E+03  0.00000000000E+00 0. -1.
         21   -1    0    0  501  502  0.00000000000E+00 -0.00000000000E+00 -0.15394061680E+04  0.15394061680E+04  0.00000000000E+00 0. -1.
         23    2    1    2    0    0 -0.28953745362E+03  0.26549418893E+03 -0.17312094979E+03  0.44724617560E+03  0.12545587643E+03 0.  0.
         23    2    1    2    0    0  0.69564023918E+02  0.19170589858E+03 -0.61461415489E+03  0.65419149371E+03  0.92874356399E+02 0.  0.
        -11    1    4    4    0    0  0.18806117244E+02  0.16477285069E+03 -0.43146341847E+03  0.46223851403E+03  0.00000000000E+00 0. -1.
         11    1    4    4    0    0  0.50757906674E+02  0.26933047893E+02 -0.18315073642E+03  0.19195297969E+03  0.00000000000E+00 0.  1.
        -13    1    3    3    0    0 -0.42046659786E+02  0.10969258851E+03 -0.27974847888E+02  0.12076000036E+03  0.00000000000E+00 0.  1.
         13    1    3    3    0    0 -0.24749079383E+03  0.15580160042E+03 -0.14514610190E+03  0.32648617524E+03  0.00000000000E+00 0. -1.
          2    1    1    2  501    0  0.21997342970E+03 -0.45720008751E+03 -0.48662725021E+03  0.70301231172E+03  0.00000000000E+00 0. -1.
<scales pt_clust_5="13000.00000" pt_clust_6="13000.00000" pt_clust_7="13000.00000" pt_clust_8="13000.00000" pt_clust_9="13000.00000"></scales>
<clustering>
<clus scale="   92.874">  5  6 -1 -1</clus>
<clus scale="  125.456">  7  8 -1 -1</clus>
<clus scale="  412.381">  1  7  2 -1</clus>
<clus scale="  234.074">  5  9 -1 -1</clus>
<clus scale="  793.265">  2  5  1 -1</clus>
</clustering>
</event>
<event>
 9    1  0.3312826E-006  0.3966981E+03  0.7546771E-02  0.1051415E+00
         21   -1    0    0  501  502  0.00000000000E+00  0.00000000000E+00  0.24012657096E+03  0.24012657096E+03  0.00000000000E+00 0. -1.
          2   -1    0    0  502    0 -0.00000000000E+00 -0.00000000000E+00 -0.63179026023E+03  0.63179026023E+03  0.00000000000E+00 0. -1.
         23    2    1    2    0    0  0.10379763087E+03 -0.29792144618E+03 -0.33730934362E+03  0.47151235924E+03  0.94948277283E+02 0.  0.
         23    2    1    2    0    0 -0.96954847509E+02  0.15035466124E+03 -0.12487456246E+03  0.23670999838E+03  0.91821568104E+02 0.  0.
        -13    1    4    4    0    0 -0.40070847642E+02 -0.27248509688E+00 -0.23953723683E+02  0.46685414823E+02  0.00000000000E+00 0. -1.
         13    1    4    4    0    0 -0.56883999866E+02  0.15062714634E+03 -0.10092083878E+03  0.19002458356E+03  0.00000000000E+00 0.  1.
        -13    1    3    3    0    0  0.11633377698E+03 -0.21148731333E+03 -0.23324136797E+03  0.33565155608E+03  0.00000000000E+00 0. -1.
         13    1    3    3    0    0 -0.12536146111E+02 -0.86434132845E+02 -0.10406797565E+03  0.13586080316E+03  0.00000000000E+00 0.  1.
          2    1    1    2  501    0 -0.68427833588E+01  0.14756678493E+03  0.70520216812E+02  0.16369447357E+03  0.00000000000E+00 0. -1.
<scales pt_clust_5="13000.00000" pt_clust_6="13000.00000" pt_clust_7="13000.00000" pt_clust_8="13000.00000" pt_clust_9="13000.00000"></scales>
<clustering>
<clus scale="   91.822">  5  6 -1 -1</clus>
<clus scale="   94.948">  7  8 -1 -1</clus>
<clus scale="  147.725">  5  9 -1 -1</clus>
<clus scale="  329.464">  2  7  1 -1</clus>
<clus scale="  396.698">  1  5  2 -1</clus>
</clustering>
</event>
<event>
 9    1  0.3312826E-006  0.2903637E+03  0.7546771E-02  0.1098091E+00
          2   -1    0    0  502    0 -0.00000000000E+00  0.00000000000E+00  0.19084197137E+03  0.19084197137E+03  0.00000000000E+00 0. -1.
         21   -1    0    0  501  502  0.00000000000E+00 -0.00000000000E+00 -0.69392118784E+03  0.69392118784E+03  0.00000000000E+00 0. -1.
         23    2    1    2    0    0 -0.19281252290E+03 -0.90863966579E+02  0.66865618341E+02  0.24511622453E+03  0.10088618935E+03 0.  0.
         23    2    1    2    0    0  0.21212862042E+02  0.71221525860E+02 -0.22160013120E+03  0.25083296681E+03  0.91038825937E+02 0.  0.
        -13    1    3    3    0    0 -0.33714193729E+02 -0.47127636183E+01 -0.24969075738E+02  0.42217434111E+02  0.00000000000E+00 0.  1.
         13    1    3    3    0    0 -0.15909832917E+03 -0.86151202961E+02  0.91834694079E+02  0.20289879042E+03  0.00000000000E+00 0. -1.
        -13    1    4    4    0    0  0.48581822573E+02  0.61326447050E+02 -0.10673602771E+03  0.13233935999E+03  0.00000000000E+00 0.  1.
         13    1    4    4    0    0 -0.27368960531E+02  0.98950788104E+01 -0.11486410349E+03  0.11849360681E+03  0.00000000000E+00 0. -1.
          2    1    1    2  501    0  0.17159966085E+03  0.19642440719E+02 -0.34834470362E+03  0.38881396788E+03  0.00000000000E+00 0. -1.
<scales pt_clust_5="13000.00000" pt_clust_6="13000.00000" pt_clust_7="13000.00000" pt_clust_8="13000.00000" pt_clust_9="13000.00000"></scales>
<clustering>
<clus scale="   91.039">  7  8 -1 -1</clus>
<clus scale="  100.886">  5  6 -1 -1</clus>
<clus scale="  172.720">  7  9 -1 -1</clus>
<clus scale="  235.820">  1  5  2 -1</clus>
<clus scale="  290.364">  2  5  1 -1</clus>
</clustering>
</event>
<event>
 9    1  0.3312826E-006  0.5169603E+03  0.7546771E-02  0.1053943E+00
         21   -1    0    0  501  502  0.00000000000E+00  0.00000000000E+00  0.34774294547E+03  0.34774294547E+03  0.00000000000E+00 0. -1.
          2   -1    0    0  502    0 -0.00000000000E+00 -0.00000000000E+00 -0.33200768861E+03  0.33200768861E+03  0.00000000000E+00 0. -1.
         23    2    1    2    0    0 -0.18534792911E+02 -0.82273687351E+02 -0.70789843264E+02  0.15559940520E+03  0.10994305258E+03 0.  0.
         23    2    1    2    0    0 -0.13125500448E+03 -0.22836805208E+01 -0.15798499380E+03  0.22519953061E+03  0.92317273150E+02 0.  0.
        -11    1    3    3    0    0 -0.60321276870E+02 -0.23813868885E+02 -0.20962550936E+02  0.68155596514E+02  0.00000000000E+00 0. -1.
         11    1    3    3    0    0  0.41786483959E+02 -0.58459818466E+02 -0.49827292328E+02  0.87443808686E+02  0.00000000000E+00 0.  1.
        -13    1    4    4    0    0 -0.52590818393E+02  0.40149610677E+02 -0.40483363444E+02  0.77567313558E+02  0.00000000000E+00 0.  1.
         13    1    4    4    0    0 -0.78664186088E+02 -0.42433291198E+02 -0.11750163036E+03  0.14763221705E+03  0.00000000000E+00 0. -1.
          2    1    1    2  501    0  0.14978979739E+03  0.84557367872E+02  0.24451009392E+03  0.29895169826E+03  0.00000000000E+00 0. -1.
<scales pt_clust_5="13000.00000" pt_clust_6="13000.00000" pt_clust_7="13000.00000" pt_clust_8="13000.00000" pt_clust_9="13000.00000"></scales>
<clustering>
<clus scale="   92.317">  7  8 -1 -1</clus>
<clus scale="  109.943">  5  6 -1 -1</clus>
<clus scale="  138.564">  2  5  1 -1</clus>
<clus scale="  165.153">  7  9 -1 -1</clus>
<clus scale="  516.960">  1  5  2 -1</clus>
</clustering>
</event>
<event>
 9    1  0.3312826E-006  0.1628512E+03  0.7546771E-02  0.1209489E+00
         -3   -1    0    0    0  501 -0.00000000000E+00  0.00000000000E+00  0.43921032150E+02  0.43921032150E+02  0.00000000000E+00 0.  1.
         21   -1    0    0  501  502  0.00000000000E+00 -0.00000000000E+00 -0.39700464900E+03  0.39700464900E+03  0.00000000000E+00 0. -1.
         23    2    1    2    0    0  0.14051599576E+02 -0.20489908866E+02 -0.92856281498E+02  0.13394234720E+03  0.93279041292E+02 0.  0.
         23    2    1    2    0    0  0.24493855360E+02 -0.26969023238E+02 -0.10818978660E+03  0.14311290171E+03  0.86307563662E+02 0.  0.
        -11    1    4    4    0    0 -0.31686563734E+02 -0.64446942595E+01 -0.26158279252E+02  0.41591200738E+02  0.00000000000E+00 0.  1.
         11    1    4    4    0    0  0.56180419094E+02 -0.20524328978E+02 -0.82031507348E+02  0.10152170097E+03  0.00000000000E+00 0. -1.
        -13    1    3    3    0    0  0.46551197597E+02  0.13815416728E+02 -0.38899415175E+02  0.62217716432E+02  0.00000000000E+00 0.  1.
         13    1    3    3    0    0 -0.32499598021E+02 -0.34305325595E+02 -0.53956866323E+02  0.71724630770E+02  0.00000000000E+00 0. -1.
         -3    1    1    2    0  502 -0.38545454935E+02  0.47458932104E+02 -0.15203754875E+03  0.16387043224E+03  0.00000000000E+00 0.  1.
<scales pt_clust_5="13000.00000" pt_clust_6="13000.00000" pt_clust_7="13000.00000" pt_clust_8="13000.00000" pt_clust_9="13000.00000"></scales>
<clustering>
<clus scale="   86.308">  5  6 -1 -1</clus>
<clus scale="   61.140">  5  9 -1 -1</clus>
<clus scale="   93.279">  7  8 -1 -1</clus>
<clus scale="   96.531">  1  7  2 -1</clus>
<clus scale="  162.851">  2  5  1 -1</clus>
</clustering>
</event>
<event>
 9    1  0.3312826E-006  0.1873289E+03  0.7546771E-02  0.1191457E+00
         21   -1    0    0  501  502  0.00000000000E+00  0.00000000000E+00  0.59141986466E+02  0.59141986466E+02  0.00000000000E+00 0. -1.
          1   -1    0    0  502    0 -0.00000000000E+00 -0.00000000000E+00 -0.34908351505E+03  0.34908351505E+03  0.00000000000E+00 0. -1.
         23    2    1    2    0    0 -0.12680675968E+02  0.18903643748E+02 -0.13883057767E+03  0.16754595677E+03  0.90992148238E+02 0.  0.
         23    2    1    2    0    0 -0.21480554327E+02  0.37195763429E+02 -0.32506773373E+02  0.10510268806E+03  0.90249352858E+02 0.  0.
        -11    1    4    4    0    0 -0.68430621798E+01  0.51197972583E+02 -0.54577854802E+02  0.75145206976E+02  0.00000000000E+00 0. -1.
         11    1    4    4    0    0 -0.14637492147E+02 -0.14002209154E+02  0.22071081429E+02  0.29957481086E+02  0.00000000000E+00 0.  1.
        -13    1    3    3    0    0 -0.23649942323E+02  0.47546981686E+02 -0.12082404024E+03  0.13197910418E+03  0.00000000000E+00 0. -1.
         13    1    3    3    0    0  0.10969266355E+02 -0.28643337938E+02 -0.18006537431E+02  0.35566852586E+02  0.00000000000E+00 0.  1.
          1    1    1    2  501    0  0.34161230295E+02 -0.56099407177E+02 -0.11860417753E+03  0.13557685669E+03  0.00000000000E+00 0. -1.
<scales pt_clust_5="13000.00000" pt_clust_6="13000.00000" pt_clust_7="13000.00000" pt_clust_8="13000.00000" pt_clust_9="13000.00000"></scales>
<clustering>
<clus scale="   90.249">  5  6 -1 -1</clus>
<clus scale="   65.682">  5  9 -1 -1</clus>
<clus scale="   90.992">  7  8 -1 -1</clus>
<clus scale="   93.796">  2  7  1 -1</clus>
<clus scale="  187.329">  1  5  2 -1</clus>
</clustering>
</event>
<event>
 9    1  0.3312826E-006  0.1853002E+03  0.7546771E-02  0.1191533E+00
         21   -1    0    0  501  502  0.00000000000E+00  0.00000000000E+00  0.13040518651E+03  0.13040518651E+03  0.00000000000E+00 0.  1.
         -1   -1    0    0    0  501 -0.00000000000E+00 -0.00000000000E+00 -0.33092487297E+03  0.33092487297E+03  0.00000000000E+00 0.  1.
         23    2    1    2    0    0 -0.34331096749E+02  0.70662692799E+00 -0.25123135339E+03  0.26921596619E+03  0.90448438346E+02 0.  0.
         23    2    1    2    0    0  0.82485760440E+02  0.12363250911E+02 -0.27989430370E+01  0.11894935642E+03  0.84760631565E+02 0.  0.
        -11    1    4    4    0    0  0.92096851553E+02  0.30720715480E+02 -0.85036384292E+01  0.97457192101E+02  0.00000000000E+00 0. -1.
         11    1    4    4    0    0 -0.96110911131E+01 -0.18357464569E+02  0.57046953922E+01  0.21492164324E+02  0.00000000000E+00 0.  1.
        -13    1    3    3    0    0 -0.48668724146E+02  0.32943809148E+02 -0.12465529734E+03  0.13781466695E+03  0.00000000000E+00 0.  1.
         13    1    3    3    0    0  0.14337627397E+02 -0.32237182220E+02 -0.12657605606E+03  0.13140129925E+03  0.00000000000E+00 0. -1.
         -1    1    1    2    0  502 -0.48154663691E+02 -0.13069877839E+02  0.53510609962E+02  0.73164736865E+02  0.00000000000E+00 0.  1.
<scales pt_clust_5="13000.00000" pt_clust_6="13000.00000" pt_clust_7="13000.00000" pt_clust_8="13000.00000" pt_clust_9="13000.00000"></scales>
<clustering>
<clus scale="   84.761">  5  6 -1 -1</clus>
<clus scale="   49.897">  5  9 -1 -1</clus>
<clus scale="   90.448">  7  8 -1 -1</clus>
<clus scale="   96.747">  2  7  1 -1</clus>
<clus scale="  185.300">  1  5  2 -1</clus>
</clustering>
</event>
<event>
 9    1  0.3312826E-006  0.3337898E+03  0.7546771E-02  0.1113614E+00
         21   -1    0    0  501  502  0.00000000000E+00  0.00000000000E+00  0.81849864331E+03  0.81849864331E+03  0.00000000000E+00 0. -1.
          4   -1    0    0  502    0 -0.00000000000E+00 -0.00000000000E+00 -0.58663904060E+02  0.58663904060E+02  0.00000000000E+00 0. -1.
         23    2    1    2    0    0  0.31370527813E+02 -0.37888427945E+02  0.16854599789E+03  0.19816475241E+03  0.91879664260E+02 0.  0.
         23    2    1    2    0    0  0.22562879539E+01 -0.12853564028E+03  0.22431772747E+03  0.27465207870E+03  0.92675885870E+02 0.  0.
        -11    1    4    4    0    0  0.46114049909E+02 -0.84013293850E+02  0.14147832248E+03  0.17088257628E+03  0.00000000000E+00 0.  1.
         11    1    4    4    0    0 -0.43857761955E+02 -0.44522346427E+02  0.82839404986E+02  0.10376950242E+03  0.00000000000E+00 0. -1.
        -13    1    3    3    0    0  0.50146866732E+02 -0.52452924655E+02  0.15416174073E+03  0.17038738173E+03  0.00000000000E+00 0.  1.
         13    1    3    3    0    0 -0.18776338919E+02  0.14564496710E+02  0.14384257158E+02  0.27777370675E+02  0.00000000000E+00 0. -1.
          4    1    1    2  501    0 -0.33626815766E+02  0.16642406822E+03  0.36697101389E+03  0.40434571626E+03  0.00000000000E+00 0. -1.
<scales pt_clust_5="13000.00000" pt_clust_6="13000.00000" pt_clust_7="13000.00000" pt_clust_8="13000.00000" pt_clust_9="13000.00000"></scales>
<clustering>
<clus scale="   91.880">  7  8 -1 -1</clus>
<clus scale="   92.676">  5  6 -1 -1</clus>
<clus scale="  104.219">  2  7  1 -1</clus>
<clus scale="  151.638">  5  9 -1 -1</clus>
<clus scale="  333.790">  1  5  2 -1</clus>
</clustering>
</event>
<event>
 9    1  0.3312826E-006  0.1480343E+03  0.7546771E-02  0.1215305E+00
         21   -1    0    0  501  502  0.00000000000E+00  0.00000000000E+00  0.10212285260E+03  0.10212285260E+03  0.00000000000E+00 0. -1.
         -4   -1    0    0    0  501 -0.00000000000E+00 -0.00000000000E+00 -0.16917873955E+03  0.16917873955E+03  0.00000000000E+00 0.  1.
         23    2    1    2    0    0  0.30742845601E+02  0.61064729015E+02 -0.42449696286E+02  0.12123623021E+03  0.90676474983E+02 0.  0.
         23    2    1    2    0    0 -0.35578655816E+02 -0.59816261851E+01  0.74947634467E+01  0.86127857049E+02  0.77847387107E+02 0.  0.
        -11    1    4    4    0    0  0.21753399413E+02  0.10698038020E+02 -0.58679676094E+01  0.24941761112E+02  0.00000000000E+00 0.  1.
         11    1    4    4    0    0 -0.57332055229E+02 -0.16679664205E+02  0.13362731056E+02  0.61186095937E+02  0.00000000000E+00 0. -1.
        -13    1    3    3    0    0  0.63066308118E+01  0.81475331943E+02 -0.30980937523E+02  0.87394632543E+02  0.00000000000E+00 0.  1.
         13    1    3    3    0    0  0.24436214789E+02 -0.20410602928E+02 -0.11468758762E+02  0.33841597667E+02  0.00000000000E+00 0. -1.
         -4    1    1    2    0  502  0.48358102151E+01 -0.55083102830E+02 -0.32100954110E+02  0.63937504898E+02  0.00000000000E+00 0.  1.
<scales pt_clust_5="13000.00000" pt_clust_6="13000.00000" pt_clust_7="13000.00000" pt_clust_8="13000.00000" pt_clust_9="13000.00000"></scales>
<clustering>
<clus scale="   77.847">  5  6 -1 -1</clus>
<clus scale="   55.295">  5  9 -1 -1</clus>
<clus scale="   90.676">  7  8 -1 -1</clus>
<clus scale="  113.562">  2  7  1 -1</clus>
<clus scale="  148.034">  1  5  2 -1</clus>
</clustering>
</event>
<event>
 9    1  0.3312826E-006  0.2124459E+03  0.7546771E-02  0.1169806E+00
         21   -1    0    0  501  502  0.00000000000E+00  0.00000000000E+00  0.24024291797E+02  0.24024291797E+02  0.00000000000E+00 0.  1.
         -1   -1    0    0    0  501 -0.00000000000E+00 -0.00000000000E+00 -0.10498443741E+04  0.10498443741E+04  0.00000000000E+00 0.  1.
         23    2    1    2    0    0  0.46929471317E+02  0.19214079145E+02 -0.37038387404E+03  0.38486222207E+03  0.91450312789E+02 0.  0.
         23    2    1    2    0    0  0.48468345303E+02  0.18096255730E+02 -0.42415366364E+03  0.43605502566E+03  0.86954011174E+02 0.  0.
        -11    1    3    3    0    0 -0.17730634480E+02 -0.15527470774E+02 -0.40039895686E+02  0.46461500129E+02  0.00000000000E+00 0. -1.
         11    1    3    3    0    0  0.64660105797E+02  0.34741549920E+02 -0.33034397835E+03  0.33840072194E+03  0.00000000000E+00 0.  1.
        -11    1    4    4    0    0  0.20891406483E+02  0.52791673276E+02 -0.22922953964E+03  0.23615586691E+03  0.00000000000E+00 0.  1.
         11    1    4    4    0    0  0.27576938819E+02 -0.34695417547E+02 -0.19492412400E+03  0.19989915875E+03  0.00000000000E+00 0. -1.
         -1    1    1    2    0  502 -0.95397816619E+02 -0.37310334875E+02 -0.23128254460E+03  0.25295141814E+03  0.00000000000E+00 0.  1.
<scales pt_clust_5="13000.00000" pt_clust_6="13000.00000" pt_clust_7="13000.00000" pt_clust_8="13000.00000" pt_clust_9="13000.00000"></scales>
<clustering>
<clus scale="   86.954">  7  8 -1 -1</clus>
<clus scale="   91.450">  5  6 -1 -1</clus>
<clus scale="  102.434">  7  9 -1 -1</clus>
<clus scale="  104.569">  2  5  1 -1</clus>
<clus scale="  212.446">  1  5  2 -1</clus>
</clustering>
</event>
<event>
 9    1  0.3312826E-006  0.4686750E+03  0.7546771E-02  0.1076220E+00
          1   -1    0    0  502    0 -0.00000000000E+00  0.00000000000E+00  0.47082969081E+03  0.47082969081E+03  0.00000000000E+00 0. -1.
         21   -1    0    0  501  502  0.00000000000E+00 -0.00000000000E+00 -0.17245812250E+03  0.17245812250E+03  0.00000000000E+00 0. -1.
         23    2    1    2    0    0 -0.38984667008E+02 -0.48977506935E+01  0.67013826862E+02  0.12061902380E+03  0.92272984608E+02 0.  0.
         23    2    1    2    0    0  0.20768672901E+03  0.12154324280E+03  0.17106285564E+03  0.30888845877E+03  0.90791200590E+02 0.  0.
        -13    1    4    4    0    0  0.14525338936E+03  0.56686451220E+02  0.62819907781E+02  0.16810187889E+03  0.00000000000E+00 0. -1.
         13    1    4    4    0    0  0.62433339656E+02  0.64856791579E+02  0.10824294786E+03  0.14078657989E+03  0.00000000000E+00 0.  1.
        -13    1    3    3    0    0 -0.19986599131E+02 -0.48647635484E+02  0.35122313593E+02  0.63242655662E+02  0.00000000000E+00 0. -1.
         13    1    3    3    0    0 -0.18998067877E+02  0.43749884791E+02  0.31891513269E+02  0.57376368139E+02  0.00000000000E+00 0.  1.
          1    1    1    2  501    0 -0.16870206201E+03 -0.11664549211E+03  0.60294885805E+02  0.21378033073E+03  0.00000000000E+00 0. -1.
<scales pt_clust_5="13000.00000" pt_clust_6="13000.00000" pt_clust_7="13000.00000" pt_clust_8="13000.00000" pt_clust_9="13000.00000"></scales>
<clustering>
<clus scale="   90.791">  5  6 -1 -1</clus>
<clus scale="   92.273">  7  8 -1 -1</clus>
<clus scale="  100.290">  1  7  2 -1</clus>
<clus scale="  217.869">  5  9 -1 -1</clus>
<clus scale="  468.675">  2  5  1 -1</clus>
</clustering>
</event>
<event>
 9    1  0.3312826E-006  0.2295049E+03  0.7546771E-02  0.1144044E+00
         21   -1    0    0  501  502  0.00000000000E+00  0.00000000000E+00  0.10143182717E+03  0.10143182717E+03  0.00000000000E+00 0. -1.
         -4   -1    0    0    0  501 -0.00000000000E+00 -0.00000000000E+00 -0.56457164101E+03  0.56457164101E+03  0.00000000000E+00 0.  1.
         23    2    1    2    0    0 -0.12219599549E+03 -0.20810513745E+02 -0.27889474677E+01  0.15161508833E+03  0.87260632500E+02 0.  0.
         23    2    1    2    0    0  0.59249006800E+02 -0.62023186922E+02 -0.26205226464E+03  0.29045517373E+03  0.91298948640E+02 0.  0.
        -13    1    3    3    0    0 -0.81778989232E+02  0.11041299048E+02  0.33062863903E+02  0.88898067099E+02  0.00000000000E+00 0. -1.
         13    1    3    3    0    0 -0.40417006257E+02 -0.31851812793E+02 -0.35851811371E+02  0.62717021227E+02  0.00000000000E+00 0.  1.
        -13    1    4    4    0    0 -0.79467711409E+00  0.20833792194E+02 -0.27135267105E+02  0.34219893772E+02  0.00000000000E+00 0.  1.
         13    1    4    4    0    0  0.60043683914E+02 -0.82856979116E+02 -0.23491699753E+03  0.25623527996E+03  0.00000000000E+00 0. -1.
         -4    1    1    2    0  502  0.62946988688E+02  0.82833700667E+02 -0.19829860174E+03  0.22393320612E+03  0.00000000000E+00 0.  1.
<scales pt_clust_5="13000.00000" pt_clust_6="13000.00000" pt_clust_7="13000.00000" pt_clust_8="13000.00000" pt_clust_9="13000.00000"></scales>
<clustering>
<clus scale="   87.261">  5  6 -1 -1</clus>
<clus scale="   91.299">  7  8 -1 -1</clus>
<clus scale="  104.037">  7  9 -1 -1</clus>
<clus scale="  151.590">  2  5  1 -1</clus>
<clus scale="  229.505">  1  5  2 -1</clus>
</clustering>
</event>
<event>
 9    1  0.3312826E-006  0.1714018E+03  0.7546771E-02  0.1190703E+00
         21   -1    0    0  501  502  0.00000000000E+00  0.00000000000E+00  0.83711056477E+03  0.83711056477E+03  0.00000000000E+00 0. -1.
          1   -1    0    0  502    0 -0.00000000000E+00 -0.00000000000E+00 -0.30039915276E+02  0.30039915276E+02  0.00000000000E+00 0. -1.
         23    2    1    2    0    0 -0.66667163260E+02  0.52365558289E+02  0.19352877974E+03  0.23011657780E+03  0.91178881538E+02 0.  0.
         23    2    1    2    0    0  0.12219516926E+02 -0.54597437146E+01  0.22444981463E+03  0.24136064185E+03  0.87738901015E+02 0.  0.
        -11    1    3    3    0    0  0.20771052809E+02  0.37351928281E+01  0.57533973901E+02  0.61282513437E+02  0.00000000000E+00 0.  1.
         11    1    3    3    0    0 -0.87438216069E+02  0.48630365461E+02  0.13599480584E+03  0.16883406436E+03  0.00000000000E+00 0. -1.
        -13    1    4    4    0    0  0.11189292557E+02  0.28107093922E+02  0.25410920032E+02  0.39508528871E+02  0.00000000000E+00 0.  1.
         13    1    4    4    0    0  0.10302243690E+01 -0.33566837637E+02  0.19903889460E+03  0.20185211298E+03  0.00000000000E+00 0. -1.
          1    1    1    2  501    0  0.54447646334E+02 -0.46905814574E+02  0.38909205512E+03  0.39567326039E+03  0.00000000000E+00 0. -1.
<scales pt_clust_5="13000.00000" pt_clust_6="13000.00000" pt_clust_7="13000.00000" pt_clust_8="13000.00000" pt_clust_9="13000.00000"></scales>
<clustering>
<clus scale="   87.739">  7  8 -1 -1</clus>
<clus scale="   71.866">  7  9 -1 -1</clus>
<clus scale="   91.179">  5  6 -1 -1</clus>
<clus scale="  124.500">  2  5  1 -1</clus>
<clus scale="  171.402">  1  5  2 -1</clus>
</clustering>
</event>
<event>
 9    1  0.3312826E-006  0.1920494E+03  0.7546771E-02  0.1177281E+00
          2   -1    0    0  502    0 -0.00000000000E+00  0.00000000000E+00  0.47694628938E+03  0.47694628938E+03  0.00000000000E+00 0. -1.
         21   -1    0    0  501  502  0.00000000000E+00 -0.00000000000E+00 -0.52960723677E+02  0.52960723677E+02  0.00000000000E+00 0.  1.
         23    2    1    2    0    0 -0.64628304255E+02 -0.41712426656E+02  0.21597317751E+03  0.24679551426E+03  0.91361196384E+02 0.  0.
         23    2    1    2    0    0  0.44082039773E+01  0.61189650150E+02  0.18690229556E+03  0.21639224578E+03  0.90163908520E+02 0.  0.
        -11    1    4    4    0    0 -0.13038897863E+02  0.32253979851E+02  0.17811337563E+03  0.18147921824E+03  0.00000000000E+00 0. -1.
         11    1    4    4    0    0  0.17447101840E+02  0.28935670300E+02  0.87889199253E+01  0.34913027537E+02  0.00000000000E+00 0.  1.
        -13    1    3    3    0    0 -0.14173345546E+02 -0.60415867098E+02  0.85370024063E+02  0.10554146924E+03  0.00000000000E+00 0. -1.
         13    1    3    3    0    0 -0.50454958709E+02  0.18703440441E+02  0.13060315345E+03  0.14125404502E+03  0.00000000000E+00 0.  1.
          2    1    1    2  501    0  0.60220100278E+02 -0.19477223494E+02  0.21110092627E+02  0.66719253018E+02  0.00000000000E+00 0. -1.
<scales pt_clust_5="13000.00000" pt_clust_6="13000.00000" pt_clust_7="13000.00000" pt_clust_8="13000.00000" pt_clust_9="13000.00000"></scales>
<clustering>
<clus scale="   90.164">  5  6 -1 -1</clus>
<clus scale="   63.292">  5  9 -1 -1</clus>
<clus scale="   91.361">  7  8 -1 -1</clus>
<clus scale="  119.430">  1  7  2 -1</clus>
<clus scale="  192.049">  2  5  1 -1</clus>
</clustering>
</event>
<event>
 9    1  0.3312826E-006  0.1284849E+03  0.7546771E-02  0.1241985E+00
         -2   -1    0    0    0  501 -0.00000000000E+00  0.00000000000E+00  0.30351683743E+03  0.30351683743E+03  0.00000000000E+00 0.  1.
         21   -1    0    0  501  502  0.00000000000E+00 -0.00000000000E+00 -0.43890123635E+02  0.43890123635E+02  0.00000000000E+00 0. -1.
         23    2    1    2    0    0  0.12059248238E+02 -0.37664303373E+02  0.89332128310E+02  0.13407944711E+03  0.91831605513E+02 0.  0.
         23    2    1    2    0    0  0.88396537405E+01  0.47383771981E+02  0.15374258820E+03  0.18495145383E+03  0.90812419437E+02 0.  0.
        -11    1    4    4    0    0 -0.17888451453E+02  0.64204797156E+02  0.12758328766E+03  0.14394355825E+03  0.00000000000E+00 0.  1.
         11    1    4    4    0    0  0.26728105194E+02 -0.16821025175E+02  0.26159300544E+02  0.41007895583E+02  0.00000000000E+00 0. -1.
        -11    1    3    3    0    0 -0.20434374492E+02 -0.16447577141E+01  0.82597979530E+02  0.85104025235E+02  0.00000000000E+00 0.  1.
         11    1    3    3    0    0  0.32493622730E+02 -0.36019545659E+02  0.67341487796E+01  0.48975421870E+02  0.00000000000E+00 0. -1.
         -2    1    1    2    0  502 -0.20898901979E+02 -0.97194686084E+01  0.16551997283E+02  0.28376060121E+02  0.00000000000E+00 0.  1.
<scales pt_clust_5="13000.00000" pt_clust_6="13000.00000" pt_clust_7="13000.00000" pt_clust_8="13000.00000" pt_clust_9="13000.00000"></scales>
<clustering>
<clus scale="   90.812">  5  6 -1 -1</clus>
<clus scale="   23.048">  5  9 -1 -1</clus>
<clus scale="   91.832">  7  8 -1 -1</clus>
<clus scale="   99.985">  1  7  2 -1</clus>
<clus scale="  128.485">  2  5  1 -1</clus>
</clustering>
</event>
<event>
 9    1  0.3312826E-006  0.3002442E+03  0.7546771E-02  0.1123573E+00
          3   -1    0    0  502    0 -0.00000000000E+00  0.00000000000E+00  0.20448568156E+03  0.20448568156E+03  0.00000000000E+00 0. -1.
         21   -1    0    0  501  502  0.00000000000E+00 -0.00000000000E+00 -0.26735684661E+03  0.26735684661E+03  0.00000000000E+00 0. -1.
         23    2    1    2    0    0 -0.12354359557E+02 -0.60090425839E+02 -0.12255641356E+03  0.16572345758E+03  0.93170276425E+02 0.  0.
         23    2    1    2    0    0  0.67709949366E+02 -0.41283889453E+02  0.12459212129E+03  0.17362795671E+03  0.91293339808E+02 0.  0.
        -13    1    3    3    0    0 -0.43499518433E+02 -0.50604846075E+02 -0.42029838943E+02  0.78864224537E+02  0.00000000000E+00 0. -1.
         13    1    3    3    0    0  0.31145158876E+02 -0.94855797639E+01 -0.80526574615E+02  0.86859233039E+02  0.00000000000E+00 0.  1.
        -13    1    4    4    0    0  0.34206213352E+01  0.26670508792E+02  0.21568275152E+02  0.34470381236E+02  0.00000000000E+00 0.  1.
         13    1    4    4    0    0  0.64289328031E+02 -0.67954398245E+02  0.10302384614E+03  0.13915757548E+03  0.00000000000E+00 0. -1.
          3    1    1    2  501    0 -0.55355589809E+02  0.10137431529E+03 -0.64906872783E+02  0.13249111388E+03  0.00000000000E+00 0. -1.
<scales pt_clust_5="13000.00000" pt_clust_6="13000.00000" pt_clust_7="13000.00000" pt_clust_8="13000.00000" pt_clust_9="13000.00000"></scales>
<clustering>
<clus scale="   91.293">  7  8 -1 -1</clus>
<clus scale="   93.170">  5  6 -1 -1</clus>
<clus scale="  111.554">  1  5  2 -1</clus>
<clus scale="  107.104">  7  9 -1 -1</clus>
<clus scale="  300.244">  2  5  1 -1</clus>
</clustering>
</event>
<event>
 9    1  0.3312826E-006  0.1893399E+03  0.7546771E-02  0.1191753E+00
         -1   -1    0    0    0  501 -0.00000000000E+00  0.00000000000E+00  0.10019681125E+03  0.10019681125E+03  0.00000000000E+00 0.  1.
         21   -1    0    0  501  502  0.00000000000E+00 -0.00000000000E+00 -0.29611140064E+03  0.29611140064E+03  0.00000000000E+00 0.  1.
         23    2    1    2    0    0  0.60376576357E-01 -0.20028396460E+02  0.35786820888E+02  0.97083982386E+02  0.87996947541E+02 0.  0.
         23    2    1    2    0    0 -0.56343446272E+02  0.43399406832E+02 -0.19825511473E+03  0.22970701764E+03  0.91663138633E+02 0.  0.
        -13    1    4    4    0    0 -0.27282855302E+02  0.65728694230E+02 -0.16703450801E+03  0.18156305324E+03  0.00000000000E+00 0.  1.
         13    1    4    4    0    0 -0.29060590970E+02 -0.22329287398E+02 -0.31220606723E+02  0.48143964392E+02  0.00000000000E+00 0. -1.
        -13    1    3    3    0    0 -0.36625523810E+02 -0.32842117840E+02  0.30461778161E+02  0.57861503846E+02  0.00000000000E+00 0.  1.
         13    1    3    3    0    0  0.36685900387E+02  0.12813721380E+02  0.53250427276E+01  0.39222478540E+02  0.00000000000E+00 0. -1.
         -1    1    1    2    0  502  0.56283069696E+02 -0.23371010372E+02 -0.33446295551E+02  0.69517211871E+02  0.00000000000E+00 0.  1.
<scales pt_clust_5="13000.00000" pt_clust_6="13000.00000" pt_clust_7="13000.00000" pt_clust_8="13000.00000" pt_clust_9="13000.00000"></scales>
<clustering>
<clus scale="   87.997">  7  8 -1 -1</clus>
<clus scale="   90.247">  1  7  2 -1</clus>
<clus scale="   91.663">  5  6 -1 -1</clus>
<clus scale="   65.819">  5  9 -1 -1</clus>
<clus scale="  189.340">  2  5  1 -1</clus>
</clustering>
</event>
<event>
 9    1  0.3312826E-006  0.2061503E+03  0.7546771E-02  0.1177524E+00
         -1   -1    0    0    0  501 -0.00000000000E+00  0.00000000000E+00  0.12052077022E+03  0.12052077022E+03  0.00000000000E+00 0.  1.
         21   -1    0    0  501  502  0.00000000000E+00 -0.00000000000E+00 -0.48919685677E+03  0.48919685677E+03  0.00000000000E+00 0.  1.
         23    2    1    2    0    0  0.14612751663E+02 -0.17112642617E+02  0.74103484845E+02  0.12130006894E+03  0.93359548035E+02 0.  0.
         23    2    1    2    0    0  0.49866383174E+02  0.12543665149E+02 -0.11880594941E+03  0.15805814449E+03  0.90683646367E+02 0.  0.
        -11    1    3    3    0    0  0.33573949941E+02  0.28444712674E+02  0.20831645204E+02  0.48685410912E+02  0.00000000000E+00 0.  1.
         11    1    3    3    0    0 -0.18961198278E+02 -0.45557355291E+02  0.53271839642E+02  0.72614658025E+02  0.00000000000E+00 0. -1.
        -13    1    4    4    0    0 -0.56791593178E+01  0.40697266856E+02 -0.57484207286E+02  0.70660841117E+02  0.00000000000E+00 0. -1.
         13    1    4    4    0    0  0.55545542492E+02 -0.28153601707E+02 -0.61321742123E+02  0.87397303372E+02  0.00000000000E+00 0.  1.
         -1    1    1    2    0  502 -0.64479134837E+02  0.45689774677E+01 -0.32397362199E+03  0.33035941356E+03  0.00000000000E+00 0.  1.
<scales pt_clust_5="13000.00000" pt_clust_6="13000.00000" pt_clust_7="13000.00000" pt_clust_8="13000.00000" pt_clust_9="13000.00000"></scales>
<clustering>
<clus scale="   90.684">  7  8 -1 -1</clus>
<clus scale="   64.641">  7  9 -1 -1</clus>
<clus scale="   93.360">  5  6 -1 -1</clus>
<clus scale="   96.033">  1  5  2 -1</clus>
<clus scale="  206.150">  2  5  1 -1</clus>
</clustering>
</event>
<event>
 9    1  0.3312826E-006  0.2996287E+03  0.7546771E-02  0.1121020E+00
          1   -1    0    0  502    0 -0.00000000000E+00  0.00000000000E+00  0.45586929459E+03  0.45586929459E+03  0.00000000000E+00 0. -1.
         21   -1    0    0  501  502  0.00000000000E+00 -0.00000000000E+00 -0.10038502906E+03  0.10038502906E+03  0.00000000000E+00 0. -1.
         23    2    1    2    0    0 -0.73327304316E+02  0.21570903115E+02  0.54117484405E+02  0.13128458902E+03  0.92004042179E+02 0.  0.
         23    2    1    2    0    0  0.10159466661E+02  0.11204486817E+03  0.19211041052E+03  0.24117554383E+03  0.92746783601E+02 0.  0.
        -13    1    3    3    0    0 -0.16299824163E+02 -0.33675699030E+02  0.31001413907E+02  0.48588317908E+02  0.00000000000E+00 0.  1.
         13    1    3    3    0    0 -0.57027480153E+02  0.55246602145E+02  0.23116070498E+02  0.82696271116E+02  0.00000000000E+00 0. -1.
        -13    1    4    4    0    0 -0.25348722958E+02  0.22481837135E+02  0.10830699534E+03  0.11348302074E+03  0.00000000000E+00 0. -1.
         13    1    4    4    0    0  0.35508189619E+02  0.89563031040E+02  0.83803415171E+02  0.12769252309E+03  0.00000000000E+00 0.  1.
          1    1    1    2  501    0  0.63167837655E+02 -0.13361577129E+03  0.10925637061E+03  0.18379419080E+03  0.00000000000E+00 0. -1.
<scales pt_clust_5="13000.00000" pt_clust_6="13000.00000" pt_clust_7="13000.00000" pt_clust_8="13000.00000" pt_clust_9="13000.00000"></scales>
<clustering>
<clus scale="   92.004">  5  6 -1 -1</clus>
<clus scale="   92.747">  7  8 -1 -1</clus>
<clus scale="  119.612">  1  5  2 -1</clus>
<clus scale="  129.348">  7  9 -1 -1</clus>
<clus scale="  299.629">  2  5  1 -1</clus>
</clustering>
</event>
<event>
 9    1  0.3312826E-006  0.2530965E+03  0.7546771E-02  0.1151016E+00
         21   -1    0    0  501  502  0.00000000000E+00  0.00000000000E+00  0.40499314422E+03  0.40499314422E+03  0.00000000000E+00 0.  1.
         -3   -1    0    0    0  501 -0.00000000000E+00 -0.00000000000E+00 -0.86688682033E+02  0.86688682033E+02  0.00000000000E+00 0.  1.
         23    2    1    2    0    0  0.20682338408E+02  0.14116108710E+02  0.17845311071E+03  0.20251705887E+03  0.92415489855E+02 0.  0.
         23    2    1    2    0    0  0.44593085688E+02  0.25888338201E+02 -0.24007304680E+02  0.10830322929E+03  0.92165554575E+02 0.  0.
        -11    1    4    4    0    0 -0.15858583120E+01 -0.21219870977E+02 -0.35454669511E+02  0.41350108355E+02  0.00000000000E+00 0. -1.
         11    1    4    4    0    0  0.46178944000E+02  0.47108209178E+02  0.11447364831E+02  0.66953120932E+02  0.00000000000E+00 0.  1.
        -13    1    3    3    0    0  0.45218135275E+02 -0.21774790630E+02  0.11630472850E+03  0.12667127194E+03  0.00000000000E+00 0.  1.
         13    1    3    3    0    0 -0.24535796867E+02  0.35890899340E+02  0.62148382206E+02  0.75845786924E+02  0.00000000000E+00 0. -1.
         -3    1    1    2    0  502 -0.65275424096E+02 -0.40004446912E+02  0.16385865616E+03  0.18086153810E+03  0.00000000000E+00 0.  1.
<scales pt_clust_5="13000.00000" pt_clust_6="13000.00000" pt_clust_7="13000.00000" pt_clust_8="13000.00000" pt_clust_9="13000.00000"></scales>
<clustering>
<clus scale="   92.166">  5  6 -1 -1</clus>
<clus scale="   76.559">  5  9 -1 -1</clus>
<clus scale="   92.415">  7  8 -1 -1</clus>
<clus scale="   95.748">  2  7  1 -1</clus>
<clus scale="  253.097">  1  5  2 -1</clus>
</clustering>
</event>
<event>
 9    1  0.3312826E-006  0.4151585E+03  0.7546771E-02  0.1070998E+00
          3   -1    0    0  502    0 -0.00000000000E+00  0.00000000000E+00  0.26918184822E+03  0.26918184822E+03  0.00000000000E+00 0. -1.
         21   -1    0    0  501  502  0.00000000000E+00 -0.00000000000E+00 -0.33453966570E+03  0.33453966570E+03  0.00000000000E+00 0. -1.
         23    2    1    2    0    0 -0.12271216605E+03  0.66164823338E+02  0.48390160241E+02  0.17326221682E+03  0.90786169800E+02 0.  0.
         23    2    1    2    0    0 -0.67900790931E+02 -0.72327316641E+02  0.80430998920E+02  0.15828885296E+03  0.93511802687E+02 0.  0.
        -11    1    3    3    0    0 -0.57415074062E+02 -0.11881044694E+02  0.40374501517E+02  0.71188133318E+02  0.00000000000E+00 0. -1.
         11    1    3    3    0    0 -0.65297091984E+02  0.78045868032E+02  0.80156587240E+01  0.10207408350E+03  0.00000000000E+00 0.  1.
        -13    1    4    4    0    0 -0.22946109215E+02 -0.47391791563E+02  0.91624899360E+02  0.10567699853E+03  0.00000000000E+00 0. -1.
         13    1    4    4    0    0 -0.44954681716E+02 -0.24935525078E+02 -0.11193900441E+02  0.52611854427E+02  0.00000000000E+00 0.  1.
          3    1    1    2  501    0  0.19061295698E+03  0.61624933037E+01 -0.19417897664E+03  0.27217044413E+03  0.00000000000E+00 0. -1.
<scales pt_clust_5="13000.00000" pt_clust_6="13000.00000" pt_clust_7="13000.00000" pt_clust_8="13000.00000" pt_clust_9="13000.00000"></scales>
<clustering>
<clus scale="   90.786">  5  6 -1 -1</clus>
<clus scale="   93.512">  7  8 -1 -1</clus>
<clus scale="  166.368">  1  5  2 -1</clus>
<clus scale="  161.959">  7  9 -1 -1</clus>
<clus scale="  415.159">  2  5  1 -1</clus>
</clustering>
</event>
<event>
 9    1  0.3312826E-006  0.2954611E+03  0.7546771E-02  0.1105096E+00
         -3   -1    0    0    0  501 -0.00000000000E+00  0.00000000000E+00  0.77538995331E+02  0.77538995331E+02  0.00000000000E+00 0.  1.
         21   -1    0    0  501  502  0.00000000000E+00 -0.00000000000E+00 -0.95194747815E+03  0.95194747815E+03  0.00000000000E+00 0.  1.
         23    2    1    2    0    0  0.67010152812E+02 -0.14858357660E+03 -0.59206731599E+03  0.62081322388E+03  0.91092878253E+02 0.  0.
         23    2    1    2    0    0 -0.42676404417E+02 -0.23182303433E+02 -0.43561379258E+02  0.11352678459E+03  0.92908785215E+02 0.  0.
        -11    1    4    4    0    0  0.72019674765E+01  0.27199293777E+02  0.36172949692E+01  0.28368199456E+02  0.00000000000E+00 0.  1.
         11    1    4    4    0    0 -0.49878371893E+02 -0.50381597210E+02 -0.47178674227E+02  0.85158585133E+02  0.00000000000E+00 0. -1.
        -11    1    3    3    0    0  0.90028566676E+02 -0.11810349961E+03 -0.47481780441E+03  0.49749927318E+03  0.00000000000E+00 0.  1.
         11    1    3    3    0    0 -0.23018413863E+02 -0.30480076992E+02 -0.11724951158E+03  0.12331395070E+03  0.00000000000E+00 0. -1.
         -3    1    1    2    0  502 -0.24333748396E+02  0.17176588004E+03 -0.23877978757E+03  0.29514646501E+03  0.00000000000E+00 0.  1.
<scales pt_clust_5="13000.00000" pt_clust_6="13000.00000" pt_clust_7="13000.00000" pt_clust_8="13000.00000" pt_clust_9="13000.00000"></scales>
<clustering>
<clus scale="   91.093">  7  8 -1 -1</clus>
<clus scale="   92.909">  5  6 -1 -1</clus>
<clus scale="  173.481">  5  9 -1 -1</clus>
<clus scale="  186.723">  1  7  2 -1</clus>
<clus scale="  295.461">  2  5  1 -1</clus>
</clustering>
</event>
<event>
 9    1  0.3312826E-006  0.2200896E+03  0.7546771E-02  0.1162057E+00
         -4   -1    0    0    0  501 -0.00000000000E+00  0.00000000000E+00  0.33529363536E+02  0.33529363536E+02  0.00000000000E+00 0.  1.
         21   -1    0    0  501  502  0.00000000000E+00 -0.00000000000E+00 -0.83883767748E+03  0.83883767748E+03  0.00000000000E+00 0. -1.
         23    2    1    2    0    0  0.58155673947E+02  0.30353991580E+02 -0.22037016600E+03  0.24739337740E+03  0.91307315706E+02 0.  0.
         23    2    1    2    0    0 -0.93517136440E+01 -0.89762978025E+02 -0.46445433146E+03  0.48204849352E+03  0.92239239609E+02 0.  0.
        -13    1    4    4    0    0 -0.32868086066E+02 -0.93275410021E+02 -0.42155695106E+03  0.43300216648E+03  0.00000000000E+00 0. -1.
         13    1    4    4    0    0  0.23516372422E+02  0.35124319959E+01 -0.42897380399E+02  0.49046327034E+02  0.00000000000E+00 0.  1.
        -13    1    3    3    0    0  0.59629360613E+02  0.57287853377E+02 -0.13975860836E+03  0.16238850761E+03  0.00000000000E+00 0.  1.
         13    1    3    3    0    0 -0.14736866657E+01 -0.26933861797E+02 -0.80611557633E+02  0.85004869788E+02  0.00000000000E+00 0. -1.
         -4    1    1    2    0  502 -0.48803960303E+02  0.59408986445E+02 -0.12048381649E+03  0.14292517010E+03  0.00000000000E+00 0.  1.
<scales pt_clust_5="13000.00000" pt_clust_6="13000.00000" pt_clust_7="13000.00000" pt_clust_8="13000.00000" pt_clust_9="13000.00000"></scales>
<clustering>
<clus scale="   91.307">  7  8 -1 -1</clus>
<clus scale="   92.239">  5  6 -1 -1</clus>
<clus scale="   76.885">  5  9 -1 -1</clus>
<clus scale="  112.430">  1  7  2 -1</clus>
<clus scale="  220.090">  2  5  1 -1</clus>
</clustering>
</event>
<event>
 9    1  0.3312826E-006  0.2244084E+03  0.7546771E-02  0.1149963E+00
         21   -1    0    0  501  502  0.00000000000E+00  0.00000000000E+00  0.10676321040E+03  0.10676321040E+03  0.00000000000E+00 0.  1.
          1   -1    0    0  502    0 -0.00000000000E+00 -0.00000000000E+00 -0.35137748838E+03  0.35137748838E+03  0.00000000000E+00 0. -1.
         23    2    1    2    0    0 -0.79181750199E+02  0.61037326118E+02 -0.17194843810E+03  0.22226051083E+03  0.99187522234E+02 0.  0.
         23    2    1    2    0    0  0.52563423631E+02  0.75189406147E+01 -0.11106540403E+03  0.15291619851E+03  0.90710483527E+02 0.  0.
        -11    1    3    3    0    0  0.20666016679E+02  0.17310436473E+02 -0.61168715181E+02  0.66845696744E+02  0.00000000000E+00 0. -1.
         11    1    3    3    0    0 -0.99847766878E+02  0.43726889646E+02 -0.11077972292E+03  0.15541481409E+03  0.00000000000E+00 0.  1.
        -13    1    4    4    0    0  0.49261704723E+02  0.30169782332E+02 -0.23423722026E+02  0.62334597711E+02  0.00000000000E+00 0.  1.
         13    1    4    4    0    0  0.33017189078E+01 -0.22650841718E+02 -0.87641682006E+02  0.90581600798E+02  0.00000000000E+00 0. -1.
          1    1    1    2  501    0  0.26618326568E+02 -0.68556266733E+02  0.38399564150E+02  0.82963989445E+02  0.00000000000E+00 0. -1.
<scales pt_clust_5="13000.00000" pt_clust_6="13000.00000" pt_clust_7="13000.00000" pt_clust_8="13000.00000" pt_clust_9="13000.00000"></scales>
<clustering>
<clus scale="   90.710">  7  8 -1 -1</clus>
<clus scale="   73.543">  7  9 -1 -1</clus>
<clus scale="   99.188">  5  6 -1 -1</clus>
<clus scale="  140.831">  2  5  1 -1</clus>
<clus scale="  224.408">  1  5  2 -1</clus>
</clustering>
</event>
<event>
 9    1  0.3312826E-006  0.1729453E+03  0.7546771E-02  0.1203459E+00
          3   -1    0    0  502    0 -0.00000000000E+00  0.00000000000E+00  0.14209250325E+03  0.14209250325E+03  0.00000000000E+00 0. -1.
         21   -1    0    0  501  502  0.00000000000E+00 -0.00000000000E+00 -0.28697674861E+03  0.28697674861E+03  0.00000000000E+00 0.  1.
         23    2    1    2    0    0  0.12223749348E+02 -0.45261160158E+01  0.95832102030E+02  0.13266673300E+03  0.90811697991E+02 0.  0.
         23    2    1    2    0    0 -0.56649225907E+02 -0.21094417391E+02 -0.20910291171E+03  0.23615765173E+03  0.91609494831E+02 0.  0.
        -11    1    3    3    0    0  0.51658538510E+02  0.15176352256E+01  0.58020132742E+02  0.77699701551E+02  0.00000000000E+00 0. -1.
         11    1    3    3    0    0 -0.39434789162E+02 -0.60437512415E+01  0.37811969288E+02  0.54967031453E+02  0.00000000000E+00 0.  1.
        -11    1    4    4    0    0  0.18815957365E+02 -0.10066058676E+02 -0.11269112136E+02  0.24132108842E+02  0.00000000000E+00 0. -1.
         11    1    4    4    0    0 -0.75465183272E+02 -0.11028358715E+02 -0.19783379957E+03  0.21202554289E+03  0.00000000000E+00 0.  1.
          3    1    1    2  501    0  0.44425476559E+02  0.25620533406E+02 -0.31613435683E+02  0.60244867127E+02  0.00000000000E+00 0. -1.
<scales pt_clust_5="13000.00000" pt_clust_6="13000.00000" pt_clust_7="13000.00000" pt_clust_8="13000.00000" pt_clust_9="13000.00000"></scales>
<clustering>
<clus scale="   90.812">  5  6 -1 -1</clus>
<clus scale="   91.609">  7  8 -1 -1</clus>
<clus scale="   51.284">  7  9 -1 -1</clus>
<clus scale="   91.742">  1  5  2 -1</clus>
<clus scale="  172.945">  2  5  1 -1</clus>
</clustering>
</event>
<event>
 9    1  0.3312826E-006  0.2744211E+03  0.7546771E-02  0.1125039E+00
          1   -1    0    0  502    0 -0.00000000000E+00  0.00000000000E+00  0.90190326217E+03  0.90190326217E+03  0.00000000000E+00 0. -1.
         21   -1    0    0  501  502  0.00000000000E+00 -0.00000000000E+00 -0.78331673100E+02  0.78331673100E+02  0.00000000000E+00 0. -1.
         23    2    1    2    0    0 -0.92186996559E+02 -0.51583379561E+02  0.34839952270E+02  0.14512742046E+03  0.93214046759E+02 0.  0.
         23    2    1    2    0    0  0.14353282010E+03  0.37208877467E+02  0.74828351493E+03  0.76818165682E+03  0.90491260044E+02 0.  0.
        -13    1    3    3    0    0 -0.34691843354E+02  0.14276410077E+02  0.43303366643E+02  0.57293293173E+02  0.00000000000E+00 0.  1.
         13    1    3    3    0    0 -0.57495153206E+02 -0.65859789637E+02 -0.84634143729E+01  0.87834127286E+02  0.00000000000E+00 0. -1.
        -13    1    4    4    0    0  0.84677000166E+02  0.66254606907E+02  0.49395557420E+03  0.50552148973E+03  0.00000000000E+00 0. -1.
         13    1    4    4    0    0  0.58855819934E+02 -0.29045729440E+02  0.25432794073E+03  0.26266016709E+03  0.00000000000E+00 0.  1.
          1    1    1    2  501    0 -0.51345823541E+02  0.14374502093E+02  0.40448121867E+02  0.66925857993E+02  0.00000000000E+00 0. -1.
<scales pt_clust_5="13000.00000" pt_clust_6="13000.00000" pt_clust_7="13000.00000" pt_clust_8="13000.00000" pt_clust_9="13000.00000"></scales>
<clustering>
<clus scale="   90.491">  7  8 -1 -1</clus>
<clus scale="   53.320">  7  9 -1 -1</clus>
<clus scale="   93.214">  5  6 -1 -1</clus>
<clus scale="  140.884">  1  5  2 -1</clus>
<clus scale="  274.421">  2  5  1 -1</clus>
</clustering>
</event>
<event>
 9    1  0.3312826E-006  0.1924161E+03  0.7546771E-02  0.1180172E+00
         -3   -1    0    0    0  501 -0.00000000000E+00  0.00000000000E+00  0.30725496063E+02  0.30725496063E+02  0.00000000000E+00 0.  1.
         21   -1    0    0  501  502  0.00000000000E+00 -0.00000000000E+00 -0.86320845603E+03  0.86320845603E+03  0.00000000000E+00 0. -1.
         23    2    1    2    0    0 -0.66764240457E+02 -0.35905780381E+02 -0.16303362719E+03  0.19738076081E+03  0.81440237426E+02 0.  0.
         23    2    1    2    0    0  0.95278248378E+02 -0.11081125404E+02 -0.53594436033E+03  0.55217730815E+03  0.91992860147E+02 0.  0.
        -11    1    4    4    0    0  0.95297666935E+01  0.27384519701E+02 -0.55399172365E+02  0.62528366932E+02  0.00000000000E+00 0.  1.
         11    1    4    4    0    0  0.85748481684E+02 -0.38465645105E+02 -0.48054518796E+03  0.48964894122E+03  0.00000000000E+00 0. -1.
        -13    1    3    3    0    0 -0.75262440117E+02 -0.15936159661E+01 -0.10078839377E+03  0.12579854857E+03  0.00000000000E+00 0.  1.
         13    1    3    3    0    0  0.84981996607E+01 -0.34312164414E+02 -0.62245233421E+02  0.71582212231E+02  0.00000000000E+00 0. -1.
         -3    1    1    2    0  502 -0.28514007921E+02  0.46986905784E+02 -0.13350497244E+03  0.14437588313E+03  0.00000000000E+00 0.  1.
<scales pt_clust_5="13000.00000" pt_clust_6="13000.00000" pt_clust_7="13000.00000" pt_clust_8="13000.00000" pt_clust_9="13000.00000"></scales>
<clustering>
<clus scale="   81.440">  7  8 -1 -1</clus>
<clus scale="   91.993">  5  6 -1 -1</clus>
<clus scale="   54.962">  5  9 -1 -1</clus>
<clus scale="  111.262">  1  7  2 -1</clus>
<clus scale="  192.416">  2  5  1 -1</clus>
</clustering>
</event>
<event>
 9    1  0.3312826E-006  0.4204503E+03  0.7546771E-02  0.1083191E+00
         21   -1    0    0  501  502  0.00000000000E+00  0.00000000000E+00  0.72063087159E+02  0.72063087159E+02  0.00000000000E+00 0.  1.
         -1   -1    0    0    0  501 -0.00000000000E+00 -0.00000000000E+00 -0.10397932985E+04  0.10397932985E+04  0.00000000000E+00 0.  1.
         23    2    1    2    0    0  0.62321640313E+02  0.24135539745E+02 -0.12416649940E+03  0.16931822589E+03  0.93727428833E+02 0.  0.
         23    2    1    2    0    0 -0.59041890110E+02 -0.19960135732E+03 -0.60361519788E+03  0.64526000837E+03  0.93180065795E+02 0.  0.
        -11    1    4    4    0    0  0.12547191571E+02 -0.11428302308E+03 -0.26708581875E+03  0.29077977226E+03  0.00000000000E+00 0.  1.
         11    1    4    4    0    0 -0.71589081681E+02 -0.85318334236E+02 -0.33652937914E+03  0.35448023611E+03  0.00000000000E+00 0. -1.
        -13    1    3    3    0    0  0.84925616888E+01  0.34198317006E+02 -0.10587146620E+03  0.11158143146E+03  0.00000000000E+00 0.  1.
         13    1    3    3    0    0  0.53829078624E+02 -0.10062777260E+02 -0.18295033194E+02  0.57736794432E+02  0.00000000000E+00 0. -1.
         -1    1    1    2    0  502 -0.32797502028E+01  0.17546581757E+03 -0.23994851407E+03  0.29727815141E+03  0.00000000000E+00 0.  1.
<scales pt_clust_5="13000.00000" pt_clust_6="13000.00000" pt_clust_7="13000.00000" pt_clust_8="13000.00000" pt_clust_9="13000.00000"></scales>
<clustering>
<clus scale="   93.180">  5  6 -1 -1</clus>
<clus scale="   93.727">  7  8 -1 -1</clus>
<clus scale="  115.115">  2  7  1 -1</clus>
<clus scale="  183.379">  5  9 -1 -1</clus>
<clus scale="  420.450">  1  5  2 -1</clus>
</clustering>
</event>
<event>
 9    1  0.3312826E-006  0.1577159E+03  0.7546771E-02  0.1203235E+00
         -1   -1    0    0    0  501 -0.00000000000E+00  0.00000000000E+00  0.19726898970E+03  0.19726898970E+03  0.00000000000E+00 0.  1.
         21   -1    0    0  501  502  0.00000000000E+00 -0.00000000000E+00 -0.12229242965E+03  0.12229242965E+03  0.00000000000E+00 0.  1.
         23    2    1    2    0    0 -0.68868121996E+02 -0.41847597071E+02  0.10306263203E+03  0.15936426354E+03  0.91000125090E+02 0.  0.
         23    2    1    2    0    0  0.14936876542E+02  0.59416939780E+01 -0.38488181036E+01  0.91021599516E+02  0.89508123483E+02 0.  0.
        -11    1    3    3    0    0 -0.89771417256E+02 -0.28693642930E+02  0.93850981556E+02  0.13300465872E+03  0.00000000000E+00 0.  1.
         11    1    3    3    0    0  0.20903295260E+02 -0.13153954141E+02  0.92116504693E+01  0.26359604827E+02  0.00000000000E+00 0. -1.
        -13    1    4    4    0    0 -0.63656044887E+01 -0.29996374456E+02 -0.29043343709E+02  0.42235284003E+02  0.00000000000E+00 0.  1.
         13    1    4    4    0    0  0.21302481031E+02  0.35938068434E+02  0.25194525605E+02  0.48786315513E+02  0.00000000000E+00 0. -1.
         -1    1    1    2    0  502  0.53931245454E+02  0.35905903093E+02 -0.24237253872E+02  0.69175556293E+02  0.00000000000E+00 0.  1.
<scales pt_clust_5="13000.00000" pt_clust_6="13000.00000" pt_clust_7="13000.00000" pt_clust_8="13000.00000" pt_clust_9="13000.00000"></scales>
<clustering>
<clus scale="   89.508">  7  8 -1 -1</clus>
<clus scale="   64.791">  7  9 -1 -1</clus>
<clus scale="   91.000">  5  6 -1 -1</clus>
<clus scale="  121.553">  1  5  2 -1</clus>
<clus scale="  157.716">  2  5  1 -1</clus>
</clustering>
</event>
<event>
 9    1  0.3312826E-006  0.2873855E+03  0.7546771E-02  0.1118153E+00
          1   -1    0    0  502    0 -0.00000000000E+00  0.00000000000E+00  0.63221711830E+02  0.63221711830E+02  0.00000000000E+00 0. -1.
         21   -1    0    0  501  502  0.00000000000E+00 -0.00000000000E+00 -0.75941089756E+03  0.75941089756E+03  0.00000000000E+00 0. -1.
         23    2    1    2    0    0 -0.46166924971E+02  0.10938644584E+03 -0.17706766128E+03  0.22927135953E+03  0.84354135261E+02 0.  0.
         23    2    1    2    0    0  0.25407112044E+02 -0.14750785460E+03 -0.19247266077E+03  0.26384085325E+03  0.10080764945E+03 0.  0.
        -13    1    3    3    0    0  0.90510863759E+01  0.20381999146E+02 -0.91033679043E+02  0.93725550273E+02  0.00000000000E+00 0.  1.
         13    1    3    3    0    0 -0.55218011347E+02  0.89004446693E+02 -0.86033982239E+02  0.13554580926E+03  0.00000000000E+00 0. -1.
        -13    1    4    4    0    0  0.45066989026E+02 -0.86639030342E+02 -0.54679888353E+02  0.11192517710E+03  0.00000000000E+00 0. -1.
         13    1    4    4    0    0 -0.19659876982E+02 -0.60868824259E+02 -0.13779277242E+03  0.15191567615E+03  0.00000000000E+00 0.  1.
          1    1    1    2  501    0  0.20759812927E+02  0.38121408762E+02 -0.32664886368E+03  0.32952039661E+03  0.00000000000E+00 0. -1.
<scales pt_clust_5="13000.00000" pt_clust_6="13000.00000" pt_clust_7="13000.00000" pt_clust_8="13000.00000" pt_clust_9="13000.00000"></scales>
<clustering>
<clus scale="   84.354">  5  6 -1 -1</clus>
<clus scale="  100.808">  7  8 -1 -1</clus>
<clus scale="   43.408">  7  9 -1 -1</clus>
<clus scale="  145.645">  1  5  2 -1</clus>
<clus scale="  287.385">  2  5  1 -1</clus>
</clustering>
</event>
<event>
 9    1  0.3312826E-006  0.1150107E+04  0.7546771E-02  0.9618917E-01
         21   -1    0    0  501  502  0.00000000000E+00  0.00000000000E+00  0.12158230794E+04  0.12158230794E+04  0.00000000000E+00 0. -1.
          2   -1    0    0  502    0 -0.00000000000E+00 -0.00000000000E+00 -0.41249248253E+03  0.41249248253E+03  0.00000000000E+00 0. -1.
         23    2    1    2    0    0  0.17558485163E+03  0.95959471174E+02 -0.91907385297E+01  0.22014771051E+03  0.91336107513E+02 0.  0.
         23    2    1    2    0    0  0.19836955677E+03 -0.12432204025E+03 -0.20447685858E+03  0.32422520468E+03  0.92221184719E+02 0.  0.
        -11    1    3    3    0    0  0.11787126557E+03  0.83624965138E+02  0.32196037519E+02  0.14806537365E+03  0.00000000000E+00 0.  1.
         11    1    3    3    0    0  0.57713586063E+02  0.12334506036E+02 -0.41386776049E+02  0.72082336859E+02  0.00000000000E+00 0. -1.
        -13    1    4    4    0    0  0.12139171376E+03 -0.22412874060E+02 -0.11029134578E+03  0.16553690238E+03  0.00000000000E+00 0.  1.
         13    1    4    4    0    0  0.76977843006E+02 -0.10190916619E+03 -0.94185512793E+02  0.15868830230E+03  0.00000000000E+00 0. -1.
          2    1    1    2  501    0 -0.37395440840E+03  0.28362569073E+02  0.10169981939E+04  0.10839426467E+04  0.00000000000E+00 0. -1.
<scales pt_clust_5="13000.00000" pt_clust_6="13000.00000" pt_clust_7="13000.00000" pt_clust_8="13000.00000" pt_clust_9="13000.00000"></scales>
<clustering>
<clus scale="   91.336">  5  6 -1 -1</clus>
<clus scale="   92.221">  7  8 -1 -1</clus>
<clus scale="  219.956">  2  5  1 -1</clus>
<clus scale="  356.377">  7  9 -1 -1</clus>
<clus scale=" 1150.107">  1  5  2 -1</clus>
</clustering>
</event>
<event>
 9    1  0.3312826E-006  0.1741977E+03  0.7546771E-02  0.1198621E+00
          3   -1    0    0  502    0 -0.00000000000E+00  0.00000000000E+00  0.55910959288E+02  0.55910959288E+02  0.00000000000E+00 0. -1.
         21   -1    0    0  501  502  0.00000000000E+00 -0.00000000000E+00 -0.35690953326E+03  0.35690953326E+03  0.00000000000E+00 0.  1.
         23    2    1    2    0    0 -0.33825331558E+02  0.11570034722E+02 -0.63218194670E+02  0.11805898036E+03  0.93077193490E+02 0.  0.
         23    2    1    2    0    0  0.17119032975E+02  0.50511628292E+02 -0.18400985711E+03  0.21094920789E+03  0.88291873425E+02 0.  0.
        -11    1    3    3    0    0 -0.11618724598E+02 -0.36365385295E+02 -0.35145394028E+01  0.38337814181E+02  0.00000000000E+00 0. -1.
         11    1    3    3    0    0 -0.22206606960E+02  0.47935420017E+02 -0.59703655267E+02  0.79721166180E+02  0.00000000000E+00 0.  1.
        -13    1    4    4    0    0  0.40562189862E+02  0.51727109888E+02 -0.76299516143E+02  0.10071048261E+03  0.00000000000E+00 0.  1.
         13    1    4    4    0    0 -0.23443156887E+02 -0.12154815954E+01 -0.10771034096E+03  0.11023872528E+03  0.00000000000E+00 0. -1.
          3    1    1    2  501    0  0.16706298583E+02 -0.62081663014E+02 -0.53770522194E+02  0.83812304299E+02  0.00000000000E+00 0. -1.
<scales pt_clust_5="13000.00000" pt_clust_6="13000.00000" pt_clust_7="13000.00000" pt_clust_8="13000.00000" pt_clust_9="13000.00000"></scales>
<clustering>
<clus scale="   88.292">  7  8 -1 -1</clus>
<clus scale="   64.290">  7  9 -1 -1</clus>
<clus scale="   93.077">  5  6 -1 -1</clus>
<clus scale="   99.706">  1  5  2 -1</clus>
<clus scale="  174.198">  2  5  1 -1</clus>
</clustering>
</event>
<event>
 9    1  0.5361426E-006  0.4904062E+03  0.7546771E-02  0.1064069E+00
         21   -1    0    0  501  502  0.00000000000E+00  0.00000000000E+00  0.38473614731E+03  0.38473614731E+03  0.00000000000E+00 0.  1.
         -3   -1    0    0    0  501 -0.00000000000E+00 -0.00000000000E+00 -0.24385384087E+03  0.24385384087E+03  0.00000000000E+00 0.  1.
         23    2    1    2    0    0  0.50997083813E+02  0.63600684010E+02  0.28128547535E+02  0.12538859127E+03  0.91023810460E+02 0.  0.
         23    2    1    2    0    0  0.46849965907E+02 -0.16762863675E+02 -0.17008266083E+03  0.20027522294E+03  0.93306701286E+02 0.  0.
        -11    1    4    4    0    0  0.74600978978E+02 -0.20996683069E+02 -0.11965487091E+03  0.14256035527E+03  0.00000000000E+00 0.  1.
         11    1    4    4    0    0 -0.27751013071E+02  0.42338193936E+01 -0.50427789922E+02  0.57714867664E+02  0.00000000000E+00 0. -1.
        -13    1    3    3    0    0  0.17622249471E+02 -0.12943151131E+02  0.35358418199E+02  0.41572666202E+02  0.00000000000E+00 0. -1.
         13    1    3    3    0    0  0.33374834342E+02  0.76543835141E+02 -0.72298706645E+01  0.83815925070E+02  0.00000000000E+00 0.  1.
         -3    1    1    2    0  502 -0.97847049720E+02 -0.46837820335E+02  0.28283641973E+03  0.30292617397E+03  0.00000000000E+00 0.  1.
<scales pt_clust_5="13000.00000" pt_clust_6="13000.00000" pt_clust_7="13000.00000" pt_clust_8="13000.00000" pt_clust_9="13000.00000"></scales>
<clustering>
<clus scale="   91.024">  7  8 -1 -1</clus>
<clus scale="   93.307">  5  6 -1 -1</clus>
<clus scale="  108.480">  5  9 -1 -1</clus>
<clus scale="  122.193">  2  7  1 -1</clus>
<clus scale="  490.406">  1  5  2 -1</clus>
</clustering>
</event>
<event>
 9    1  0.3594005E-006  0.3829845E+03  0.7546771E-02  0.1086443E+00
         21   -1    0    0  501  502  0.00000000000E+00  0.00000000000E+00  0.93647352180E+02  0.93647352180E+02  0.00000000000E+00 0.  1.
         -2   -1    0    0    0  501 -0.00000000000E+00 -0.00000000000E+00 -0.97842228262E+03  0.97842228262E+03  0.00000000000E+00 0.  1.
         23    2    1    2    0    0 -0.81183261592E+02 -0.75494521366E+02 -0.53661025386E+03  0.55448313152E+03  0.84916628925E+02 0.  0.
         23    2    1    2    0    0  0.44195899512E+02 -0.39305364293E+02 -0.37775320888E+03  0.39339890348E+03  0.92558204616E+02 0.  0.
        -11    1    4    4    0    0  0.71103285710E+02 -0.35290597381E+02 -0.23409311447E+03  0.24718553709E+03  0.00000000000E+00 0.  1.
         11    1    4    4    0    0 -0.26907386198E+02 -0.40147669119E+01 -0.14366009441E+03  0.14621336639E+03  0.00000000000E+00 0. -1.
        -13    1    3    3    0    0 -0.98389939836E+02 -0.54872531436E+02 -0.42351450911E+03  0.43824207283E+03  0.00000000000E+00 0.  1.
         13    1    3    3    0    0  0.17206678244E+02 -0.20621989930E+02 -0.11309574475E+03  0.11624105869E+03  0.00000000000E+00 0. -1.
         -2    1    1    2    0  502  0.36987362080E+02  0.11479988566E+03  0.29588532305E+02  0.12418759980E+03  0.00000000000E+00 0.  1.
<scales pt_clust_5="13000.00000" pt_clust_6="13000.00000" pt_clust_7="13000.00000" pt_clust_8="13000.00000" pt_clust_9="13000.00000"></scales>
<clustering>
<clus scale="   84.917">  7  8 -1 -1</clus>
<clus scale="   92.558">  5  6 -1 -1</clus>
<clus scale="  120.611">  5  9 -1 -1</clus>
<clus scale="  139.646">  2  7  1 -1</clus>
<clus scale="  382.985">  1  5  2 -1</clus>
</clustering>
</event>
<event>
 9    1  0.3312826E-006  0.1465289E+03  0.7546771E-02  0.1218603E+00
         21   -1    0    0  501  502  0.00000000000E+00  0.00000000000E+00  0.19973046834E+03  0.19973046834E+03  0.00000000000E+00 0.  1.
          4   -1    0    0  502    0 -0.00000000000E+00 -0.00000000000E+00 -0.19341513780E+03  0.19341513780E+03  0.00000000000E+00 0. -1.
         23    2    1    2    0    0 -0.56866696446E+02  0.41366174963E+01 -0.14564192448E+03  0.18204909626E+03  0.93163139247E+02 0.  0.
         23    2    1    2    0    0  0.33942529245E+02  0.29057390020E+02  0.13656171009E+03  0.16791801546E+03  0.86896099139E+02 0.  0.
        -13    1    4    4    0    0 -0.11880741800E+01 -0.28469544467E+02  0.26835551750E+02  0.39141708192E+02  0.00000000000E+00 0. -1.
         13    1    4    4    0    0  0.35130603425E+02  0.57526934487E+02  0.10972615834E+03  0.12877630727E+03  0.00000000000E+00 0.  1.
        -13    1    3    3    0    0 -0.29350567825E+02 -0.43582913873E+02 -0.86656747008E+02  0.10134257750E+03  0.00000000000E+00 0.  1.
         13    1    3    3    0    0 -0.27516128621E+02  0.47719531369E+02 -0.58985177470E+02  0.80706518755E+02  0.00000000000E+00 0. -1.
          4    1    1    2  501    0  0.22924167201E+02 -0.33194007517E+02  0.15395544925E+02  0.43178494420E+02  0.00000000000E+00 0. -1.
<scales pt_clust_5="13000.00000" pt_clust_6="13000.00000" pt_clust_7="13000.00000" pt_clust_8="13000.00000" pt_clust_9="13000.00000"></scales>
<clustering>
<clus scale="   86.896">  5  6 -1 -1</clus>
<clus scale="   40.341">  5  9 -1 -1</clus>
<clus scale="   93.163">  7  8 -1 -1</clus>
<clus scale="  109.226">  2  7  1 -1</clus>
<clus scale="  146.529">  1  5  2 -1</clus>
</clustering>
</event>
<event>
 9    1  0.3312826E-006  0.2684234E+03  0.7546771E-02  0.1139668E+00
         21   -1    0    0  501  502  0.00000000000E+00  0.00000000000E+00  0.13108582269E+03  0.13108582269E+03  0.00000000000E+00 0.  1.
          1   -1    0    0  502    0 -0.00000000000E+00 -0.00000000000E+00 -0.28060205097E+03  0.28060205097E+03  0.00000000000E+00 0. -1.
         23    2    1    2    0    0  0.20162466110E+02  0.49012481106E+02 -0.85809504646E+02  0.13580807272E+03  0.90949508978E+02 0.  0.
         23    2    1    2    0    0  0.16986892121E+02  0.65780813747E+02  0.35824796426E+02  0.11946976660E+03  0.91509229762E+02 0.  0.
        -11    1    4    4    0    0 -0.11633543758E+02  0.57040294232E+02  0.58036501559E+02  0.82202007395E+02  0.00000000000E+00 0.  1.
         11    1    4    4    0    0  0.28620435879E+02  0.87405195148E+01 -0.22211705134E+02  0.37267759206E+02  0.00000000000E+00 0. -1.
        -11    1    3    3    0    0  0.10852645069E+02  0.73367808043E+02 -0.80009194286E+02  0.10909668342E+03  0.00000000000E+00 0.  1.
         11    1    3    3    0    0  0.93098210406E+01 -0.24355326937E+02 -0.58003103596E+01  0.26711389299E+02  0.00000000000E+00 0. -1.
          1    1    1    2  501    0 -0.37149358231E+02 -0.11479329485E+03 -0.99531520052E+02  0.15641003435E+03  0.00000000000E+00 0. -1.
<scales pt_clust_5="13000.00000" pt_clust_6="13000.00000" pt_clust_7="13000.00000" pt_clust_8="13000.00000" pt_clust_9="13000.00000"></scales>
<clustering>
<clus scale="   90.950">  7  8 -1 -1</clus>
<clus scale="   91.509">  5  6 -1 -1</clus>
<clus scale="  105.264">  2  7  1 -1</clus>
<clus scale="   80.889">  5  9 -1 -1</clus>
<clus scale="  268.423">  1  5  2 -1</clus>
</clustering>
</event>
<event>
 9    1  0.3312826E-006  0.2881932E+03  0.7546771E-02  0.1117697E+00
         -2   -1    0    0    0  501 -0.00000000000E+00  0.00000000000E+00  0.45016132632E+02  0.45016132632E+02  0.00000000000E+00 0.  1.
         21   -1    0    0  501  502  0.00000000000E+00 -0.00000000000E+00 -0.11057382956E+04  0.11057382956E+04  0.00000000000E+00 0. -1.
         23    2    1    2    0    0 -0.64548386836E+02  0.92167620304E+02 -0.49126040201E+03  0.51252091601E+03  0.93164061148E+02 0.  0.
         23    2    1    2    0    0  0.48092395561E+01  0.44158531556E+02 -0.86312210371E+02  0.13267730998E+03  0.90445377046E+02 0.  0.
        -11    1    4    4    0    0 -0.29760749285E+02  0.43213676646E+02 -0.82653233753E+02  0.97901384552E+02  0.00000000000E+00 0. -1.
         11    1    4    4    0    0  0.34569988841E+02  0.94485490934E+00 -0.36589766185E+01  0.34775925425E+02  0.00000000000E+00 0.  1.
        -13    1    3    3    0    0 -0.33050131998E+02 -0.12308659041E+02 -0.89297302700E+02  0.96009492146E+02  0.00000000000E+00 0.  1.
         13    1    3    3    0    0 -0.31498254838E+02  0.10447627934E+03 -0.40196309931E+03  0.41651142386E+03  0.00000000000E+00 0. -1.
         -2    1    1    2    0  502  0.59739147280E+02 -0.13632615186E+03 -0.48314955061E+03  0.50555620227E+03  0.00000000000E+00 0.  1.
<scales pt_clust_5="13000.00000" pt_clust_6="13000.00000" pt_clust_7="13000.00000" pt_clust_8="13000.00000" pt_clust_9="13000.00000"></scales>
<clustering>
<clus scale="   90.445">  5  6 -1 -1</clus>
<clus scale="   93.164">  7  8 -1 -1</clus>
<clus scale="  146.085">  1  7  2 -1</clus>
<clus scale="  113.126">  5  9 -1 -1</clus>
<clus scale="  288.193">  2  5  1 -1</clus>
</clustering>
</event>
<event>
 9    1  0.3312826E-006  0.1968057E+03  0.7546771E-02  0.1179675E+00
         21   -1    0    0  501  502  0.00000000000E+00  0.00000000000E+00  0.18976221500E+03  0.18976221500E+03  0.00000000000E+00 0. -1.
          2   -1    0    0  502    0 -0.00000000000E+00 -0.00000000000E+00 -0.46224641542E+03  0.46224641542E+03  0.00000000000E+00 0. -1.
         23    2    1    2    0    0 -0.23316498021E+02  0.52246685706E+02 -0.40258312320E+03  0.41608873297E+03  0.88222941310E+02 0.  0.
         23    2    1    2    0    0 -0.33918584473E+02  0.25597740238E+01  0.19793915858E+02  0.10010091037E+03  0.92040047455E+02 0.  0.
        -13    1    3    3    0    0  0.89398083559E+01  0.68170009803E+02 -0.28153543943E+03  0.28980903033E+03  0.00000000000E+00 0. -1.
         13    1    3    3    0    0 -0.32256306377E+02 -0.15923324097E+02 -0.12104768378E+03  0.12627970264E+03  0.00000000000E+00 0.  1.
        -13    1    4    4    0    0  0.12156504130E+01  0.41733218499E+02  0.22466894213E+02  0.47412030834E+02  0.00000000000E+00 0.  1.
         13    1    4    4    0    0 -0.35134234886E+02 -0.39173444475E+02 -0.26729783553E+01  0.52688879533E+02  0.00000000000E+00 0. -1.
          2    1    1    2  501    0  0.57235082495E+02 -0.54806459729E+02  0.11030500693E+03  0.13581898707E+03  0.00000000000E+00 0. -1.
<scales pt_clust_5="13000.00000" pt_clust_6="13000.00000" pt_clust_7="13000.00000" pt_clust_8="13000.00000" pt_clust_9="13000.00000"></scales>
<clustering>
<clus scale="   88.223">  5  6 -1 -1</clus>
<clus scale="   92.040">  7  8 -1 -1</clus>
<clus scale="   79.244">  7  9 -1 -1</clus>
<clus scale="  105.151">  2  5  1 -1</clus>
<clus scale="  196.806">  1  5  2 -1</clus>
</clustering>
</event>
<event>
 9    1  0.3312826E-006  0.2372508E+03  0.7546771E-02  0.1137615E+00
         21   -1    0    0  501  502  0.00000000000E+00  0.00000000000E+00  0.84922445868E+02  0.84922445868E+02  0.00000000000E+00 0. -1.
          2   -1    0    0  502    0 -0.00000000000E+00 -0.00000000000E+00 -0.10715683262E+04  0.10715683262E+04  0.00000000000E+00 0. -1.
         23    2    1    2    0    0 -0.38735122191E+02  0.12497818056E+03 -0.88329683096E+03  0.89770716137E+03  0.92438631941E+02 0.  0.
         23    2    1    2    0    0 -0.10683223751E+02 -0.61136423521E+02 -0.13471616695E+03  0.17217045391E+03  0.87420970091E+02 0.  0.
        -11    1    4    4    0    0  0.21640795841E+02  0.12442071987E+02 -0.19409215061E+02  0.31620354667E+02  0.00000000000E+00 0.  1.
         11    1    4    4    0    0 -0.32324019592E+02 -0.73578495508E+02 -0.11530695189E+03  0.14055009925E+03  0.00000000000E+00 0. -1.
        -13    1    3    3    0    0  0.24244399586E+02  0.65042849323E+01 -0.10737452534E+03  0.11026960290E+03  0.00000000000E+00 0.  1.
         13    1    3    3    0    0 -0.62979521777E+02  0.11847389562E+03 -0.77592230563E+03  0.78743755846E+03  0.00000000000E+00 0. -1.
          2    1    1    2  501    0  0.49418345942E+02 -0.63841757035E+02  0.31367117609E+02  0.86613156761E+02  0.00000000000E+00 0. -1.
<scales pt_clust_5="13000.00000" pt_clust_6="13000.00000" pt_clust_7="13000.00000" pt_clust_8="13000.00000" pt_clust_9="13000.00000"></scales>
<clustering>
<clus scale="   87.421">  5  6 -1 -1</clus>
<clus scale="   80.734">  5  9 -1 -1</clus>
<clus scale="   92.439">  7  8 -1 -1</clus>
<clus scale="  160.203">  2  7  1 -1</clus>
<clus scale="  237.251">  1  5  2 -1</clus>
</clustering>
</event>
<event>
 9    1  0.4290764E-006  0.5683003E+03  0.7546771E-02  0.1028874E+00
         21   -1    0    0  501  502  0.00000000000E+00  0.00000000000E+00  0.13508931751E+03  0.13508931751E+03  0.00000000000E+00 0.  1.
         -1   -1    0    0    0  501 -0.00000000000E+00 -0.00000000000E+00 -0.11452000200E+04  0.11452000200E+04  0.00000000000E+00 0.  1.
         23    2    1    2    0    0  0.47917042755E+02  0.18947354618E+03 -0.32475472087E+03  0.38996465980E+03  0.91708993444E+02 0.  0.
         23    2    1    2    0    0  0.19092460861E+02  0.71391949753E+02 -0.59540679594E+03  0.60636704614E+03  0.87808937133E+02 0.  0.
        -11    1    3    3    0    0  0.70085058660E+02  0.15790905445E+03 -0.29237925434E+03  0.33960685107E+03  0.00000000000E+00 0.  1.
         11    1    3    3    0    0 -0.22168015905E+02  0.31564491731E+02 -0.32375466533E+02  0.50357808736E+02  0.00000000000E+00 0. -1.
        -13    1    4    4    0    0  0.52308527796E+02  0.26581800225E+02 -0.32761563055E+03  0.33282844765E+03  0.00000000000E+00 0.  1.
         13    1    4    4    0    0 -0.33216066934E+02  0.44810149527E+02 -0.26779116539E+03  0.27353859849E+03  0.00000000000E+00 0. -1.
         -1    1    1    2    0  502 -0.67009503616E+02 -0.26086549593E+03 -0.89949185720E+02  0.28395763162E+03  0.00000000000E+00 0.  1.
<scales pt_clust_5="13000.00000" pt_clust_6="13000.00000" pt_clust_7="13000.00000" pt_clust_8="13000.00000" pt_clust_9="13000.00000"></scales>
<clustering>
<clus scale="   87.809">  7  8 -1 -1</clus>
<clus scale="   91.709">  5  6 -1 -1</clus>
<clus scale="  215.886">  2  5  1 -1</clus>
<clus scale="  222.958">  7  9 -1 -1</clus>
<clus scale="  568.300">  1  5  2 -1</clus>
</clustering>
</event>
<event>
 9    1  0.3312826E-006  0.1656492E+03  0.7546771E-02  0.1208277E+00
          1   -1    0    0  502    0 -0.00000000000E+00  0.00000000000E+00  0.63888067754E+02  0.63888067754E+02  0.00000000000E+00 0. -1.
         21   -1    0    0  501  502  0.00000000000E+00 -0.00000000000E+00 -0.43423662031E+03  0.43423662031E+03  0.00000000000E+00 0.  1.
         23    2    1    2    0    0 -0.32067973962E+01 -0.10086978745E+02 -0.18971543094E+01  0.94149312906E+02  0.93533219962E+02 0.  0.
         23    2    1    2    0    0  0.39010920588E+02  0.31362937553E+02 -0.33453004615E+03  0.35026076087E+03  0.90921741326E+02 0.  0.
        -13    1    3    3    0    0  0.16912558365E+02  0.14801389455E+02 -0.39085297137E+02  0.45086319572E+02  0.00000000000E+00 0.  1.
         13    1    3    3    0    0 -0.20119355761E+02 -0.24888368200E+02  0.37188142828E+02  0.49062993334E+02  0.00000000000E+00 0. -1.
        -13    1    4    4    0    0  0.12836223282E+02 -0.31357373219E+02 -0.81507671102E+02  0.88269779267E+02  0.00000000000E+00 0. -1.
         13    1    4    4    0    0  0.26174697306E+02  0.62720310772E+02 -0.25302237505E+03  0.26199098160E+03  0.00000000000E+00 0.  1.
          1    1    1    2  501    0 -0.35804123192E+02 -0.21275958808E+02 -0.33921352094E+02  0.53714614293E+02  0.00000000000E+00 0. -1.
<scales pt_clust_5="13000.00000" pt_clust_6="13000.00000" pt_clust_7="13000.00000" pt_clust_8="13000.00000" pt_clust_9="13000.00000"></scales>
<clustering>
<clus scale="   90.922">  7  8 -1 -1</clus>
<clus scale="   41.649">  7  9 -1 -1</clus>
<clus scale="   93.533">  5  6 -1 -1</clus>
<clus scale="   94.130">  1  5  2 -1</clus>
<clus scale="  165.649">  2  5  1 -1</clus>
</clustering>
</event>
<event>
 9    1  0.3312826E-006  0.1367592E+03  0.7546771E-02  0.1231275E+00
          1   -1    0    0  502    0 -0.00000000000E+00  0.00000000000E+00  0.38570500666E+03  0.38570500666E+03  0.00000000000E+00 0. -1.
         21   -1    0    0  501  502  0.00000000000E+00 -0.00000000000E+00 -0.37672556838E+02  0.37672556838E+02  0.00000000000E+00 0.  1.
         23    2    1    2    0    0  0.37469453817E+02  0.25678056860E+02  0.17026390883E+03  0.19909042099E+03  0.92649201325E+02 0.  0.
         23    2    1    2    0    0 -0.47208911079E+01 -0.42100191618E+02  0.12443012295E+03  0.15957901544E+03  0.90486980965E+02 0.  0.
        -11    1    4    4    0    0 -0.37677940613E+02 -0.35406100355E+01  0.18485909399E+02  0.42117596971E+02  0.00000000000E+00 0.  1.
         11    1    4    4    0    0  0.32957049505E+02 -0.38559581583E+02  0.10594421355E+03  0.11746141847E+03  0.00000000000E+00 0. -1.
        -11    1    3    3    0    0  0.20435142789E+02 -0.61687901660E+01 -0.34841159352E+01  0.21628409483E+02  0.00000000000E+00 0.  1.
         11    1    3    3    0    0  0.17034311027E+02  0.31846847026E+02  0.17374802477E+03  0.17746201151E+03  0.00000000000E+00 0. -1.
          1    1    1    2  501    0 -0.32748562709E+02  0.16422134758E+02  0.53338418041E+02  0.64708127068E+02  0.00000000000E+00 0. -1.
<scales pt_clust_5="13000.00000" pt_clust_6="13000.00000" pt_clust_7="13000.00000" pt_clust_8="13000.00000" pt_clust_9="13000.00000"></scales>
<clustering>
<clus scale="   90.487">  5  6 -1 -1</clus>
<clus scale="   36.635">  5  9 -1 -1</clus>
<clus scale="   92.649">  7  8 -1 -1</clus>
<clus scale="  103.185">  1  7  2 -1</clus>
<clus scale="  136.759">  2  5  1 -1</clus>
</clustering>
</event>
<event>
 9    1  0.3312826E-006  0.6924353E+03  0.7546771E-02  0.1012995E+00
         21   -1    0    0  501  502  0.00000000000E+00  0.00000000000E+00  0.11852902200E+03  0.11852902200E+03  0.00000000000E+00 0. -1.
          1   -1    0    0  502    0 -0.00000000000E+00 -0.00000000000E+00 -0.19354791371E+04  0.19354791371E+04  0.00000000000E+00 0. -1.
         23    2    1    2    0    0 -0.16839809053E+03  0.22160655038E+02 -0.13583416328E+03  0.23587244480E+03  0.91301033811E+02 0.  0.
         23    2    1    2    0    0  0.17933181493E+03  0.18312621633E+03 -0.15513467660E+04  0.15750260940E+04  0.91297850457E+02 0.  0.
        -11    1    4    4    0    0  0.11088292957E+03  0.16901201845E+03 -0.11384568861E+04  0.11562630185E+04  0.00000000000E+00 0. -1.
         11    1    4    4    0    0  0.68448885357E+02  0.14114197884E+02 -0.41288987993E+03  0.41876307554E+03  0.00000000000E+00 0.  1.
        -13    1    3    3    0    0 -0.12754559310E+03  0.51143299486E+02 -0.12237004519E+03  0.18400528079E+03  0.00000000000E+00 0. -1.
         13    1    3    3    0    0 -0.40852497436E+02 -0.28982644448E+02 -0.13464118090E+02  0.51867164005E+02  0.00000000000E+00 0.  1.
          1    1    1    2  501    0 -0.10933724393E+02 -0.20528687137E+03 -0.12976918581E+03  0.24310962028E+03  0.00000000000E+00 0. -1.
<scales pt_clust_5="13000.00000" pt_clust_6="13000.00000" pt_clust_7="13000.00000" pt_clust_8="13000.00000" pt_clust_9="13000.00000"></scales>
<clustering>
<clus scale="   91.298">  5  6 -1 -1</clus>
<clus scale="   91.301">  7  8 -1 -1</clus>
<clus scale="  192.834">  2  7  1 -1</clus>
<clus scale="  204.970">  5  9 -1 -1</clus>
<clus scale="  692.435">  1  5  2 -1</clus>
</clustering>
</event>
<event>
 9    1  0.3312826E-006  0.1611092E+03  0.7546771E-02  0.1209675E+00
          3   -1    0    0  502    0 -0.00000000000E+00  0.00000000000E+00  0.13265440988E+03  0.13265440988E+03  0.00000000000E+00 0. -1.
         21   -1    0    0  501  502  0.00000000000E+00 -0.00000000000E+00 -0.13625162010E+03  0.13625162010E+03  0.00000000000E+00 0.  1.
         23    2    1    2    0    0 -0.15953893451E+02  0.20419562412E+02  0.31191171787E+02  0.10408370683E+03  0.95859499187E+02 0.  0.
         23    2    1    2    0    0  0.41737828207E+01 -0.48004059601E+02  0.19125258764E+02  0.10312664945E+03  0.89148864838E+02 0.  0.
        -11    1    3    3    0    0 -0.36900403040E+02  0.27571216920E+02  0.54889538984E+02  0.71656634283E+02  0.00000000000E+00 0.  1.
         11    1    3    3    0    0  0.20946509588E+02 -0.71516545076E+01 -0.23698367196E+02  0.32427072546E+02  0.00000000000E+00 0. -1.
        -13    1    4    4    0    0  0.26440693703E+02 -0.56847403388E+02  0.37391446770E+02  0.72999026343E+02  0.00000000000E+00 0. -1.
         13    1    4    4    0    0 -0.22266910883E+02  0.88433437869E+01 -0.18266188006E+02  0.30127623103E+02  0.00000000000E+00 0.  1.
          3    1    1    2  501    0  0.11780110631E+02  0.27584497189E+02 -0.53913640780E+02  0.61695673704E+02  0.00000000000E+00 0. -1.
<scales pt_clust_5="13000.00000" pt_clust_6="13000.00000" pt_clust_7="13000.00000" pt_clust_8="13000.00000" pt_clust_9="13000.00000"></scales>
<clustering>
<clus scale="   89.149">  7  8 -1 -1</clus>
<clus scale="   29.995">  7  9 -1 -1</clus>
<clus scale="   95.859">  5  6 -1 -1</clus>
<clus scale="   99.300">  1  5  2 -1</clus>
<clus scale="  161.109">  2  5  1 -1</clus>
</clustering>
</event>
<event>
 9    1  0.3312826E-006  0.1549621E+03  0.7546771E-02  0.1212461E+00
         21   -1    0    0  501  502  0.00000000000E+00  0.00000000000E+00  0.19362369526E+03  0.19362369526E+03  0.00000000000E+00 0. -1.
         -3   -1    0    0    0  501 -0.00000000000E+00 -0.00000000000E+00 -0.10724406376E+03  0.10724406376E+03  0.00000000000E+00 0.  1.
         23    2    1    2    0    0  0.41430226183E+02  0.26209069967E+02  0.10024741325E+03  0.14528633855E+03  0.93033312946E+02 0.  0.
         23    2    1    2    0    0 -0.52351507014E+02  0.12749866178E+02  0.12117458735E+02  0.10749497952E+03  0.92223090606E+02 0.  0.
        -11    1    4    4    0    0 -0.16078595473E+02  0.27272000858E+02 -0.34396475923E+02  0.46748270761E+02  0.00000000000E+00 0.  1.
         11    1    4    4    0    0 -0.36272911541E+02 -0.14522134680E+02  0.46513934659E+02  0.60746708756E+02  0.00000000000E+00 0. -1.
        -11    1    3    3    0    0  0.24058455192E+02  0.60592538702E+02  0.74262588667E+02  0.98819011774E+02  0.00000000000E+00 0. -1.
         11    1    3    3    0    0  0.17371770991E+02 -0.34383468735E+02  0.25984824580E+02  0.46467326780E+02  0.00000000000E+00 0.  1.
         -3    1    1    2    0  502  0.10921280831E+02 -0.38958936144E+02 -0.25985240485E+02  0.48086440953E+02  0.00000000000E+00 0.  1.
<scales pt_clust_5="13000.00000" pt_clust_6="13000.00000" pt_clust_7="13000.00000" pt_clust_8="13000.00000" pt_clust_9="13000.00000"></scales>
<clustering>
<clus scale="   92.223">  5  6 -1 -1</clus>
<clus scale="   40.461">  5  9 -1 -1</clus>
<clus scale="   93.033">  7  8 -1 -1</clus>
<clus scale="  105.160">  2  7  1 -1</clus>
<clus scale="  154.962">  1  5  2 -1</clus>
</clustering>
</event>
<event>
 9    1  0.3312826E-006  0.2355559E+03  0.7546771E-02  0.1134991E+00
         21   -1    0    0  501  502  0.00000000000E+00  0.00000000000E+00  0.51374475077E+02  0.51374475077E+02  0.00000000000E+00 0. -1.
          2   -1    0    0  502    0 -0.00000000000E+00 -0.00000000000E+00 -0.83274501325E+03  0.83274501325E+03  0.00000000000E+00 0. -1.
         23    2    1    2    0    0  0.20888340600E+02  0.14709640158E+03 -0.27543637003E+03  0.32603710805E+03  0.91440296164E+02 0.  0.
         23    2    1    2    0    0 -0.47013253339E+02 -0.16957659973E+03 -0.40971047172E+03  0.45587244862E+03  0.94818508802E+02 0.  0.
        -13    1    3    3    0    0  0.49287527072E+02  0.76985235646E+02 -0.10285124767E+03  0.13760220194E+03  0.00000000000E+00 0.  1.
         13    1    3    3    0    0 -0.28399186473E+02  0.70111165932E+02 -0.17258512236E+03  0.18843490611E+03  0.00000000000E+00 0. -1.
        -13    1    4    4    0    0  0.24043079076E+02 -0.28688633563E+02 -0.12348942182E+03  0.12903776443E+03  0.00000000000E+00 0.  1.
         13    1    4    4    0    0 -0.71056332415E+02 -0.14088796617E+03 -0.28622104990E+03  0.32683468419E+03  0.00000000000E+00 0. -1.
          2    1    1    2  501    0  0.26124912739E+02  0.22480198151E+02 -0.96223696421E+02  0.10220993165E+03  0.00000000000E+00 0. -1.
<scales pt_clust_5="13000.00000" pt_clust_6="13000.00000" pt_clust_7="13000.00000" pt_clust_8="13000.00000" pt_clust_9="13000.00000"></scales>
<clustering>
<clus scale="   91.440">  5  6 -1 -1</clus>
<clus scale="   94.819">  7  8 -1 -1</clus>
<clus scale="   34.466">  7  9 -1 -1</clus>
<clus scale="  174.456">  2  5  1 -1</clus>
<clus scale="  235.556">  1  5  2 -1</clus>
</clustering>
</event>
<event>
 9    1  0.3312826E-006  0.5820296E+03  0.7546771E-02  0.1026701E+00
         21   -1    0    0  501  502  0.00000000000E+00  0.00000000000E+00  0.16730146742E+03  0.16730146742E+03  0.00000000000E+00 0. -1.
          2   -1    0    0  502    0 -0.00000000000E+00 -0.00000000000E+00 -0.12887539712E+04  0.12887539712E+04  0.00000000000E+00 0. -1.
         23    2    1    2    0    0 -0.43629243831E+02 -0.18856247035E+03 -0.26520421993E+02  0.21604144969E+03  0.92256485206E+02 0.  0.
         23    2    1    2    0    0  0.58780459772E+02  0.29949818149E+03 -0.10811904798E+04  0.11272083021E+04  0.92040206194E+02 0.  0.
        -11    1    3    3    0    0 -0.71687738086E+02 -0.12824603129E+03 -0.27684802031E+02  0.14950794159E+03  0.00000000000E+00 0.  1.
         11    1    3    3    0    0  0.28058494255E+02 -0.60316439052E+02  0.11643800385E+01  0.66533508104E+02  0.00000000000E+00 0. -1.
        -13    1    4    4    0    0  0.79534755903E+01  0.12061563666E+03 -0.28473173997E+03  0.30932758255E+03  0.00000000000E+00 0.  1.
         13    1    4    4    0    0  0.50826984181E+02  0.17888254483E+03 -0.79645873981E+03  0.81788071954E+03  0.00000000000E+00 0. -1.
          2    1    1    2  501    0 -0.15151215940E+02 -0.11093571114E+03 -0.13741601975E+02  0.11280568681E+03  0.00000000000E+00 0. -1.
<scales pt_clust_5="13000.00000" pt_clust_6="13000.00000" pt_clust_7="13000.00000" pt_clust_8="13000.00000" pt_clust_9="13000.00000"></scales>
<clustering>
<clus scale="   92.040">  7  8 -1 -1</clus>
<clus scale="   92.256">  5  6 -1 -1</clus>
<clus scale="  111.966">  7  9 -1 -1</clus>
<clus scale="  214.408">  2  5  1 -1</clus>
<clus scale="  582.030">  1  5  2 -1</clus>
</clustering>
</event>
<event>
 9    1  0.3312826E-006  0.2081780E+03  0.7546771E-02  0.1160551E+00
          3   -1    0    0  502    0 -0.00000000000E+00  0.00000000000E+00  0.18102985386E+03  0.18102985386E+03  0.00000000000E+00 0. -1.
         21   -1    0    0  501  502  0.00000000000E+00 -0.00000000000E+00 -0.17286737871E+03  0.17286737871E+03  0.00000000000E+00 0.  1.
         23    2    1    2    0    0  0.53087341747E+02 -0.84283928616E+02 -0.33472273801E+02  0.14159669007E+03  0.94906180247E+02 0.  0.
         23    2    1    2    0    0 -0.85290858548E+02  0.31021273214E+02  0.65565222961E+02  0.14561737715E+03  0.93106241043E+02 0.  0.
        -13    1    3    3    0    0 -0.75546853260E+01 -0.52057580055E+02 -0.48217751458E+02  0.71358366484E+02  0.00000000000E+00 0.  1.
         13    1    3    3    0    0  0.60642027073E+02 -0.32226348560E+02  0.14745477657E+02  0.70238323587E+02  0.00000000000E+00 0. -1.
        -13    1    4    4    0    0  0.63929810126E+01 -0.21008509271E+02  0.96693522698E+00  0.21980960665E+02  0.00000000000E+00 0.  1.
         13    1    4    4    0    0 -0.91683839561E+02  0.52029782485E+02  0.64598287734E+02  0.12363641648E+03  0.00000000000E+00 0. -1.
          3    1    1    2  501    0  0.32203516802E+02  0.53262655402E+02 -0.23930474013E+02  0.66683165352E+02  0.00000000000E+00 0. -1.
<scales pt_clust_5="13000.00000" pt_clust_6="13000.00000" pt_clust_7="13000.00000" pt_clust_8="13000.00000" pt_clust_9="13000.00000"></scales>
<clustering>
<clus scale="   93.106">  7  8 -1 -1</clus>
<clus scale="   62.241">  7  9 -1 -1</clus>
<clus scale="   94.906">  5  6 -1 -1</clus>
<clus scale="  137.584">  1  5  2 -1</clus>
<clus scale="  208.178">  2  5  1 -1</clus>
</clustering>
</event>
<event>
 9    1  0.3312826E-006  0.1491263E+03  0.7546771E-02  0.1225071E+00
         21   -1    0    0  501  502  0.00000000000E+00  0.00000000000E+00  0.52661871253E+02  0.52661871253E+02  0.00000000000E+00 0.  1.
          2   -1    0    0  502    0 -0.00000000000E+00 -0.00000000000E+00 -0.32672661275E+03  0.32672661275E+03  0.00000000000E+00 0. -1.
         23    2    1    2    0    0 -0.37197863301E+01  0.70561840501E+01 -0.18432760507E+03  0.20534424633E+03  0.90144145492E+02 0.  0.
         23    2    1    2    0    0 -0.49244451599E+01 -0.47605996177E+02 -0.45184402685E+02  0.11318410224E+03  0.92078388999E+02 0.  0.
        -11    1    4    4    0    0 -0.48119788761E+02 -0.31348940074E+02 -0.28445089561E+02  0.64088947832E+02  0.00000000000E+00 0.  1.
         11    1    4    4    0    0  0.43195343601E+02 -0.16257056104E+02 -0.16739313124E+02  0.49095154403E+02  0.00000000000E+00 0. -1.
        -13    1    3    3    0    0 -0.29230566505E+02 -0.26820248304E+02 -0.13285893864E+03  0.13865514529E+03  0.00000000000E+00 0.  1.
         13    1    3    3    0    0  0.25510780175E+02  0.33876432354E+02 -0.51468666430E+02  0.66689101045E+02  0.00000000000E+00 0. -1.
          2    1    1    2  501    0  0.86442314900E+01  0.40549812127E+02 -0.44552733739E+02  0.60860135435E+02  0.00000000000E+00 0. -1.
<scales pt_clust_5="13000.00000" pt_clust_6="13000.00000" pt_clust_7="13000.00000" pt_clust_8="13000.00000" pt_clust_9="13000.00000"></scales>
<clustering>
<clus scale="   90.144">  7  8 -1 -1</clus>
<clus scale="   90.496">  2  7  1 -1</clus>
<clus scale="   92.078">  5  6 -1 -1</clus>
<clus scale="   43.956">  5  9 -1 -1</clus>
<clus scale="  149.126">  1  5  2 -1</clus>
</clustering>
</event>
<event>
 9    1  0.3312826E-006  0.3763392E+03  0.7546771E-02  0.1082823E+00
          2   -1    0    0  502    0 -0.00000000000E+00  0.00000000000E+00  0.39002730963E+03  0.39002730963E+03  0.00000000000E+00 0. -1.
         21   -1    0    0  501  502  0.00000000000E+00 -0.00000000000E+00 -0.33605012068E+03  0.33605012068E+03  0.00000000000E+00 0. -1.
         23    2    1    2    0    0  0.12489788707E+03  0.48878137316E+02 -0.21080141614E+03  0.26592650254E+03  0.91055550103E+02 0.  0.
         23    2    1    2    0    0 -0.18116492046E+03  0.36115167535E+02  0.28993240970E+03  0.35516257221E+03  0.89188658315E+02 0.  0.
        -11    1    4    4    0    0 -0.10376097988E+03  0.43153048526E+02  0.23343086065E+03  0.25907237067E+03  0.00000000000E+00 0.  1.
         11    1    4    4    0    0 -0.77403940583E+02 -0.70378809908E+01  0.56501549058E+02  0.96090201543E+02  0.00000000000E+00 0. -1.
        -11    1    3    3    0    0  0.45691743476E+02  0.36230016338E+02 -0.16167131960E+03  0.17186612548E+03  0.00000000000E+00 0. -1.
         11    1    3    3    0    0  0.79206143591E+02  0.12648120978E+02 -0.49130096543E+02  0.94060377062E+02  0.00000000000E+00 0.  1.
          2    1    1    2  501    0  0.56267033392E+02 -0.84993304851E+02 -0.25153804609E+02  0.10498835556E+03  0.00000000000E+00 0. -1.
<scales pt_clust_5="13000.00000" pt_clust_6="13000.00000" pt_clust_7="13000.00000" pt_clust_8="13000.00000" pt_clust_9="13000.00000"></scales>
<clustering>
<clus scale="   89.189">  5  6 -1 -1</clus>
<clus scale="   91.056">  7  8 -1 -1</clus>
<clus scale="  101.931">  5  9 -1 -1</clus>
<clus scale="  162.110">  1  7  2 -1</clus>
<clus scale="  376.339">  2  5  1 -1</clus>
</clustering>
</event>
<event>
 9    1  0.3312826E-006  0.2370610E+03  0.7546771E-02  0.1150304E+00
         21   -1    0    0  501  502  0.00000000000E+00  0.00000000000E+00  0.78082265037E+02  0.78082265037E+02  0.00000000000E+00 0.  1.
         -1   -1    0    0    0  501 -0.00000000000E+00 -0.00000000000E+00 -0.41444467272E+03  0.41444467272E+03  0.00000000000E+00 0.  1.
         23    2    1    2    0    0 -0.23101767271E+02 -0.73983441702E+02 -0.77908865002E+02  0.14181884286E+03  0.89641238544E+02 0.  0.
         23    2    1    2    0    0  0.27370620684E+02  0.27002966200E+01 -0.26374905028E+03  0.27910116588E+03  0.87048588690E+02 0.  0.
        -13    1    3    3    0    0  0.82845102677E+01 -0.84848557498E+02 -0.54473029529E+02  0.10116927284E+03  0.00000000000E+00 0.  1.
         13    1    3    3    0    0 -0.31386277539E+02  0.10865115797E+02 -0.23435835474E+02  0.40649570027E+02  0.00000000000E+00 0. -1.
        -13    1    4    4    0    0 -0.31849328602E+02  0.26312809189E+01 -0.99147004637E+02  0.10417020639E+03  0.00000000000E+00 0.  1.
         13    1    4    4    0    0  0.59219949285E+02  0.69015701093E-01 -0.16460204564E+03  0.17493095948E+03  0.00000000000E+00 0. -1.
         -1    1    1    2    0  502 -0.42688534126E+01  0.71283145082E+02  0.52955076008E+01  0.71606929015E+02  0.00000000000E+00 0.  1.
<scales pt_clust_5="13000.00000" pt_clust_6="13000.00000" pt_clust_7="13000.00000" pt_clust_8="13000.00000" pt_clust_9="13000.00000"></scales>
<clustering>
<clus scale="   87.049">  7  8 -1 -1</clus>
<clus scale="   71.411">  7  9 -1 -1</clus>
<clus scale="   89.641">  5  6 -1 -1</clus>
<clus scale="  118.502">  2  5  1 -1</clus>
<clus scale="  237.061">  1  5  2 -1</clus>
</clustering>
</event>
<event>
 9    1  0.3312826E-006  0.2356473E+03  0.7546771E-02  0.1152960E+00
          4   -1    0    0  502    0 -0.00000000000E+00  0.00000000000E+00  0.10481852501E+03  0.10481852501E+03  0.00000000000E+00 0. -1.
         21   -1    0    0  501  502  0.00000000000E+00 -0.00000000000E+00 -0.38158993449E+03  0.38158993449E+03  0.00000000000E+00 0. -1.
         23    2    1    2    0    0 -0.20767310434E+02  0.60693242931E+02  0.11712621980E+02  0.11391325400E+03  0.93402853296E+02 0.  0.
         23    2    1    2    0    0  0.17658280938E+02  0.59688944415E+02 -0.95511868947E+02  0.14503137848E+03  0.89649309325E+02 0.  0.
        -11    1    3    3    0    0 -0.38480363694E+02  0.26853371502E+02 -0.31288096028E+02  0.56398465441E+02  0.00000000000E+00 0.  1.
         11    1    3    3    0    0  0.17713053260E+02  0.33839871429E+02  0.43000718008E+02  0.57514788562E+02  0.00000000000E+00 0. -1.
        -11    1    4    4    0    0  0.10925016555E+02  0.30395545030E+02  0.11185407606E+02  0.34181259306E+02  0.00000000000E+00 0.  1.
         11    1    4    4    0    0  0.67332643828E+01  0.29293399385E+02 -0.10669727655E+03  0.11085011917E+03  0.00000000000E+00 0. -1.
          4    1    1    2  501    0  0.31090294965E+01 -0.12038218735E+03 -0.19297216252E+03  0.22746382702E+03  0.00000000000E+00 0. -1.
<scales pt_clust_5="13000.00000" pt_clust_6="13000.00000" pt_clust_7="13000.00000" pt_clust_8="13000.00000" pt_clust_9="13000.00000"></scales>
<clustering>
<clus scale="   89.649">  7  8 -1 -1</clus>
<clus scale="   93.403">  5  6 -1 -1</clus>
<clus scale="  113.310">  1  5  2 -1</clus>
<clus scale="   95.618">  7  9 -1 -1</clus>
<clus scale="  235.647">  2  5  1 -1</clus>
</clustering>
</event>
<event>
 9    1  0.3312826E-006  0.3058581E+03  0.7546771E-02  0.1120818E+00
         -3   -1    0    0    0  501 -0.00000000000E+00  0.00000000000E+00  0.30444668151E+03  0.30444668151E+03  0.00000000000E+00 0.  1.
         21   -1    0    0  501  502  0.00000000000E+00 -0.00000000000E+00 -0.15589075867E+03  0.15589075867E+03  0.00000000000E+00 0. -1.
         23    2    1    2    0    0  0.55185459044E+02  0.46172808473E+02 -0.14134899841E+02  0.11390202321E+03  0.87157973618E+02 0.  0.
         23    2    1    2    0    0  0.21309837046E+02  0.96926830707E+02  0.10838433466E+03  0.17532658699E+03  0.95620753182E+02 0.  0.
        -11    1    3    3    0    0 -0.82355881066E+01  0.24997192170E+02 -0.35061839846E+02  0.43840815928E+02  0.00000000000E+00 0. -1.
         11    1    3    3    0    0  0.63421047151E+02  0.21175616304E+02  0.20926940005E+02  0.70061207280E+02  0.00000000000E+00 0.  1.
        -13    1    4    4    0    0 -0.37878397770E+02  0.46232702178E+02  0.43525123537E+02  0.73936947105E+02  0.00000000000E+00 0.  1.
         13    1    4    4    0    0  0.59188234816E+02  0.50694128528E+02  0.64859211124E+02  0.10138963988E+03  0.00000000000E+00 0. -1.
         -3    1    1    2    0  502 -0.76495296090E+02 -0.14309963918E+03  0.54306488028E+02  0.17110882999E+03  0.00000000000E+00 0.  1.
<scales pt_clust_5="13000.00000" pt_clust_6="13000.00000" pt_clust_7="13000.00000" pt_clust_8="13000.00000" pt_clust_9="13000.00000"></scales>
<clustering>
<clus scale="   87.158">  5  6 -1 -1</clus>
<clus scale="   95.621">  7  8 -1 -1</clus>
<clus scale="  113.022">  1  5  2 -1</clus>
<clus scale="  133.248">  7  9 -1 -1</clus>
<clus scale="  305.858">  2  5  1 -1</clus>
</clustering>
</event>
<event>
 9    1  0.3312826E-006  0.1599355E+03  0.7546771E-02  0.1213283E+00
          1   -1    0    0  502    0 -0.00000000000E+00  0.00000000000E+00  0.88157753007E+02  0.88157753007E+02  0.00000000000E+00 0. -1.
         21   -1    0    0  501  502  0.00000000000E+00 -0.00000000000E+00 -0.19265392763E+03  0.19265392763E+03  0.00000000000E+00 0.  1.
         23    2    1    2    0    0 -0.55790645580E+01  0.15392435323E+02 -0.87358915427E+01  0.94399763287E+02  0.92557800757E+02 0.  0.
         23    2    1    2    0    0  0.29762561621E+02  0.32986687161E+02 -0.80869418116E+02  0.13031272946E+03  0.92019634148E+02 0.  0.
        -11    1    3    3    0    0 -0.24363160685E+02  0.23804612079E+02  0.33275241531E+02  0.47617904760E+02  0.00000000000E+00 0.  1.
         11    1    3    3    0    0  0.18784096127E+02 -0.84121767553E+01 -0.42011133074E+02  0.46781858527E+02  0.00000000000E+00 0. -1.
        -13    1    4    4    0    0 -0.26712226273E+02  0.35673094245E+02 -0.45127449065E+02  0.63423965064E+02  0.00000000000E+00 0.  1.
         13    1    4    4    0    0  0.56474787894E+02 -0.26864070839E+01 -0.35741969052E+02  0.66888764396E+02  0.00000000000E+00 0. -1.
          1    1    1    2  501    0 -0.24183497063E+02 -0.48379122484E+02 -0.14890864963E+02  0.56099187890E+02  0.00000000000E+00 0. -1.
<scales pt_clust_5="13000.00000" pt_clust_6="13000.00000" pt_clust_7="13000.00000" pt_clust_8="13000.00000" pt_clust_9="13000.00000"></scales>
<clustering>
<clus scale="   92.020">  7  8 -1 -1</clus>
<clus scale="   54.087">  7  9 -1 -1</clus>
<clus scale="   92.558">  5  6 -1 -1</clus>
<clus scale="   93.995">  1  5  2 -1</clus>
<clus scale="  159.936">  2  5  1 -1</clus>
</clustering>
</event>
<event>
 9    1  0.3312826E-006  0.2325798E+03  0.7546771E-02  0.1157521E+00
         -1   -1    0    0    0  501 -0.00000000000E+00  0.00000000000E+00  0.16591153778E+03  0.16591153778E+03  0.00000000000E+00 0.  1.
         21   -1    0    0  501  502  0.00000000000E+00 -0.00000000000E+00 -0.26369011116E+03  0.26369011116E+03  0.00000000000E+00 0.  1.
         23    2    1    2    0    0  0.40443616278E+02  0.35898695740E+02  0.83395224816E+02  0.13478420140E+03  0.91036338740E+02 0.  0.
         23    2    1    2    0    0  0.31946549825E+02  0.55137982150E+02 -0.52381284737E+02  0.12127919702E+03  0.88904811562E+02 0.  0.
        -13    1    4    4    0    0 -0.31060990909E+02  0.18012364227E+02 -0.12772135608E+02  0.38109813294E+02  0.00000000000E+00 0. -1.
         13    1    4    4    0    0  0.63007540734E+02  0.37125617923E+02 -0.39609149129E+02  0.83169383731E+02  0.00000000000E+00 0.  1.
        -13    1    3    3    0    0  0.47446731547E+02 -0.86045079581E+01  0.74684676801E+02  0.88898992349E+02  0.00000000000E+00 0.  1.
         13    1    3    3    0    0 -0.70031152691E+01  0.44503203698E+02  0.87105480151E+01  0.45885209051E+02  0.00000000000E+00 0. -1.
         -1    1    1    2    0  502 -0.72390166103E+02 -0.91036677891E+02 -0.12879251346E+03  0.17353825052E+03  0.00000000000E+00 0.  1.
<scales pt_clust_5="13000.00000" pt_clust_6="13000.00000" pt_clust_7="13000.00000" pt_clust_8="13000.00000" pt_clust_9="13000.00000"></scales>
<clustering>
<clus scale="   88.905">  5  6 -1 -1</clus>
<clus scale="   91.036">  7  8 -1 -1</clus>
<clus scale="  105.887">  1  7  2 -1</clus>
<clus scale="   95.406">  5  9 -1 -1</clus>
<clus scale="  232.580">  2  5  1 -1</clus>
</clustering>
</event>
<event>
 9    1  0.3312826E-006  0.1769966E+03  0.7546771E-02  0.1188702E+00
         -1   -1    0    0    0  501 -0.00000000000E+00  0.00000000000E+00  0.33698274397E+03  0.33698274397E+03  0.00000000000E+00 0.  1.
         21   -1    0    0  501  502  0.00000000000E+00 -0.00000000000E+00 -0.69639857582E+02  0.69639857582E+02  0.00000000000E+00 0.  1.
         23    2    1    2    0    0 -0.77413575090E+02 -0.23027368972E+01  0.16242180891E+03  0.20086487257E+03  0.89261911338E+02 0.  0.
         23    2    1    2    0    0  0.37662969735E+02 -0.29992683469E+02  0.11513519934E+03  0.15353289688E+03  0.89432521746E+02 0.  0.
        -13    1    4    4    0    0  0.60943219269E+02 -0.39732078231E+02  0.65688149734E+02  0.98018605534E+02  0.00000000000E+00 0.  1.
         13    1    4    4    0    0 -0.23280249534E+02  0.97393947616E+01  0.49447049607E+02  0.55514291344E+02  0.00000000000E+00 0. -1.
        -13    1    3    3    0    0 -0.87525633956E+02  0.15978331586E+02  0.94458342524E+02  0.12976294599E+03  0.00000000000E+00 0.  1.
         13    1    3    3    0    0  0.10112058866E+02 -0.18281068483E+02  0.67963466391E+02  0.71101926579E+02  0.00000000000E+00 0. -1.
         -1    1    1    2    0  502  0.39750605355E+02  0.32295420366E+02 -0.10214121867E+02  0.52224832103E+02  0.00000000000E+00 0.  1.
<scales pt_clust_5="13000.00000" pt_clust_6="13000.00000" pt_clust_7="13000.00000" pt_clust_8="13000.00000" pt_clust_9="13000.00000"></scales>
<clustering>
<clus scale="   89.262">  7  8 -1 -1</clus>
<clus scale="   89.433">  5  6 -1 -1</clus>
<clus scale="   51.216">  5  9 -1 -1</clus>
<clus scale="  118.177">  1  7  2 -1</clus>
<clus scale="  176.997">  2  5  1 -1</clus>
</clustering>
</event>
<event>
 9    1  0.3312826E-006  0.1920073E+03  0.7546771E-02  0.1189382E+00
          1   -1    0    0  502    0 -0.00000000000E+00  0.00000000000E+00  0.10802258053E+03  0.10802258053E+03  0.00000000000E+00 0. -1.
         21   -1    0    0  501  502  0.00000000000E+00 -0.00000000000E+00 -0.19287667215E+03  0.19287667215E+03  0.00000000000E+00 0.  1.
         23    2    1    2    0    0  0.47496457574E+01 -0.11250273619E+02 -0.52922091234E+00  0.91191133568E+02  0.90368218835E+02 0.  0.
         23    2    1    2    0    0 -0.98579715234E+01  0.68342630900E+02 -0.77949697010E+01  0.11409191755E+03  0.90489277245E+02 0.  0.
        -13    1    4    4    0    0  0.16373864892E+02  0.66700058483E+02  0.24078895403E+02  0.72779079803E+02  0.00000000000E+00 0.  1.
         13    1    4    4    0    0 -0.26231836416E+02  0.16425724171E+01 -0.31873865104E+02  0.41312837745E+02  0.00000000000E+00 0. -1.
        -13    1    3    3    0    0 -0.22875237293E+02  0.22427464437E+02 -0.25533576079E+02  0.40966219617E+02  0.00000000000E+00 0.  1.
         13    1    3    3    0    0  0.27624883050E+02 -0.33677738056E+02  0.25004355167E+02  0.50224913951E+02  0.00000000000E+00 0. -1.
          1    1    1    2  501    0  0.51083257660E+01 -0.57092357282E+02 -0.76529901011E+02  0.95616201561E+02  0.00000000000E+00 0. -1.
<scales pt_clust_5="13000.00000" pt_clust_6="13000.00000" pt_clust_7="13000.00000" pt_clust_8="13000.00000" pt_clust_9="13000.00000"></scales>
<clustering>
<clus scale="   90.368">  7  8 -1 -1</clus>
<clus scale="   90.489">  5  6 -1 -1</clus>
<clus scale="   57.320">  5  9 -1 -1</clus>
<clus scale="   91.190">  1  7  2 -1</clus>
<clus scale="  192.007">  2  5  1 -1</clus>
</clustering>
</event>
<event>
 9    1  0.3312826E-006  0.1975047E+03  0.7546771E-02  0.1170316E+00
          3   -1    0    0  502    0 -0.00000000000E+00  0.00000000000E+00  0.16425594907E+03  0.16425594907E+03  0.00000000000E+00 0. -1.
         21   -1    0    0  501  502  0.00000000000E+00 -0.00000000000E+00 -0.16728989162E+03  0.16728989162E+03  0.00000000000E+00 0.  1.
         23    2    1    2    0    0  0.52931533849E+02  0.73738603283E+02  0.27927697595E+02  0.13162899384E+03  0.91143331274E+02 0.  0.
         23    2    1    2    0    0  0.21949903803E+02 -0.70699859083E+02  0.17663161910E+01  0.11813920445E+03  0.92051525805E+02 0.  0.
        -13    1    4    4    0    0 -0.22000547885E+02 -0.68669222594E+02  0.11657571096E+02  0.73043721173E+02  0.00000000000E+00 0. -1.
         13    1    4    4    0    0  0.43950451688E+02 -0.20306364890E+01 -0.98912549052E+01  0.45095483274E+02  0.00000000000E+00 0.  1.
        -13    1    3    3    0    0  0.63056326296E+02  0.35248917425E+02  0.48319379138E+02  0.86910004406E+02  0.00000000000E+00 0.  1.
         13    1    3    3    0    0 -0.10124792447E+02  0.38489685858E+02 -0.20391681543E+02  0.44718989431E+02  0.00000000000E+00 0. -1.
          3    1    1    2  501    0 -0.74881437652E+02 -0.30387442000E+01 -0.32727956341E+02  0.81777642405E+02  0.00000000000E+00 0. -1.
<scales pt_clust_5="13000.00000" pt_clust_6="13000.00000" pt_clust_7="13000.00000" pt_clust_8="13000.00000" pt_clust_9="13000.00000"></scales>
<clustering>
<clus scale="   91.143">  7  8 -1 -1</clus>
<clus scale="   92.052">  5  6 -1 -1</clus>
<clus scale="   74.943">  5  9 -1 -1</clus>
<clus scale="  128.632">  1  7  2 -1</clus>
<clus scale="  197.505">  2  5  1 -1</clus>
</clustering>
</event>
<event>
 9    1  0.3312826E-006  0.2798286E+03  0.7546771E-02  0.1141422E+00
         21   -1    0    0  501  502  0.00000000000E+00  0.00000000000E+00  0.48182653608E+03  0.48182653608E+03  0.00000000000E+00 0. -1.
          2   -1    0    0  502    0 -0.00000000000E+00 -0.00000000000E+00 -0.71634988052E+02  0.71634988052E+02  0.00000000000E+00 0. -1.
         23    2    1    2    0    0 -0.13084798726E+02  0.92528997401E+01  0.72115101337E+02  0.11459969473E+03  0.87610924435E+02 0.  0.
         23    2    1    2    0    0  0.59869672463E+02 -0.27816659122E+02  0.17640345347E+02  0.11449670702E+03  0.91870397455E+02 0.  0.
        -11    1    3    3    0    0 -0.26660179986E+02  0.42253519338E+02  0.26094077672E+02  0.56365113172E+02  0.00000000000E+00 0. -1.
         11    1    3    3    0    0  0.13575381259E+02 -0.33000619598E+02  0.46021023665E+02  0.58234581559E+02  0.00000000000E+00 0.  1.
        -11    1    4    4    0    0 -0.25246194801E+01  0.28438596487E+02  0.95164918046E+01  0.30094702024E+02  0.00000000000E+00 0.  1.
         11    1    4    4    0    0  0.62394291943E+02 -0.56255255609E+02  0.81238535419E+01  0.84402004995E+02  0.00000000000E+00 0. -1.
          2    1    1    2  501    0 -0.46784873737E+02  0.18563759382E+02  0.32043610135E+03  0.32436512238E+03  0.00000000000E+00 0. -1.
<scales pt_clust_5="13000.00000" pt_clust_6="13000.00000" pt_clust_7="13000.00000" pt_clust_8="13000.00000" pt_clust_9="13000.00000"></scales>
<clustering>
<clus scale="   87.611">  5  6 -1 -1</clus>
<clus scale="   89.065">  2  5  1 -1</clus>
<clus scale="   91.870">  7  8 -1 -1</clus>
<clus scale="   50.941">  7  9 -1 -1</clus>
<clus scale="  279.829">  1  5  2 -1</clus>
</clustering>
</event>
<event>
 9    1  0.3312826E-006  0.1207560E+03  0.7546771E-02  0.1254797E+00
         21   -1    0    0  501  502  0.00000000000E+00  0.00000000000E+00  0.76555583102E+02  0.76555583102E+02  0.00000000000E+00 0. -1.
         -2   -1    0    0    0  501 -0.00000000000E+00 -0.00000000000E+00 -0.25320070505E+03  0.25320070505E+03  0.00000000000E+00 0.  1.
         23    2    1    2    0    0  0.39780502850E+01  0.17505283944E+01 -0.18662142742E+03  0.20858888875E+03  0.93074583556E+02 0.  0.
         23    2    1    2    0    0  0.28079042958E+01  0.23297452857E+02  0.63154490662E+01  0.94959530083E+02  0.91797449967E+02 0.  0.
        -13    1    4    4    0    0 -0.86089870227E+01 -0.34481298895E+02 -0.13588066343E+01  0.35565727695E+02  0.00000000000E+00 0.  1.
         13    1    4    4    0    0  0.11416891319E+02  0.57778751752E+02  0.76742557004E+01  0.59393802387E+02  0.00000000000E+00 0. -1.
        -13    1    3    3    0    0  0.36515633664E+02  0.32122621740E+02 -0.10016581485E+03  0.11134830395E+03  0.00000000000E+00 0.  1.
         13    1    3    3    0    0 -0.32537583379E+02 -0.30372093345E+02 -0.86455612574E+02  0.97240584798E+02  0.00000000000E+00 0. -1.
         -2    1    1    2    0  502 -0.67859545808E+01 -0.25047981252E+02  0.36608564098E+01  0.26207869315E+02  0.00000000000E+00 0.  1.
<scales pt_clust_5="13000.00000" pt_clust_6="13000.00000" pt_clust_7="13000.00000" pt_clust_8="13000.00000" pt_clust_9="13000.00000"></scales>
<clustering>
<clus scale="   91.797">  5  6 -1 -1</clus>
<clus scale="   25.951">  5  9 -1 -1</clus>
<clus scale="   93.075">  7  8 -1 -1</clus>
<clus scale="   93.176">  2  7  1 -1</clus>
<clus scale="  120.756">  1  5  2 -1</clus>
</clustering>
</event>
<event>
 9    1  0.3312826E-006  0.3340176E+03  0.7546771E-02  0.1072918E+00
         21   -1    0    0  501  502  0.00000000000E+00  0.00000000000E+00  0.32880168071E+03  0.32880168071E+03  0.00000000000E+00 0.  1.
         -3   -1    0    0    0  501 -0.00000000000E+00 -0.00000000000E+00 -0.50203975245E+03  0.50203975245E+03  0.00000000000E+00 0.  1.
         23    2    1    2    0    0 -0.26190954130E+03  0.12615061669E+03 -0.34168872399E+03  0.45675132160E+03  0.85790441039E+02 0.  0.
         23    2    1    2    0    0  0.75674607470E+02 -0.29678128657E+02  0.39755918092E+02  0.12801547628E+03  0.90553805040E+02 0.  0.
        -11    1    4    4    0    0  0.29821269552E+02  0.78168327852E+01  0.58299558446E+02  0.65948840077E+02  0.00000000000E+00 0.  1.
         11    1    4    4    0    0  0.45853337918E+02 -0.37494961442E+02 -0.18543640354E+02  0.62066636202E+02  0.00000000000E+00 0. -1.
        -13    1    3    3    0    0 -0.23932213446E+03  0.13905327790E+03 -0.31777779935E+03  0.42141858988E+03  0.00000000000E+00 0.  1.
         13    1    3    3    0    0 -0.22587406837E+02 -0.12902661213E+02 -0.23910924639E+02  0.35332731724E+02  0.00000000000E+00 0. -1.
         -3    1    1    2    0  502  0.18623493383E+03 -0.96472488030E+02  0.12869473416E+03  0.24607463527E+03  0.00000000000E+00 0.  1.
<scales pt_clust_5="13000.00000" pt_clust_6="13000.00000" pt_clust_7="13000.00000" pt_clust_8="13000.00000" pt_clust_9="13000.00000"></scales>
<clustering>
<clus scale="   85.790">  7  8 -1 -1</clus>
<clus scale="   90.554">  5  6 -1 -1</clus>
<clus scale="  209.739">  5  9 -1 -1</clus>
<clus scale="  303.102">  2  7  1 -1</clus>
<clus scale="  334.018">  1  5  2 -1</clus>
</clustering>
</event>
<event>
 9    1  0.3312826E-006  0.2981900E+03  0.7546771E-02  0.1105918E+00
         21   -1    0    0  501  502  0.00000000000E+00  0.00000000000E+00  0.16558482289E+03  0.16558482289E+03  0.00000000000E+00 0.  1.
          2   -1    0    0  502    0 -0.00000000000E+00 -0.00000000000E+00 -0.59503465708E+03  0.59503465708E+03  0.00000000000E+00 0. -1.
         23    2    1    2    0    0  0.15010147107E+03  0.98576639462E+01 -0.42684861016E+03  0.46241814595E+03  0.94885091300E+02 0.  0.
         23    2    1    2    0    0 -0.40883075563E+02  0.17293900058E+02 -0.10488168143E+03  0.14612517773E+03  0.91552693144E+02 0.  0.
        -11    1    4    4    0    0  0.13722150034E+02  0.26198068429E+02 -0.24109855633E+01  0.29672361590E+02  0.00000000000E+00 0.  1.
         11    1    4    4    0    0 -0.54605225596E+02 -0.89041683705E+01 -0.10247069587E+03  0.11645281614E+03  0.00000000000E+00 0. -1.
        -11    1    3    3    0    0  0.45769182546E+02  0.40966252783E+02 -0.22315836661E+03  0.23145778994E+03  0.00000000000E+00 0. -1.
         11    1    3    3    0    0  0.10433228852E+03 -0.31108588837E+02 -0.20369024355E+03  0.23096035601E+03  0.00000000000E+00 0.  1.
          2    1    1    2  501    0 -0.10921839551E+03 -0.27151564004E+02  0.10228045740E+03  0.15207615628E+03  0.00000000000E+00 0. -1.
<scales pt_clust_5="13000.00000" pt_clust_6="13000.00000" pt_clust_7="13000.00000" pt_clust_8="13000.00000" pt_clust_9="13000.00000"></scales>
<clustering>
<clus scale="   91.553">  5  6 -1 -1</clus>
<clus scale="   94.885">  7  8 -1 -1</clus>
<clus scale="  112.543">  5  9 -1 -1</clus>
<clus scale="  177.851">  2  7  1 -1</clus>
<clus scale="  298.190">  1  5  2 -1</clus>
</clustering>
</event>
<event>
 9    1  0.3312826E-006  0.1525534E+03  0.7546771E-02  0.1204748E+00
          2   -1    0    0  502    0 -0.00000000000E+00  0.00000000000E+00  0.17951342238E+03  0.17951342238E+03  0.00000000000E+00 0. -1.
         21   -1    0    0  501  502  0.00000000000E+00 -0.00000000000E+00 -0.11126813341E+03  0.11126813341E+03  0.00000000000E+00 0. -1.
         23    2    1    2    0    0  0.89743370410E+02 -0.32816288443E+02  0.27467494864E+02  0.13287215260E+03  0.88146266749E+02 0.  0.
         23    2    1    2    0    0 -0.27154296764E+02  0.21479536787E+02  0.16011817180E+02  0.89650574527E+02  0.81130271110E+02 0.  0.
        -11    1    3    3    0    0  0.68578975143E+02 -0.51371750734E+02  0.47830358532E+02  0.98131930596E+02  0.00000000000E+00 0. -1.
         11    1    3    3    0    0  0.21164395267E+02  0.18555462291E+02 -0.20362863669E+02  0.34740222000E+02  0.00000000000E+00 0.  1.
        -13    1    4    4    0    0 -0.54716213391E+01 -0.30447836885E+02  0.12182728843E+02  0.33247981790E+02  0.00000000000E+00 0.  1.
         13    1    4    4    0    0 -0.21682675425E+02  0.51927373672E+02  0.38290883372E+01  0.56402592738E+02  0.00000000000E+00 0. -1.
          2    1    1    2  501    0 -0.62589073646E+02  0.11336751656E+02  0.24765976927E+02  0.68258828668E+02  0.00000000000E+00 0. -1.
<scales pt_clust_5="13000.00000" pt_clust_6="13000.00000" pt_clust_7="13000.00000" pt_clust_8="13000.00000" pt_clust_9="13000.00000"></scales>
<clustering>
<clus scale="   81.130">  7  8 -1 -1</clus>
<clus scale="   63.608">  7  9 -1 -1</clus>
<clus scale="   88.146">  5  6 -1 -1</clus>
<clus scale="  130.002">  1  5  2 -1</clus>
<clus scale="  152.553">  2  5  1 -1</clus>
</clustering>
</event>
<event>
 9    1  0.3312826E-006  0.4334178E+03  0.7546771E-02  0.1068173E+00
         21   -1    0    0  501  502  0.00000000000E+00  0.00000000000E+00  0.17329926435E+03  0.17329926435E+03  0.00000000000E+00 0. -1.
          1   -1    0    0  502    0 -0.00000000000E+00 -0.00000000000E+00 -0.68668150845E+03  0.68668150845E+03  0.00000000000E+00 0. -1.
         23    2    1    2    0    0  0.10792427343E+03  0.67632565210E+02 -0.37186436000E+03  0.40404400363E+03  0.93523483467E+02 0.  0.
         23    2    1    2    0    0  0.66599113691E+02 -0.16871128578E+02 -0.22769498144E+03  0.25478600928E+03  0.91382870538E+02 0.  0.
        -11    1    3    3    0    0  0.50573312275E+02 -0.18613185863E+02 -0.11167518749E+03  0.12399781491E+03  0.00000000000E+00 0. -1.
         11    1    3    3    0    0  0.57350961151E+02  0.86245751073E+02 -0.26018917251E+03  0.28004618872E+03  0.00000000000E+00 0.  1.
        -13    1    4    4    0    0  0.46070552919E+02 -0.37735335339E+02 -0.59930847840E+02  0.84487619817E+02  0.00000000000E+00 0.  1.
         13    1    4    4    0    0  0.20528560771E+02  0.20864206761E+02 -0.16776413360E+03  0.17029838946E+03  0.00000000000E+00 0. -1.
          1    1    1    2  501    0 -0.17452338712E+03 -0.50761436632E+02  0.86177097332E+02  0.20115075989E+03  0.00000000000E+00 0. -1.
<scales pt_clust_5="13000.00000" pt_clust_6="13000.00000" pt_clust_7="13000.00000" pt_clust_8="13000.00000" pt_clust_9="13000.00000"></scales>
<clustering>
<clus scale="   91.383">  7  8 -1 -1</clus>
<clus scale="   93.523">  5  6 -1 -1</clus>
<clus scale="  158.014">  2  5  1 -1</clus>
<clus scale="  158.320">  7  9 -1 -1</clus>
<clus scale="  433.418">  1  5  2 -1</clus>
</clustering>
</event>
<event>
 9    1  0.3312826E-006  0.3437731E+03  0.7546771E-02  0.1089449E+00
          2   -1    0    0  502    0 -0.00000000000E+00  0.00000000000E+00  0.47357379784E+03  0.47357379784E+03  0.00000000000E+00 0. -1.
         21   -1    0    0  501  502  0.00000000000E+00 -0.00000000000E+00 -0.17356247983E+03  0.17356247983E+03  0.00000000000E+00 0.  1.
         23    2    1    2    0    0  0.85534895708E+01 -0.15260994416E+03 -0.17538991703E+02  0.17914254847E+03  0.91768617740E+02 0.  0.
         23    2    1    2    0    0  0.10223088083E+03  0.14396936905E+03  0.29401209113E+03  0.35440726875E+03  0.89348028472E+02 0.  0.
        -11    1    4    4    0    0  0.79249495626E+02  0.15225099820E+03  0.27139347060E+03  0.32111565657E+03  0.00000000000E+00 0. -1.
         11    1    4    4    0    0  0.22981385205E+02 -0.82816291404E+01  0.22618620532E+02  0.33291612186E+02  0.00000000000E+00 0.  1.
        -13    1    3    3    0    0  0.44779696957E+02 -0.12283202016E+03 -0.19611338943E+02  0.13220261363E+03  0.00000000000E+00 0.  1.
         13    1    3    3    0    0 -0.36226207387E+02 -0.29777923998E+02  0.20723472403E+01  0.46939934835E+02  0.00000000000E+00 0. -1.
          2    1    1    2  501    0 -0.11078437040E+03  0.86405751060E+01  0.23538218580E+02  0.11358646045E+03  0.00000000000E+00 0. -1.
<scales pt_clust_5="13000.00000" pt_clust_6="13000.00000" pt_clust_7="13000.00000" pt_clust_8="13000.00000" pt_clust_9="13000.00000"></scales>
<clustering>
<clus scale="   89.348">  5  6 -1 -1</clus>
<clus scale="   91.769">  7  8 -1 -1</clus>
<clus scale="  111.121">  5  9 -1 -1</clus>
<clus scale="  178.282">  1  7  2 -1</clus>
<clus scale="  343.773">  2  5  1 -1</clus>
</clustering>
</event>
<event>
 9    1  0.3312826E-006  0.1977323E+03  0.7546771E-02  0.1160372E+00
          2   -1    0    0  502    0 -0.00000000000E+00  0.00000000000E+00  0.22002522924E+03  0.22002522924E+03  0.00000000000E+00 0. -1.
         21   -1    0    0  501  502  0.00000000000E+00 -0.00000000000E+00 -0.15828426048E+03  0.15828426048E+03  0.00000000000E+00 0.  1.
         23    2    1    2    0    0 -0.10094591920E+03 -0.87823319669E+02 -0.23597367365E+02  0.16294767103E+03  0.89956065210E+02 0.  0.
         23    2    1    2    0    0  0.89244880690E+02  0.35784085299E+02  0.23280438190E+02  0.13353163531E+03  0.89685948370E+02 0.  0.
        -13    1    4    4    0    0  0.97848588389E+01 -0.25169079542E+02 -0.87529878125E+01  0.28387335612E+02  0.00000000000E+00 0.  1.
         13    1    4    4    0    0  0.79460021851E+02  0.60953164841E+02  0.32033426003E+02  0.10514429969E+03  0.00000000000E+00 0. -1.
        -13    1    3    3    0    0 -0.11004028256E+02  0.17374200267E+02 -0.12571366261E+02  0.24103749137E+02  0.00000000000E+00 0. -1.
         13    1    3    3    0    0 -0.89941890943E+02 -0.10519751994E+03 -0.11026001104E+02  0.13884392190E+03  0.00000000000E+00 0.  1.
          2    1    1    2  501    0  0.11701038509E+02  0.52039234370E+02  0.62057897935E+02  0.81830183381E+02  0.00000000000E+00 0. -1.
<scales pt_clust_5="13000.00000" pt_clust_6="13000.00000" pt_clust_7="13000.00000" pt_clust_8="13000.00000" pt_clust_9="13000.00000"></scales>
<clustering>
<clus scale="   89.686">  5  6 -1 -1</clus>
<clus scale="   53.339">  5  9 -1 -1</clus>
<clus scale="   89.956">  7  8 -1 -1</clus>
<clus scale="  161.230">  1  7  2 -1</clus>
<clus scale="  197.732">  2  5  1 -1</clus>
</clustering>
</event>
<event>
 9    1  0.3312826E-006  0.3617231E+03  0.7546771E-02  0.1085168E+00
         -4   -1    0    0    0  501 -0.00000000000E+00  0.00000000000E+00  0.66829823269E+02  0.66829823269E+02  0.00000000000E+00 0.  1.
         21   -1    0    0  501  502  0.00000000000E+00 -0.00000000000E+00 -0.10827721072E+04  0.10827721072E+04  0.00000000000E+00 0. -1.
         23    2    1    2    0    0 -0.14594507832E+03  0.13275190290E+02 -0.25824607171E+03  0.30999060844E+03  0.89033405000E+02 0.  0.
         23    2    1    2    0    0  0.18904433247E+03  0.42469042003E+02 -0.25958201508E+03  0.33653804851E+03  0.91288862232E+02 0.  0.
        -11    1    3    3    0    0 -0.11897259712E+03  0.22061942671E+02 -0.25394436922E+03  0.28129868616E+03  0.00000000000E+00 0.  1.
         11    1    3    3    0    0 -0.26972481201E+02 -0.87867523811E+01 -0.43017024868E+01  0.28691922275E+02  0.00000000000E+00 0. -1.
        -13    1    4    4    0    0  0.26890047593E+02  0.11565932904E+02 -0.42656390295E+00  0.29275030662E+02  0.00000000000E+00 0.  1.
         13    1    4    4    0    0  0.16215428488E+03  0.30903109099E+02 -0.25915545118E+03  0.30726301784E+03  0.00000000000E+00 0. -1.
         -4    1    1    2    0  502 -0.43099254156E+02 -0.55744232293E+02 -0.49811419717E+03  0.50307327356E+03  0.00000000000E+00 0.  1.
<scales pt_clust_5="13000.00000" pt_clust_6="13000.00000" pt_clust_7="13000.00000" pt_clust_8="13000.00000" pt_clust_9="13000.00000"></scales>
<clustering>
<clus scale="   89.033">  5  6 -1 -1</clus>
<clus scale="   91.289">  7  8 -1 -1</clus>
<clus scale="   70.463">  7  9 -1 -1</clus>
<clus scale="  171.473">  1  5  2 -1</clus>
<clus scale="  361.723">  2  5  1 -1</clus>
</clustering>
</event>
<event>
 9    1  0.3312826E-006  0.2026795E+03  0.7546771E-02  0.1173862E+00
          2   -1    0    0  502    0 -0.00000000000E+00  0.00000000000E+00  0.73770039956E+03  0.73770039956E+03  0.00000000000E+00 0. -1.
         21   -1    0    0  501  502  0.00000000000E+00 -0.00000000000E+00 -0.33111642759E+02  0.33111642759E+02  0.00000000000E+00 0.  1.
         23    2    1    2    0    0  0.13737636302E+02  0.58006831370E+02  0.25740814475E+03  0.27984412906E+03  0.92196900425E+02 0.  0.
         23    2    1    2    0    0 -0.27875697441E+02 -0.28155058475E+02  0.44720057663E+03  0.45793741953E+03  0.90269389288E+02 0.  0.
        -11    1    4    4    0    0  0.43299638548E+01 -0.55827823483E+02  0.26565306389E+03  0.27149041386E+03  0.00000000000E+00 0. -1.
         11    1    4    4    0    0 -0.32205661296E+02  0.27672765008E+02  0.18154751273E+03  0.18644700567E+03  0.00000000000E+00 0.  1.
        -13    1    3    3    0    0  0.30403907752E+02 -0.40611586457E+01  0.16154959085E+03  0.16443588696E+03  0.00000000000E+00 0. -1.
         13    1    3    3    0    0 -0.16666271450E+02  0.62067990016E+02  0.95858553900E+02  0.11540824210E+03  0.00000000000E+00 0.  1.
          2    1    1    2  501    0  0.14138061139E+02 -0.29851772895E+02 -0.19964575265E-01  0.33030493734E+02  0.00000000000E+00 0. -1.
<scales pt_clust_5="13000.00000" pt_clust_6="13000.00000" pt_clust_7="13000.00000" pt_clust_8="13000.00000" pt_clust_9="13000.00000"></scales>
<clustering>
<clus scale="   90.269">  5  6 -1 -1</clus>
<clus scale="   33.031">  5  9 -1 -1</clus>
<clus scale="   92.197">  7  8 -1 -1</clus>
<clus scale="  109.790">  1  7  2 -1</clus>
<clus scale="  202.680">  2  5  1 -1</clus>
</clustering>
</event>
<event>
 9    1  0.3312826E-006  0.3313562E+03  0.7546771E-02  0.1094774E+00
         21   -1    0    0  501  502  0.00000000000E+00  0.00000000000E+00  0.18645484209E+03  0.18645484209E+03  0.00000000000E+00 0. -1.
         -1   -1    0    0    0  501 -0.00000000000E+00 -0.00000000000E+00 -0.34127276114E+03  0.34127276114E+03  0.00000000000E+00 0.  1.
         23    2    1    2    0    0 -0.10804869981E+03 -0.98792839850E+02 -0.47932490517E+02  0.17955892598E+03  0.92246070469E+02 0.  0.
         23    2    1    2    0    0 -0.51912587127E+02 -0.16823432163E+02 -0.10920176638E+03  0.15078554450E+03  0.88505988926E+02 0.  0.
        -11    1    4    4    0    0 -0.21458180671E+02 -0.50262720276E+02 -0.80221945580E+02  0.97068816413E+02  0.00000000000E+00 0.  1.
         11    1    4    4    0    0 -0.30454406456E+02  0.33439288114E+02 -0.28979820805E+02  0.53716728083E+02  0.00000000000E+00 0. -1.
        -11    1    3    3    0    0 -0.30746207210E+02  0.15990834540E+02 -0.95603226510E+01  0.35950463366E+02  0.00000000000E+00 0.  1.
         11    1    3    3    0    0 -0.77302492603E+02 -0.11478367439E+03 -0.38372167866E+02  0.14360846262E+03  0.00000000000E+00 0. -1.
         -1    1    1    2    0  502  0.15996128694E+03  0.11561627201E+03  0.23163378525E+01  0.19738313275E+03  0.00000000000E+00 0.  1.
<scales pt_clust_5="13000.00000" pt_clust_6="13000.00000" pt_clust_7="13000.00000" pt_clust_8="13000.00000" pt_clust_9="13000.00000"></scales>
<clustering>
<clus scale="   88.506">  5  6 -1 -1</clus>
<clus scale="   92.246">  7  8 -1 -1</clus>
<clus scale="  173.043">  2  7  1 -1</clus>
<clus scale="  135.215">  5  9 -1 -1</clus>
<clus scale="  331.356">  1  5  2 -1</clus>
</clustering>
</event>
<event>
 9    1  0.3312826E-006  0.5549195E+03  0.7546771E-02  0.1049321E+00
         21   -1    0    0  501  502  0.00000000000E+00  0.00000000000E+00  0.19247540816E+03  0.19247540816E+03  0.00000000000E+00 0. -1.
          1   -1    0    0  502    0 -0.00000000000E+00 -0.00000000000E+00 -0.61734413009E+03  0.61734413009E+03  0.00000000000E+00 0. -1.
         23    2    1    2    0    0  0.63945503253E+01 -0.89214320117E+02 -0.37799065331E+02  0.13324092465E+03  0.91237544216E+02 0.  0.
         23    2    1    2    0    0  0.78978351589E+02  0.25293841456E+02 -0.50375361804E+03  0.51849791639E+03  0.90526367311E+02 0.  0.
        -11    1    3    3    0    0  0.33678756395E+02 -0.85943084735E+01  0.92807157611E+01  0.35975720361E+02  0.00000000000E+00 0.  1.
         11    1    3    3    0    0 -0.27284206070E+02 -0.80620011643E+02 -0.47079781092E+02  0.97265204292E+02  0.00000000000E+00 0. -1.
        -13    1    4    4    0    0  0.66805827596E+02 -0.24767784238E+02 -0.29206114612E+03  0.30062630426E+03  0.00000000000E+00 0. -1.
         13    1    4    4    0    0  0.12172523993E+02  0.50061625694E+02 -0.21169247192E+03  0.21787161214E+03  0.00000000000E+00 0.  1.
          1    1    1    2  501    0 -0.85372901914E+02  0.63920478661E+02  0.11668396144E+03  0.15808069721E+03  0.00000000000E+00 0. -1.
<scales pt_clust_5="13000.00000" pt_clust_6="13000.00000" pt_clust_7="13000.00000" pt_clust_8="13000.00000" pt_clust_9="13000.00000"></scales>
<clustering>
<clus scale="   90.526">  7  8 -1 -1</clus>
<clus scale="   91.238">  5  6 -1 -1</clus>
<clus scale="  106.651">  7  9 -1 -1</clus>
<clus scale="  127.767">  2  5  1 -1</clus>
<clus scale="  554.920">  1  5  2 -1</clus>
</clustering>
</event>
<event>
 9    1  0.3312826E-006  0.2000712E+03  0.7546771E-02  0.1183366E+00
          2   -1    0    0  502    0 -0.00000000000E+00  0.00000000000E+00  0.52395984009E+03  0.52395984009E+03  0.00000000000E+00 0. -1.
         21   -1    0    0  501  502  0.00000000000E+00 -0.00000000000E+00 -0.54948260359E+02  0.54948260359E+02  0.00000000000E+00 0. -1.
         23    2    1    2    0    0  0.18804587626E+02 -0.10770784523E+02  0.30982534369E+03  0.32323499185E+03  0.89551627851E+02 0.  0.
         23    2    1    2    0    0  0.93795032907E+01  0.41490087397E+02  0.18198875669E+03  0.20815496998E+03  0.91647048689E+02 0.  0.
        -11    1    4    4    0    0 -0.38160728261E+02  0.19594649616E+02  0.48375350417E+02  0.64655749960E+02  0.00000000000E+00 0.  1.
         11    1    4    4    0    0  0.47540231552E+02  0.21895437780E+02  0.13361340627E+03  0.14349922002E+03  0.00000000000E+00 0. -1.
        -13    1    3    3    0    0  0.14011852733E+02  0.36129299910E+02  0.83530741045E+02  0.92081719296E+02  0.00000000000E+00 0. -1.
         13    1    3    3    0    0  0.47927348933E+01 -0.46900084434E+02  0.22629460264E+03  0.23115327256E+03  0.00000000000E+00 0.  1.
          2    1    1    2  501    0 -0.28184090917E+02 -0.30719302873E+02 -0.22802520643E+02  0.47518138616E+02  0.00000000000E+00 0. -1.
<scales pt_clust_5="13000.00000" pt_clust_6="13000.00000" pt_clust_7="13000.00000" pt_clust_8="13000.00000" pt_clust_9="13000.00000"></scales>
<clustering>
<clus scale="   89.552">  7  8 -1 -1</clus>
<clus scale="   91.647">  5  6 -1 -1</clus>
<clus scale="   41.690">  5  9 -1 -1</clus>
<clus scale="   92.136">  1  7  2 -1</clus>
<clus scale="  200.071">  2  5  1 -1</clus>
</clustering>
</event>
<event>
 9    1  0.3312826E-006  0.2414797E+03  0.7546771E-02  0.1150732E+00
         21   -1    0    0  501  502  0.00000000000E+00  0.00000000000E+00  0.23729688565E+03  0.23729688565E+03  0.00000000000E+00 0.  1.
          2   -1    0    0  502    0 -0.00000000000E+00 -0.00000000000E+00 -0.16150865701E+03  0.16150865701E+03  0.00000000000E+00 0. -1.
         23    2    1    2    0    0  0.37986873859E+02  0.48949124061E+02  0.10839246032E+03  0.15513471685E+03  0.92080592889E+02 0.  0.
         23    2    1    2    0    0 -0.56421416171E+02  0.22907536088E+02 -0.94860394639E+02  0.14682537271E+03  0.94080094536E+02 0.  0.
        -11    1    3    3    0    0  0.29128932470E+01  0.44608941030E+02  0.11103322953E+03  0.11969469757E+03  0.00000000000E+00 0.  1.
         11    1    3    3    0    0  0.35073980612E+02  0.43401830307E+01 -0.26407692083E+01  0.35440019282E+02  0.00000000000E+00 0. -1.
        -13    1    4    4    0    0  0.85137299887E+01 -0.27566801430E+02 -0.33508060120E+02  0.44217668781E+02  0.00000000000E+00 0.  1.
         13    1    4    4    0    0 -0.64935146160E+02  0.50474337518E+02 -0.61352334519E+02  0.10260770393E+03  0.00000000000E+00 0. -1.
          2    1    1    2  501    0  0.18434542312E+02 -0.71856660149E+02  0.62256162958E+02  0.96845453090E+02  0.00000000000E+00 0. -1.
<scales pt_clust_5="13000.00000" pt_clust_6="13000.00000" pt_clust_7="13000.00000" pt_clust_8="13000.00000" pt_clust_9="13000.00000"></scales>
<clustering>
<clus scale="   92.081">  5  6 -1 -1</clus>
<clus scale="   94.080">  7  8 -1 -1</clus>
<clus scale="   74.184">  7  9 -1 -1</clus>
<clus scale="  110.986">  2  5  1 -1</clus>
<clus scale="  241.480">  1  5  2 -1</clus>
</clustering>
</event>
<event>
 9    1  0.3312826E-006  0.2808497E+03  0.7546771E-02  0.1102646E+00
         21   -1    0    0  501  502  0.00000000000E+00  0.00000000000E+00  0.31554020734E+03  0.31554020734E+03  0.00000000000E+00 0.  1.
         -2   -1    0    0    0  501 -0.00000000000E+00 -0.00000000000E+00 -0.20982322882E+03  0.20982322882E+03  0.00000000000E+00 0.  1.
         23    2    1    2    0    0  0.21152194247E+03  0.20940699477E+02  0.23720010799E+02  0.23278851584E+03  0.91911964156E+02 0.  0.
         23    2    1    2    0    0 -0.11172528424E+03 -0.68576380426E+02  0.40428355054E+01  0.15727755218E+03  0.86802216628E+02 0.  0.
        -11    1    3    3    0    0  0.71483434476E+02  0.32256842418E+02  0.45419988997E+02  0.90627593413E+02  0.00000000000E+00 0. -1.
         11    1    3    3    0    0  0.14003850799E+03 -0.11316142942E+02 -0.21699978198E+02  0.14216092243E+03  0.00000000000E+00 0.  1.
        -13    1    4    4    0    0 -0.87030823315E+02 -0.84581117239E+02  0.21223298033E+02  0.12320210217E+03  0.00000000000E+00 0.  1.
         13    1    4    4    0    0 -0.24694460921E+02  0.16004736814E+02 -0.17180462528E+02  0.34075450009E+02  0.00000000000E+00 0. -1.
         -2    1    1    2    0  502 -0.99796658234E+02  0.47635680949E+02  0.77954132222E+02  0.13529736814E+03  0.00000000000E+00 0.  1.
<scales pt_clust_5="13000.00000" pt_clust_6="13000.00000" pt_clust_7="13000.00000" pt_clust_8="13000.00000" pt_clust_9="13000.00000"></scales>
<clustering>
<clus scale="   86.802">  7  8 -1 -1</clus>
<clus scale="   91.912">  5  6 -1 -1</clus>
<clus scale="  110.583">  7  9 -1 -1</clus>
<clus scale="  231.577">  2  5  1 -1</clus>
<clus scale="  280.850">  1  5  2 -1</clus>
</clustering>
</event>
<event>
 9    1  0.3312826E-006  0.1726708E+03  0.7546771E-02  0.1198959E+00
          1   -1    0    0  502    0 -0.00000000000E+00  0.00000000000E+00  0.70824226596E+03  0.70824226596E+03  0.00000000000E+00 0. -1.
         21   -1    0    0  501  502  0.00000000000E+00 -0.00000000000E+00 -0.28530596272E+02  0.28530596272E+02  0.00000000000E+00 0. -1.
         23    2    1    2    0    0  0.16839352332E+02 -0.39312500297E+02  0.35171252965E+03  0.36609963711E+03  0.92185705556E+02 0.  0.
         23    2    1    2    0    0 -0.43529204726E+02 -0.24596614101E+02  0.19271046416E+03  0.21868720951E+03  0.90481973425E+02 0.  0.
        -13    1    3    3    0    0  0.50977635690E+02 -0.28838473039E+02  0.14598246197E+03  0.15729353474E+03  0.00000000000E+00 0. -1.
         13    1    3    3    0    0 -0.34138283358E+02 -0.10474027258E+02  0.20573006768E+03  0.20880610237E+03  0.00000000000E+00 0.  1.
        -13    1    4    4    0    0 -0.60610457709E+01  0.21384006639E+02  0.13182830417E+03  0.13368886938E+03  0.00000000000E+00 0.  1.
         13    1    4    4    0    0 -0.37468158955E+02 -0.45980620740E+02  0.60882159995E+02  0.84998340130E+02  0.00000000000E+00 0. -1.
          1    1    1    2  501    0  0.26689852394E+02  0.63909114398E+02  0.13528867587E+03  0.15198601562E+03  0.00000000000E+00 0. -1.
<scales pt_clust_5="13000.00000" pt_clust_6="13000.00000" pt_clust_7="13000.00000" pt_clust_8="13000.00000" pt_clust_9="13000.00000"></scales>
<clustering>
<clus scale="   90.482">  7  8 -1 -1</clus>
<clus scale="   69.258">  7  9 -1 -1</clus>
<clus scale="   92.186">  5  6 -1 -1</clus>
<clus scale="  101.623">  1  5  2 -1</clus>
<clus scale="  172.671">  2  5  1 -1</clus>
</clustering>
</event>
<event>
 9    1  0.3312826E-006  0.4582859E+03  0.7546771E-02  0.1076072E+00
         21   -1    0    0  501  502  0.00000000000E+00  0.00000000000E+00  0.25547219609E+03  0.25547219609E+03  0.00000000000E+00 0. -1.
          1   -1    0    0  502    0 -0.00000000000E+00 -0.00000000000E+00 -0.44764371004E+03  0.44764371004E+03  0.00000000000E+00 0. -1.
         23    2    1    2    0    0 -0.56550178850E+02  0.90243036997E+01 -0.21899599032E+03  0.24404565798E+03  0.91212272283E+02 0.  0.
         23    2    1    2    0    0  0.27187088990E+01  0.83348913158E+02 -0.18416128489E+03  0.22254196273E+03  0.93032863115E+02 0.  0.
        -11    1    3    3    0    0 -0.30919747254E+02 -0.40995223272E+02 -0.11092994568E+03  0.12223784991E+03  0.00000000000E+00 0. -1.
         11    1    3    3    0    0 -0.25630431596E+02  0.50019526971E+02 -0.10806604464E+03  0.12180780807E+03  0.00000000000E+00 0.  1.
        -13    1    4    4    0    0  0.33230428599E+02  0.87358174738E+02 -0.12785796178E+03  0.15837730414E+03  0.00000000000E+00 0. -1.
         13    1    4    4    0    0 -0.30511719700E+02 -0.40092615794E+01 -0.56303323115E+02  0.64164658584E+02  0.00000000000E+00 0.  1.
          1    1    1    2  501    0  0.53831469951E+02 -0.92373216858E+02  0.21098576126E+03  0.23652828542E+03  0.00000000000E+00 0. -1.
<scales pt_clust_5="13000.00000" pt_clust_6="13000.00000" pt_clust_7="13000.00000" pt_clust_8="13000.00000" pt_clust_9="13000.00000"></scales>
<clustering>
<clus scale="   91.212">  5  6 -1 -1</clus>
<clus scale="   93.033">  7  8 -1 -1</clus>
<clus scale="  106.914">  7  9 -1 -1</clus>
<clus scale="  107.699">  2  5  1 -1</clus>
<clus scale="  458.286">  1  5  2 -1</clus>
</clustering>
</event>
<event>
 9    1  0.3312826E-006  0.4671904E+03  0.7546771E-02  0.1027205E+00
         21   -1    0    0  501  502  0.00000000000E+00  0.00000000000E+00  0.21083888170E+03  0.21083888170E+03  0.00000000000E+00 0.  1.
          2   -1    0    0  502    0 -0.00000000000E+00 -0.00000000000E+00 -0.13161338437E+04  0.13161338437E+04  0.00000000000E+00 0.  1.
         23    2    1    2    0    0  0.31990119797E+03 -0.23789365982E+03 -0.95097696668E+03  0.10349555250E+04  0.88575265398E+02 0.  0.
         23    2    1    2    0    0 -0.36581965712E+02  0.45798252139E+02  0.13627646146E+02  0.11073492769E+03  0.92955857037E+02 0.  0.
        -13    1    3    3    0    0  0.16744921068E+03 -0.86344140510E+02 -0.36422872559E+03  0.41006964446E+03  0.00000000000E+00 0. -1.
         13    1    3    3    0    0  0.15245198729E+03 -0.15154951931E+03 -0.58674824109E+03  0.62488588050E+03  0.00000000000E+00 0.  1.
        -13    1    4    4    0    0 -0.48208690518E+02  0.12771993765E+02  0.42366347481E+02  0.65437825950E+02  0.00000000000E+00 0. -1.
         13    1    4    4    0    0  0.11626724806E+02  0.33026258374E+02 -0.28738701336E+02  0.45297101744E+02  0.00000000000E+00 0.  1.
          2    1    1    2  501    0 -0.28331923225E+03  0.19209540768E+03 -0.16794564144E+03  0.38128227273E+03  0.00000000000E+00 0.  1.
<scales pt_clust_5="13000.00000" pt_clust_6="13000.00000" pt_clust_7="13000.00000" pt_clust_8="13000.00000" pt_clust_9="13000.00000"></scales>
<clustering>
<clus scale="   88.575">  5  6 -1 -1</clus>
<clus scale="   92.956">  7  8 -1 -1</clus>
<clus scale="  342.302">  7  9 -1 -1</clus>
<clus scale="  408.382">  2  5  1 -1</clus>
<clus scale="  467.190">  1  5  2 -1</clus>
</clustering>
</event>
<event>
 9    1  0.3312826E-006  0.1775650E+03  0.7546771E-02  0.1189023E+00
         21   -1    0    0  501  502  0.00000000000E+00  0.00000000000E+00  0.80428337273E+02  0.80428337273E+02  0.00000000000E+00 0.  1.
          1   -1    0    0  502    0 -0.00000000000E+00 -0.00000000000E+00 -0.32419001641E+03  0.32419001641E+03  0.00000000000E+00 0. -1.
         23    2    1    2    0    0 -0.68479010441E+02  0.22280495980E+02 -0.18330665647E+03  0.21704399027E+03  0.91219340231E+02 0.  0.
         23    2    1    2    0    0  0.72467131775E+02 -0.58527750469E+02 -0.44103687369E+02  0.14761019527E+03  0.10567237929E+03 0.  0.
        -11    1    4    4    0    0 -0.54733470709E+01  0.23814190747E+02  0.34205917439E+01  0.24673338991E+02  0.00000000000E+00 0. -1.
         11    1    4    4    0    0  0.77940478846E+02 -0.82341941216E+02 -0.47524279113E+02  0.12293685628E+03  0.00000000000E+00 0.  1.
        -13    1    3    3    0    0 -0.11693628722E+02 -0.33118271337E+02 -0.39895860747E+02  0.53152991956E+02  0.00000000000E+00 0.  1.
         13    1    3    3    0    0 -0.56785381719E+02  0.55398767317E+02 -0.14341079573E+03  0.16389099831E+03  0.00000000000E+00 0. -1.
          1    1    1    2  501    0 -0.39881213340E+01  0.36247254490E+02 -0.16351335297E+02  0.39964168149E+02  0.00000000000E+00 0. -1.
<scales pt_clust_5="13000.00000" pt_clust_6="13000.00000" pt_clust_7="13000.00000" pt_clust_8="13000.00000" pt_clust_9="13000.00000"></scales>
<clustering>
<clus scale="   91.219">  7  8 -1 -1</clus>
<clus scale="  105.672">  5  6 -1 -1</clus>
<clus scale="   36.466">  5  9 -1 -1</clus>
<clus scale="  116.219">  2  7  1 -1</clus>
<clus scale="  177.565">  1  5  2 -1</clus>
</clustering>
</event>
<event>
 9    1  0.3312826E-006  0.3281750E+03  0.7546771E-02  0.1101447E+00
         21   -1    0    0  501  502  0.00000000000E+00  0.00000000000E+00  0.79346742577E+02  0.79346742577E+02  0.00000000000E+00 0.  1.
          1   -1    0    0  502    0 -0.00000000000E+00 -0.00000000000E+00 -0.91974273483E+03  0.91974273483E+03  0.00000000000E+00 0. -1.
         23    2    1    2    0    0 -0.11488539739E+03  0.26439314090E+02 -0.77457149890E+02  0.16856283116E+03  0.92282859284E+02 0.  0.
         23    2    1    2    0    0  0.71586401808E+02  0.11796604351E+03 -0.50889751029E+03  0.53512063966E+03  0.91306202811E+02 0.  0.
        -13    1    4    4    0    0  0.26547367493E+02  0.11528357231E+03 -0.40318116046E+03  0.42017866785E+03  0.00000000000E+00 0.  1.
         13    1    4    4    0    0  0.45039034315E+02  0.26824711989E+01 -0.10571634983E+03  0.11494197181E+03  0.00000000000E+00 0. -1.
        -13    1    3    3    0    0 -0.11535664781E+03  0.48908420052E+02 -0.55147341213E+02  0.13689565000E+03  0.00000000000E+00 0.  1.
         13    1    3    3    0    0  0.47125041967E+00 -0.22469105961E+02 -0.22309808677E+02  0.31667181164E+02  0.00000000000E+00 0. -1.
          1    1    1    2  501    0  0.43298995583E+02 -0.14440535760E+03 -0.25404133208E+03  0.29540600658E+03  0.00000000000E+00 0. -1.
<scales pt_clust_5="13000.00000" pt_clust_6="13000.00000" pt_clust_7="13000.00000" pt_clust_8="13000.00000" pt_clust_9="13000.00000"></scales>
<clustering>
<clus scale="   91.306">  5  6 -1 -1</clus>
<clus scale="   92.283">  7  8 -1 -1</clus>
<clus scale="  149.713">  2  7  1 -1</clus>
<clus scale="  135.339">  5  9 -1 -1</clus>
<clus scale="  328.175">  1  5  2 -1</clus>
</clustering>
</event>
<event>
 9    1  0.3312826E-006  0.1864149E+03  0.7546771E-02  0.1188298E+00
         -2   -1    0    0    0  501 -0.00000000000E+00  0.00000000000E+00  0.50283489686E+03  0.50283489686E+03  0.00000000000E+00 0.  1.
         21   -1    0    0  501  502  0.00000000000E+00 -0.00000000000E+00 -0.75583205511E+02  0.75583205511E+02  0.00000000000E+00 0. -1.
         23    2    1    2    0    0  0.19949714283E+02 -0.43523623383E+02  0.36938788109E+03  0.38322908246E+03  0.90137817003E+02 0.  0.
         23    2    1    2    0    0 -0.40048891510E+02 -0.28251443431E+02  0.62133566435E+02  0.12053067839E+03  0.90912081639E+02 0.  0.
        -13    1    3    3    0    0  0.70015865757E+01  0.27582767528E+02  0.78577281307E+02  0.83571648402E+02  0.00000000000E+00 0.  1.
         13    1    3    3    0    0  0.12948127708E+02 -0.71106390911E+02  0.29081059978E+03  0.29965743406E+03  0.00000000000E+00 0. -1.
        -13    1    4    4    0    0 -0.61605641018E+02 -0.41853056310E+02  0.31996455326E+02  0.81059894406E+02  0.00000000000E+00 0. -1.
         13    1    4    4    0    0  0.21556749508E+02  0.13601612879E+02  0.30137111110E+02  0.39470783984E+02  0.00000000000E+00 0.  1.
         -2    1    1    2    0  502  0.20099177226E+02  0.71775066815E+02 -0.42697561730E+01  0.74658341525E+02  0.00000000000E+00 0.  1.
<scales pt_clust_5="13000.00000" pt_clust_6="13000.00000" pt_clust_7="13000.00000" pt_clust_8="13000.00000" pt_clust_9="13000.00000"></scales>
<clustering>
<clus scale="   90.138">  5  6 -1 -1</clus>
<clus scale="   90.912">  7  8 -1 -1</clus>
<clus scale="   74.536">  7  9 -1 -1</clus>
<clus scale="  102.064">  1  5  2 -1</clus>
<clus scale="  186.415">  2  5  1 -1</clus>
</clustering>
</event>
<event>
 9    1  0.3312826E-006  0.1788324E+03  0.7546771E-02  0.1195423E+00
         21   -1    0    0  501  502  0.00000000000E+00  0.00000000000E+00  0.27752409031E+02  0.27752409031E+02  0.00000000000E+00 0. -1.
          1   -1    0    0  502    0 -0.00000000000E+00 -0.00000000000E+00 -0.73333796790E+03  0.73333796790E+03  0.00000000000E+00 0. -1.
         23    2    1    2    0    0  0.47571527097E+02 -0.16380905687E+02 -0.17238122513E+03  0.19869560880E+03  0.85048656174E+02 0.  0.
         23    2    1    2    0    0  0.31644186941E+02 -0.11287919080E+01 -0.31539334224E+03  0.32996553831E+03  0.91660609870E+02 0.  0.
        -11    1    4    4    0    0  0.22125260164E+02  0.39235915620E+02 -0.23736039339E+03  0.24159664849E+03  0.00000000000E+00 0.  1.
         11    1    4    4    0    0  0.95189267772E+01 -0.40364707528E+02 -0.78032948847E+02  0.88368889812E+02  0.00000000000E+00 0. -1.
        -11    1    3    3    0    0 -0.13769721328E+02  0.15224955661E+02 -0.84513399294E+02  0.86970794872E+02  0.00000000000E+00 0.  1.
         11    1    3    3    0    0  0.61341248425E+02 -0.31605861348E+02 -0.87867825834E+02  0.11172481393E+03  0.00000000000E+00 0. -1.
          1    1    1    2  501    0 -0.79215714038E+02  0.17509697595E+02 -0.21781099150E+03  0.23242922983E+03  0.00000000000E+00 0. -1.
<scales pt_clust_5="13000.00000" pt_clust_6="13000.00000" pt_clust_7="13000.00000" pt_clust_8="13000.00000" pt_clust_9="13000.00000"></scales>
<clustering>
<clus scale="   85.049">  7  8 -1 -1</clus>
<clus scale="   91.661">  5  6 -1 -1</clus>
<clus scale="   81.128">  5  9 -1 -1</clus>
<clus scale="   98.816">  2  7  1 -1</clus>
<clus scale="  178.832">  1  5  2 -1</clus>
</clustering>
</event>
<event>
 9    1  0.3312826E-006  0.3845480E+03  0.7546771E-02  0.1091368E+00
         -1   -1    0    0    0  501 -0.00000000000E+00  0.00000000000E+00  0.46958496941E+03  0.46958496941E+03  0.00000000000E+00 0.  1.
         21   -1    0    0  501  502  0.00000000000E+00 -0.00000000000E+00 -0.13721557693E+03  0.13721557693E+03  0.00000000000E+00 0.  1.
         23    2    1    2    0    0  0.34608790270E+01 -0.81582878113E+02  0.56984036793E+02  0.13381609998E+03  0.89397004872E+02 0.  0.
         23    2    1    2    0    0  0.62895247704E+02 -0.27513959567E+02  0.31819878851E+03  0.33830614233E+03  0.92128968138E+02 0.  0.
        -11    1    3    3    0    0  0.19054138073E+02 -0.47418210114E+02  0.76107300436E+02  0.91672613183E+02  0.00000000000E+00 0.  1.
         11    1    3    3    0    0 -0.15593259046E+02 -0.34164667999E+02 -0.19123263643E+02  0.42143486798E+02  0.00000000000E+00 0. -1.
        -13    1    4    4    0    0 -0.21556750412E+02 -0.16842022296E+02  0.11060302091E+03  0.11393583913E+03  0.00000000000E+00 0.  1.
         13    1    4    4    0    0  0.84451998116E+02 -0.10671937271E+02  0.20759576760E+03  0.22437030320E+03  0.00000000000E+00 0. -1.
         -1    1    1    2    0  502 -0.66356126731E+02  0.10909683768E+03 -0.42813432830E+02  0.13467830403E+03  0.00000000000E+00 0.  1.
<scales pt_clust_5="13000.00000" pt_clust_6="13000.00000" pt_clust_7="13000.00000" pt_clust_8="13000.00000" pt_clust_9="13000.00000"></scales>
<clustering>
<clus scale="   89.397">  5  6 -1 -1</clus>
<clus scale="   92.129">  7  8 -1 -1</clus>
<clus scale="  121.077">  1  5  2 -1</clus>
<clus scale="  119.014">  7  9 -1 -1</clus>
<clus scale="  384.548">  2  5  1 -1</clus>
</clustering>
</event>
<event>
 9    1  0.3312826E-006  0.4050494E+03  0.7546771E-02  0.1089405E+00
         21   -1    0    0  501  502  0.00000000000E+00  0.00000000000E+00  0.37722136436E+03  0.37722136436E+03  0.00000000000E+00 0.  1.
          2   -1    0    0  502    0 -0.00000000000E+00 -0.00000000000E+00 -0.27383434885E+03  0.27383434885E+03  0.00000000000E+00 0.  1.
         23    2    1    2    0    0 -0.41095804380E+02 -0.60055865780E+02 -0.14076906934E+03  0.17811045296E+03  0.81313162634E+02 0.  0.
         23    2    1    2    0    0 -0.11051047061E+02  0.20934019949E+02 -0.91088030510E+02  0.13142157174E+03  0.91729174123E+02 0.  0.
        -11    1    3    3    0    0 -0.38390281708E+02  0.91612581246E+01 -0.44059700618E+02  0.59152342292E+02  0.00000000000E+00 0. -1.
         11    1    3    3    0    0 -0.27055226720E+01 -0.69217123905E+02 -0.96709368721E+02  0.11895811067E+03  0.00000000000E+00 0.  1.
        -11    1    4    4    0    0  0.13825765984E+02 -0.32209767002E+02 -0.25063371063E+02  0.43090526388E+02  0.00000000000E+00 0.  1.
         11    1    4    4    0    0 -0.24876813045E+02  0.53143786951E+02 -0.66024659446E+02  0.88331045356E+02  0.00000000000E+00 0. -1.
          2    1    1    2  501    0  0.52146851441E+02  0.39121845831E+02  0.33524411536E+03  0.34152368852E+03  0.00000000000E+00 0.  1.
<scales pt_clust_5="13000.00000" pt_clust_6="13000.00000" pt_clust_7="13000.00000" pt_clust_8="13000.00000" pt_clust_9="13000.00000"></scales>
<clustering>
<clus scale="   81.313">  5  6 -1 -1</clus>
<clus scale="   91.729">  7  8 -1 -1</clus>
<clus scale="   65.191">  7  9 -1 -1</clus>
<clus scale="  109.121">  2  5  1 -1</clus>
<clus scale="  405.049">  1  5  2 -1</clus>
</clustering>
</event>
<event>
 9    1  0.3312826E-006  0.2109076E+03  0.7546771E-02  0.1169407E+00
         21   -1    0    0  501  502  0.00000000000E+00  0.00000000000E+00  0.14532887865E+03  0.14532887865E+03  0.00000000000E+00 0. -1.
         -3   -1    0    0    0  501 -0.00000000000E+00 -0.00000000000E+00 -0.17632643012E+03  0.17632643012E+03  0.00000000000E+00 0.  1.
         23    2    1    2    0    0 -0.57515962577E+02  0.63626708429E+01 -0.24732480206E+02  0.11065466381E+03  0.91017523111E+02 0.  0.
         23    2    1    2    0    0 -0.38914646021E+02 -0.88920315282E+01 -0.41822047935E+02  0.10819228670E+03  0.91449818525E+02 0.  0.
        -11    1    3    3    0    0 -0.33192046633E+02 -0.83340967831E+01 -0.57726758932E+02  0.67108478046E+02  0.00000000000E+00 0.  1.
         11    1    3    3    0    0 -0.24323915944E+02  0.14696767626E+02  0.32994278726E+02  0.43546185759E+02  0.00000000000E+00 0. -1.
        -11    1    4    4    0    0 -0.64442552339E+02 -0.17144578701E+01 -0.76195564027E+01  0.64914093674E+02  0.00000000000E+00 0. -1.
         11    1    4    4    0    0  0.25527906318E+02 -0.71775736581E+01 -0.34202491532E+02  0.43278193026E+02  0.00000000000E+00 0.  1.
         -3    1    1    2    0  502  0.96430608599E+02  0.25293606853E+01  0.35556976665E+02  0.10280835827E+03  0.00000000000E+00 0.  1.
<scales pt_clust_5="13000.00000" pt_clust_6="13000.00000" pt_clust_7="13000.00000" pt_clust_8="13000.00000" pt_clust_9="13000.00000"></scales>
<clustering>
<clus scale="   91.018">  5  6 -1 -1</clus>
<clus scale="   91.450">  7  8 -1 -1</clus>
<clus scale="   96.464">  7  9 -1 -1</clus>
<clus scale="  107.855">  2  5  1 -1</clus>
<clus scale="  210.908">  1  5  2 -1</clus>
</clustering>
</event>
<event>
 9    1  0.3312826E-006  0.3702921E+03  0.7546771E-02  0.1082963E+00
         21   -1    0    0  501  502  0.00000000000E+00  0.00000000000E+00  0.36763840357E+03  0.36763840357E+03  0.00000000000E+00 0. -1.
          3   -1    0    0  502    0 -0.00000000000E+00 -0.00000000000E+00 -0.28051103378E+03  0.28051103378E+03  0.00000000000E+00 0. -1.
         23    2    1    2    0    0  0.10809219295E+03 -0.93748657763E+02 -0.13466045800E+03  0.21651756907E+03  0.90959802968E+02 0.  0.
         23    2    1    2    0    0  0.85231446476E+02 -0.39569224712E+02  0.82847777727E+02  0.15877288480E+03  0.97544613700E+02 0.  0.
        -13    1    3    3    0    0  0.77386843254E+02 -0.95350816813E+01 -0.46464226850E+02  0.90766544873E+02  0.00000000000E+00 0.  1.
         13    1    3    3    0    0  0.30705349700E+02 -0.84213576081E+02 -0.88196231153E+02  0.12575102420E+03  0.00000000000E+00 0. -1.
        -13    1    4    4    0    0  0.66609836113E+01 -0.39571645783E+02 -0.55430609418E+01  0.40509373943E+02  0.00000000000E+00 0. -1.
         13    1    4    4    0    0  0.78570462865E+02  0.24210710017E-02  0.88390838669E+02  0.11826351086E+03  0.00000000000E+00 0.  1.
          3    1    1    2  501    0 -0.19332363943E+03  0.13331788247E+03  0.13894005007E+03  0.27285898348E+03  0.00000000000E+00 0. -1.
<scales pt_clust_5="13000.00000" pt_clust_6="13000.00000" pt_clust_7="13000.00000" pt_clust_8="13000.00000" pt_clust_9="13000.00000"></scales>
<clustering>
<clus scale="   90.960">  5  6 -1 -1</clus>
<clus scale="   97.545">  7  8 -1 -1</clus>
<clus scale="  169.548">  2  5  1 -1</clus>
<clus scale="  144.435">  7  9 -1 -1</clus>
<clus scale="  370.292">  1  5  2 -1</clus>
</clustering>
</event>
<event>
 9    1  0.3312826E-006  0.2187115E+03  0.7546771E-02  0.1170444E+00
          3   -1    0    0  502    0 -0.00000000000E+00  0.00000000000E+00  0.17233483505E+03  0.17233483505E+03  0.00000000000E+00 0. -1.
         21   -1    0    0  501  502  0.00000000000E+00 -0.00000000000E+00 -0.24561389379E+03  0.24561389379E+03  0.00000000000E+00 0.  1.
         23    2    1    2    0    0 -0.17446442617E+02 -0.86112058937E+01 -0.15744457022E+03  0.18360167825E+03  0.92424305981E+02 0.  0.
         23    2    1    2    0    0 -0.30366394784E+02  0.23376815136E+02  0.13003012375E+03  0.16646735337E+03  0.96617561747E+02 0.  0.
        -11    1    3    3    0    0 -0.30576058461E+02  0.36005740691E+02 -0.68133557415E+02  0.82906515786E+02  0.00000000000E+00 0. -1.
         11    1    3    3    0    0  0.13129615843E+02 -0.44616946584E+02 -0.89311012806E+02  0.10069516246E+03  0.00000000000E+00 0.  1.
        -11    1    4    4    0    0 -0.14224722694E+02 -0.37501064671E+02  0.40460212512E+02  0.56971057421E+02  0.00000000000E+00 0.  1.
         11    1    4    4    0    0 -0.16141672091E+02  0.60877879807E+02  0.89569911236E+02  0.10949629595E+03  0.00000000000E+00 0. -1.
          3    1    1    2  501    0  0.47812837401E+02 -0.14765609243E+02 -0.45864612261E+02  0.67879697219E+02  0.00000000000E+00 0. -1.
<scales pt_clust_5="13000.00000" pt_clust_6="13000.00000" pt_clust_7="13000.00000" pt_clust_8="13000.00000" pt_clust_9="13000.00000"></scales>
<clustering>
<clus scale="   92.424">  5  6 -1 -1</clus>
<clus scale="   94.450">  1  5  2 -1</clus>
<clus scale="   96.618">  7  8 -1 -1</clus>
<clus scale="   49.073">  7  9 -1 -1</clus>
<clus scale="  218.711">  2  5  1 -1</clus>
</clustering>
</event>
<event>
 9    1  0.3312826E-006  0.3030915E+03  0.7546771E-02  0.1106201E+00
         -2   -1    0    0    0  501 -0.00000000000E+00  0.00000000000E+00  0.13586777795E+03  0.13586777795E+03  0.00000000000E+00 0.  1.
         21   -1    0    0  501  502  0.00000000000E+00 -0.00000000000E+00 -0.40932044378E+03  0.40932044378E+03  0.00000000000E+00 0. -1.
         23    2    1    2    0    0  0.51344503206E+02  0.13432581018E+03 -0.86579772822E+02  0.18911807152E+03  0.87120070138E+02 0.  0.
         23    2    1    2    0    0  0.40741141870E+02 -0.17097960202E+03 -0.89880132156E+02  0.21739476616E+03  0.91039448866E+02 0.  0.
        -11    1    4    4    0    0  0.42393929798E+01 -0.61756658022E+02  0.12677457232E+02  0.63186827621E+02  0.00000000000E+00 0.  1.
         11    1    4    4    0    0  0.36501748890E+02 -0.10922294399E+03 -0.10255758939E+03  0.15420793854E+03  0.00000000000E+00 0. -1.
        -11    1    3    3    0    0 -0.42206921876E+01  0.10540148845E+03 -0.53487914237E+02  0.11827191120E+03  0.00000000000E+00 0. -1.
         11    1    3    3    0    0  0.55565195394E+02  0.28924321739E+02 -0.33091858585E+02  0.70846160318E+02  0.00000000000E+00 0.  1.
         -2    1    1    2    0  502 -0.92085645076E+02  0.36653791832E+02 -0.96992760849E+02  0.13867538405E+03  0.00000000000E+00 0.  1.
<scales pt_clust_5="13000.00000" pt_clust_6="13000.00000" pt_clust_7="13000.00000" pt_clust_8="13000.00000" pt_clust_9="13000.00000"></scales>
<clustering>
<clus scale="   87.120">  7  8 -1 -1</clus>
<clus scale="   91.039">  5  6 -1 -1</clus>
<clus scale="   99.112">  5  9 -1 -1</clus>
<clus scale="  168.136">  1  7  2 -1</clus>
<clus scale="  303.092">  2  5  1 -1</clus>
</clustering>
</event>
<event>
 9    1  0.3312826E-006  0.1281929E+04  0.7546771E-02  0.9703877E-01
          2   -1    0    0  502    0 -0.00000000000E+00  0.00000000000E+00  0.47888794098E+03  0.47888794098E+03  0.00000000000E+00 0. -1.
         21   -1    0    0  501  502  0.00000000000E+00 -0.00000000000E+00 -0.10290029866E+04  0.10290029866E+04  0.00000000000E+00 0. -1.
         23    2    1    2    0    0  0.84101003880E+01  0.77178470963E+02 -0.74638015274E+02  0.14062341559E+03  0.90426022361E+02 0.  0.
         23    2    1    2    0    0  0.36486510087E+03  0.45384175635E+03 -0.64462247837E+02  0.59899021235E+03  0.12463952604E+03 0.  0.
        -11    1    4    4    0    0  0.20303067588E+03  0.21369172257E+03  0.25195613723E+02  0.29583851439E+03  0.00000000000E+00 0.  1.
         11    1    4    4    0    0  0.16183442499E+03  0.24015003378E+03 -0.89657861560E+02  0.30315169796E+03  0.00000000000E+00 0. -1.
        -13    1    3    3    0    0  0.96339854194E+01 -0.19875662204E+02 -0.12588078415E+02  0.25422732766E+02  0.00000000000E+00 0. -1.
         13    1    3    3    0    0 -0.12238850314E+01  0.97054133167E+02 -0.62049936859E+02  0.11520068283E+03  0.00000000000E+00 0.  1.
          2    1    1    2  501    0 -0.37327520126E+03 -0.53102022731E+03 -0.41101478249E+03  0.76827729962E+03  0.00000000000E+00 0. -1.
<scales pt_clust_5="13000.00000" pt_clust_6="13000.00000" pt_clust_7="13000.00000" pt_clust_8="13000.00000" pt_clust_9="13000.00000"></scales>
<clustering>
<clus scale="   90.426">  7  8 -1 -1</clus>
<clus scale="  119.181">  1  7  2 -1</clus>
<clus scale="  124.640">  5  6 -1 -1</clus>
<clus scale="  622.039">  5  9 -1 -1</clus>
<clus scale=" 1281.929">  2  5  1 -1</clus>
</clustering>
</event>
<event>
 9    1  0.3312826E-006  0.4171668E+03  0.7546771E-02  0.1087640E+00
          3   -1    0    0  502    0 -0.00000000000E+00  0.00000000000E+00  0.73050921274E+03  0.73050921274E+03  0.00000000000E+00 0. -1.
         21   -1    0    0  501  502  0.00000000000E+00 -0.00000000000E+00 -0.93228013638E+02  0.93228013638E+02  0.00000000000E+00 0. -1.
         23    2    1    2    0    0 -0.43980626381E+02  0.29414393881E+02  0.13422183806E+03  0.17021075276E+03  0.90314431177E+02 0.  0.
         23    2    1    2    0    0  0.11430559622E+03 -0.15041433691E+03  0.46261717263E+03  0.50784820413E+03  0.90580946978E+02 0.  0.
        -11    1    4    4    0    0  0.58266893534E+01 -0.79491593002E+02  0.16547227361E+03  0.18366800756E+03  0.00000000000E+00 0.  1.
         11    1    4    4    0    0  0.10847890687E+03 -0.70922743906E+02  0.29714489901E+03  0.32418019657E+03  0.00000000000E+00 0. -1.
        -11    1    3    3    0    0  0.24667785681E+02  0.23492777779E+02  0.30716842264E+02  0.45868667485E+02  0.00000000000E+00 0.  1.
         11    1    3    3    0    0 -0.68648412062E+02  0.59216161018E+01  0.10350499580E+03  0.12434208528E+03  0.00000000000E+00 0. -1.
          3    1    1    2  501    0 -0.70324969842E+02  0.12099994303E+03  0.40442188410E+02  0.14567826948E+03  0.00000000000E+00 0. -1.
<scales pt_clust_5="13000.00000" pt_clust_6="13000.00000" pt_clust_7="13000.00000" pt_clust_8="13000.00000" pt_clust_9="13000.00000"></scales>
<clustering>
<clus scale="   90.314">  7  8 -1 -1</clus>
<clus scale="   90.581">  5  6 -1 -1</clus>
<clus scale="  104.672">  1  7  2 -1</clus>
<clus scale="  147.648">  5  9 -1 -1</clus>
<clus scale="  417.167">  2  5  1 -1</clus>
</clustering>
</event>
<event>
 9    1  0.3312826E-006  0.2495915E+03  0.7546771E-02  0.1131131E+00
         21   -1    0    0  501  502  0.00000000000E+00  0.00000000000E+00  0.19210305708E+03  0.19210305708E+03  0.00000000000E+00 0. -1.
          1   -1    0    0  502    0 -0.00000000000E+00 -0.00000000000E+00 -0.24919248745E+03  0.24919248745E+03  0.00000000000E+00 0. -1.
         23    2    1    2    0    0 -0.80887983619E+02  0.98871053211E+02 -0.97657420888E+02  0.18842864400E+03  0.98234571154E+02 0.  0.
         23    2    1    2    0    0 -0.15812762917E+02  0.23019964296E+02  0.56452884798E+00  0.92215938886E+02  0.87883436804E+02 0.  0.
        -13    1    4    4    0    0 -0.64927622972E+01 -0.33013929856E+02  0.89009817386E+01  0.34803778569E+02  0.00000000000E+00 0.  1.
         13    1    4    4    0    0 -0.93200006199E+01  0.56033894152E+02 -0.83364528906E+01  0.57412160316E+02  0.00000000000E+00 0. -1.
        -13    1    3    3    0    0 -0.14698351370E+02 -0.19114340946E+02 -0.25537321880E+02  0.35121992705E+02  0.00000000000E+00 0.  1.
         13    1    3    3    0    0 -0.66189632249E+02  0.11798539416E+03 -0.72120099008E+02  0.15330665130E+03  0.00000000000E+00 0. -1.
          1    1    1    2  501    0  0.96700746536E+02 -0.12189101751E+03  0.40003461666E+02  0.16065096164E+03  0.00000000000E+00 0. -1.
<scales pt_clust_5="13000.00000" pt_clust_6="13000.00000" pt_clust_7="13000.00000" pt_clust_8="13000.00000" pt_clust_9="13000.00000"></scales>
<clustering>
<clus scale="   87.883">  5  6 -1 -1</clus>
<clus scale="   98.235">  7  8 -1 -1</clus>
<clus scale="  155.591">  5  9 -1 -1</clus>
<clus scale="  161.147">  2  7  1 -1</clus>
<clus scale="  249.591">  1  5  2 -1</clus>
</clustering>
</event>
<event>
 9    1  0.3312826E-006  0.2336203E+03  0.7546771E-02  0.1154307E+00
         21   -1    0    0  501  502  0.00000000000E+00  0.00000000000E+00  0.30829349184E+03  0.30829349184E+03  0.00000000000E+00 0.  1.
         -1   -1    0    0    0  501 -0.00000000000E+00 -0.00000000000E+00 -0.97276663791E+02  0.97276663791E+02  0.00000000000E+00 0.  1.
         23    2    1    2    0    0  0.56074368507E+02 -0.33541785015E+02  0.64699417269E+02  0.12991234974E+03  0.91770462968E+02 0.  0.
         23    2    1    2    0    0 -0.43976989368E+02 -0.13989972529E+02 -0.17911394356E+02  0.10426143781E+03  0.91760200745E+02 0.  0.
        -11    1    4    4    0    0  0.27946454903E+02  0.42232564571E+01 -0.16840478208E+01  0.28313888002E+02  0.00000000000E+00 0. -1.
         11    1    4    4    0    0 -0.71923444271E+02 -0.18213228986E+02 -0.16227346535E+02  0.75947549806E+02  0.00000000000E+00 0.  1.
        -11    1    3    3    0    0 -0.32283617445E+01 -0.50782440001E+02  0.28273872124E+02  0.58212458949E+02  0.00000000000E+00 0.  1.
         11    1    3    3    0    0  0.59302730252E+02  0.17240654986E+02  0.36425545145E+02  0.71699890786E+02  0.00000000000E+00 0. -1.
         -1    1    1    2    0  502 -0.12097379139E+02  0.47531757544E+02  0.16422880513E+03  0.17139636808E+03  0.00000000000E+00 0.  1.
<scales pt_clust_5="13000.00000" pt_clust_6="13000.00000" pt_clust_7="13000.00000" pt_clust_8="13000.00000" pt_clust_9="13000.00000"></scales>
<clustering>
<clus scale="   91.760">  5  6 -1 -1</clus>
<clus scale="   49.047">  5  9 -1 -1</clus>
<clus scale="   91.770">  7  8 -1 -1</clus>
<clus scale="  112.655">  2  7  1 -1</clus>
<clus scale="  233.620">  1  5  2 -1</clus>
</clustering>
</event>
<event>
 9    1  0.3312826E-006  0.2186312E+03  0.7546771E-02  0.1171613E+00
          1   -1    0    0  502    0 -0.00000000000E+00  0.00000000000E+00  0.69170619939E+03  0.69170619939E+03  0.00000000000E+00 0. -1.
         21   -1    0    0  501  502  0.00000000000E+00 -0.00000000000E+00 -0.36199254472E+02  0.36199254472E+02  0.00000000000E+00 0. -1.
         23    2    1    2    0    0 -0.14305018006E+02 -0.71922147763E+01  0.26254065897E+03  0.27821431265E+03  0.90660049930E+02 0.  0.
         23    2    1    2    0    0  0.12801516720E+01  0.25002787036E+02  0.40691269684E+03  0.42358815280E+03  0.11498783497E+03 0.  0.
        -11    1    4    4    0    0  0.31830430775E+02  0.61971867468E+02  0.24731349107E+03  0.25693900355E+03  0.00000000000E+00 0. -1.
         11    1    4    4    0    0 -0.30550279103E+02 -0.36969080432E+02  0.15959920577E+03  0.16664914924E+03  0.00000000000E+00 0.  1.
        -13    1    3    3    0    0  0.26149431041E+02 -0.30853890015E+02  0.16659550200E+03  0.17143458391E+03  0.00000000000E+00 0. -1.
         13    1    3    3    0    0 -0.40454449047E+02  0.23661675239E+02  0.95945156973E+02  0.10677972874E+03  0.00000000000E+00 0.  1.
          1    1    1    2  501    0  0.13024866334E+02 -0.17810572260E+02 -0.13946410900E+02  0.26102988416E+02  0.00000000000E+00 0. -1.
<scales pt_clust_5="13000.00000" pt_clust_6="13000.00000" pt_clust_7="13000.00000" pt_clust_8="13000.00000" pt_clust_9="13000.00000"></scales>
<clustering>
<clus scale="   90.660">  7  8 -1 -1</clus>
<clus scale="   92.063">  1  7  2 -1</clus>
<clus scale="  114.988">  5  6 -1 -1</clus>
<clus scale="   22.028">  5  9 -1 -1</clus>
<clus scale="  218.631">  2  5  1 -1</clus>
</clustering>
</event>
<event>
 9    1  0.3312826E-006  0.1528314E+03  0.7546771E-02  0.1217620E+00
          1   -1    0    0  502    0 -0.00000000000E+00  0.00000000000E+00  0.39524891532E+03  0.39524891532E+03  0.00000000000E+00 0. -1.
         21   -1    0    0  501  502  0.00000000000E+00 -0.00000000000E+00 -0.40279641487E+02  0.40279641487E+02  0.00000000000E+00 0. -1.
         23    2    1    2    0    0  0.17797045852E+02  0.38398647012E+02  0.16040379764E+03  0.18811564906E+03  0.88695705589E+02 0.  0.
         23    2    1    2    0    0 -0.56560536433E+02 -0.30746761665E+02  0.14808707200E+03  0.18640961597E+03  0.93135956528E+02 0.  0.
        -11    1    4    4    0    0 -0.25916348958E+02 -0.58028309761E+02  0.12264440478E+03  0.13813251573E+03  0.00000000000E+00 0. -1.
         11    1    4    4    0    0 -0.30644187475E+02  0.27281548096E+02  0.25442667213E+02  0.48277100239E+02  0.00000000000E+00 0.  1.
        -11    1    3    3    0    0  0.34298373569E+02 -0.18367288751E+02  0.70356345891E+02  0.80397457252E+02  0.00000000000E+00 0.  1.
         11    1    3    3    0    0 -0.16501327717E+02  0.56765935763E+02  0.90047451754E+02  0.10771819181E+03  0.00000000000E+00 0. -1.
          1    1    1    2  501    0  0.38763490581E+02 -0.76518853472E+01  0.46478404193E+02  0.61003291778E+02  0.00000000000E+00 0. -1.
<scales pt_clust_5="13000.00000" pt_clust_6="13000.00000" pt_clust_7="13000.00000" pt_clust_8="13000.00000" pt_clust_9="13000.00000"></scales>
<clustering>
<clus scale="   88.696">  7  8 -1 -1</clus>
<clus scale="   93.136">  5  6 -1 -1</clus>
<clus scale="   39.512">  5  9 -1 -1</clus>
<clus scale="   98.276">  1  7  2 -1</clus>
<clus scale="  152.831">  2  5  1 -1</clus>
</clustering>
</event>
<event>
 9    1  0.3312826E-006  0.3023897E+03  0.7546771E-02  0.1120482E+00
         -3   -1    0    0    0  501 -0.00000000000E+00  0.00000000000E+00  0.77309916770E+02  0.77309916770E+02  0.00000000000E+00 0.  1.
         21   -1    0    0  501  502  0.00000000000E+00 -0.00000000000E+00 -0.58020539743E+03  0.58020539743E+03  0.00000000000E+00 0.  1.
         23    2    1    2    0    0 -0.56459511495E+02  0.47373536505E+02 -0.17940202476E+03  0.21469754679E+03  0.92076173414E+02 0.  0.
         23    2    1    2    0    0 -0.35044882070E+02  0.45756639599E+02 -0.15884259031E+02  0.10864759857E+03  0.90720323872E+02 0.  0.
        -11    1    4    4    0    0 -0.30508248259E+02  0.73135230119E+02 -0.16254203409E+02  0.80893227311E+02  0.00000000000E+00 0.  1.
         11    1    4    4    0    0 -0.45366338109E+01 -0.27378590520E+02  0.36994437805E+00  0.27754371260E+02  0.00000000000E+00 0. -1.
        -11    1    3    3    0    0 -0.15907339588E+02  0.69016602616E+02 -0.93818246343E+02  0.11755083256E+03  0.00000000000E+00 0.  1.
         11    1    3    3    0    0 -0.40552171907E+02 -0.21643066111E+02 -0.85583778419E+02  0.97146714229E+02  0.00000000000E+00 0. -1.
         -3    1    1    2    0  502  0.91504393565E+02 -0.93130176104E+02 -0.30760919687E+03  0.33417016884E+03  0.00000000000E+00 0.  1.
<scales pt_clust_5="13000.00000" pt_clust_6="13000.00000" pt_clust_7="13000.00000" pt_clust_8="13000.00000" pt_clust_9="13000.00000"></scales>
<clustering>
<clus scale="   90.720">  5  6 -1 -1</clus>
<clus scale="   92.076">  7  8 -1 -1</clus>
<clus scale="  117.941">  1  7  2 -1</clus>
<clus scale="  114.242">  5  9 -1 -1</clus>
<clus scale="  302.390">  2  5  1 -1</clus>
</clustering>
</event>
<event>
 9    1  0.3312826E-006  0.3987123E+03  0.7546771E-02  0.1089259E+00
         -3   -1    0    0    0  501 -0.00000000000E+00  0.00000000000E+00  0.53030635328E+03  0.53030635328E+03  0.00000000000E+00 0.  1.
         21   -1    0    0  501  502  0.00000000000E+00 -0.00000000000E+00 -0.12640514855E+03  0.12640514855E+03  0.00000000000E+00 0.  1.
         23    2    1    2    0    0 -0.61058109737E+02 -0.21334664616E+02  0.12727699140E+03  0.17143586971E+03  0.94908188278E+02 0.  0.
         23    2    1    2    0    0 -0.89430656026E+01  0.16514295400E+03  0.29238418672E+02  0.19068995692E+03  0.90308365426E+02 0.  0.
        -13    1    4    4    0    0  0.35268439955E+02  0.11373742992E+03  0.68119865783E+01  0.11927476256E+03  0.00000000000E+00 0.  1.
         13    1    4    4    0    0 -0.44211505557E+02  0.51405524074E+02  0.22426432094E+02  0.71415194360E+02  0.00000000000E+00 0. -1.
        -13    1    3    3    0    0 -0.84743528346E+02 -0.20379181332E+02  0.11623999365E+03  0.14528768961E+03  0.00000000000E+00 0.  1.
         13    1    3    3    0    0  0.23685418609E+02 -0.95548328378E+00  0.11036997757E+02  0.26148180099E+02  0.00000000000E+00 0. -1.
         -3    1    1    2    0  502  0.70001175339E+02 -0.14380828938E+03  0.24738579465E+03  0.29458567521E+03  0.00000000000E+00 0.  1.
<scales pt_clust_5="13000.00000" pt_clust_6="13000.00000" pt_clust_7="13000.00000" pt_clust_8="13000.00000" pt_clust_9="13000.00000"></scales>
<clustering>
<clus scale="   90.308">  5  6 -1 -1</clus>
<clus scale="   94.908">  7  8 -1 -1</clus>
<clus scale="  114.851">  1  7  2 -1</clus>
<clus scale="  161.189">  5  9 -1 -1</clus>
<clus scale="  398.712">  2  5  1 -1</clus>
</clustering>
</event>
<event>
 9    1  0.3312826E-006  0.2260673E+03  0.7546771E-02  0.1136838E+00
         21   -1    0    0  501  502  0.00000000000E+00  0.00000000000E+00  0.64416647002E+02  0.64416647002E+02  0.00000000000E+00 0. -1.
          1   -1    0    0  502    0 -0.00000000000E+00 -0.00000000000E+00 -0.66820272952E+03  0.66820272952E+03  0.00000000000E+00 0. -1.
         23    2    1    2    0    0  0.39633870777E+02  0.16035156514E+03 -0.26413447636E+03  0.32461245566E+03  0.91229143403E+02 0.  0.
         23    2    1    2    0    0  0.10701835490E+02 -0.74098021341E+02 -0.12709537821E+03  0.17315908250E+03  0.90696122531E+02 0.  0.
        -13    1    4    4    0    0 -0.26801834572E+02 -0.99003384784E+00 -0.64537722924E+02  0.69888741466E+02  0.00000000000E+00 0.  1.
         13    1    4    4    0    0  0.37503670062E+02 -0.73107987493E+02 -0.62557655284E+02  0.10327034104E+03  0.00000000000E+00 0. -1.
        -13    1    3    3    0    0  0.28277899759E+02  0.57651974833E+02 -0.18081425772E+03  0.19187804881E+03  0.00000000000E+00 0.  1.
         13    1    3    3    0    0  0.11355971018E+02  0.10269959031E+03 -0.83320218639E+02  0.13273440685E+03  0.00000000000E+00 0. -1.
          1    1    1    2  501    0 -0.50335706267E+02 -0.86253543804E+02 -0.21255622794E+03  0.23484783836E+03  0.00000000000E+00 0. -1.
<scales pt_clust_5="13000.00000" pt_clust_6="13000.00000" pt_clust_7="13000.00000" pt_clust_8="13000.00000" pt_clust_9="13000.00000"></scales>
<clustering>
<clus scale="   90.696">  5  6 -1 -1</clus>
<clus scale="   91.229">  7  8 -1 -1</clus>
<clus scale="   99.867">  5  9 -1 -1</clus>
<clus scale="  188.696">  2  7  1 -1</clus>
<clus scale="  226.067">  1  5  2 -1</clus>
</clustering>
</event>
<event>
 9    1  0.3312826E-006  0.1695033E+03  0.7546771E-02  0.1205075E+00
          1   -1    0    0  502    0 -0.00000000000E+00  0.00000000000E+00  0.70127545928E+02  0.70127545928E+02  0.00000000000E+00 0. -1.
         21   -1    0    0  501  502  0.00000000000E+00 -0.00000000000E+00 -0.30310969349E+03  0.30310969349E+03  0.00000000000E+00 0. -1.
         23    2    1    2    0    0 -0.12728871526E+02  0.16534299073E+02 -0.12205566516E+02  0.94896329350E+02  0.91765626757E+02 0.  0.
         23    2    1    2    0    0  0.55590305018E+01  0.18399183804E+02 -0.22376993734E+03  0.24255383100E+03  0.91596633621E+02 0.  0.
        -11    1    4    4    0    0  0.29666538594E+01 -0.36902744053E+02 -0.71203371178E+02  0.80252935279E+02  0.00000000000E+00 0.  1.
         11    1    4    4    0    0  0.25923766424E+01  0.55301927857E+02 -0.15256656616E+03  0.16230089572E+03  0.00000000000E+00 0. -1.
        -13    1    3    3    0    0  0.79430808604E+01  0.51144251399E+02 -0.16575200020E+02  0.54346704044E+02  0.00000000000E+00 0.  1.
         13    1    3    3    0    0 -0.20671952386E+02 -0.34609952326E+02  0.43696335046E+01  0.40549625306E+02  0.00000000000E+00 0. -1.
          1    1    1    2  501    0  0.71698410240E+01 -0.34933482877E+02  0.29933562958E+01  0.35787079067E+02  0.00000000000E+00 0. -1.
<scales pt_clust_5="13000.00000" pt_clust_6="13000.00000" pt_clust_7="13000.00000" pt_clust_8="13000.00000" pt_clust_9="13000.00000"></scales>
<clustering>
<clus scale="   91.597">  5  6 -1 -1</clus>
<clus scale="   35.662">  5  9 -1 -1</clus>
<clus scale="   91.766">  7  8 -1 -1</clus>
<clus scale="   94.108">  1  7  2 -1</clus>
<clus scale="  169.503">  2  5  1 -1</clus>
</clustering>
</event>
<event>
 9    1  0.3312826E-006  0.4142250E+03  0.7546771E-02  0.1086127E+00
         21   -1    0    0  501  502  0.00000000000E+00  0.00000000000E+00  0.44382021793E+03  0.44382021793E+03  0.00000000000E+00 0. -1.
          4   -1    0    0  502    0 -0.00000000000E+00 -0.00000000000E+00 -0.26732448478E+03  0.26732448478E+03  0.00000000000E+00 0. -1.
         23    2    1    2    0    0  0.62765245550E+02 -0.15019902430E+02 -0.14783574373E+03  0.18505225367E+03  0.90685478135E+02 0.  0.
         23    2    1    2    0    0  0.60356054996E+02 -0.57075124771E+02 -0.43614467711E+02  0.13145240326E+03  0.92071109945E+02 0.  0.
        -13    1    3    3    0    0  0.10772143781E+02  0.36288676498E+02 -0.58111468657E+02  0.69353081497E+02  0.00000000000E+00 0.  1.
         13    1    3    3    0    0  0.51993101769E+02 -0.51308578929E+02 -0.89724275077E+02  0.11569917217E+03  0.00000000000E+00 0. -1.
        -13    1    4    4    0    0 -0.19013379533E+02 -0.37563291831E+02 -0.11565454443E+02  0.43660843223E+02  0.00000000000E+00 0.  1.
         13    1    4    4    0    0  0.79369434529E+02 -0.19511832940E+02 -0.32049013268E+02  0.87791560036E+02  0.00000000000E+00 0. -1.
          4    1    1    2  501    0 -0.12312130055E+03  0.72095027202E+02  0.36794594459E+03  0.39464004579E+03  0.00000000000E+00 0. -1.
<scales pt_clust_5="13000.00000" pt_clust_6="13000.00000" pt_clust_7="13000.00000" pt_clust_8="13000.00000" pt_clust_9="13000.00000"></scales>
<clustering>
<clus scale="   90.685">  5  6 -1 -1</clus>
<clus scale="   92.071">  7  8 -1 -1</clus>
<clus scale="  111.306">  2  5  1 -1</clus>
<clus scale="  134.529">  7  9 -1 -1</clus>
<clus scale="  414.225">  1  5  2 -1</clus>
</clustering>
</event>
<event>
 9    1  0.3312826E-006  0.2373452E+03  0.7546771E-02  0.1146750E+00
          1   -1    0    0  502    0 -0.00000000000E+00  0.00000000000E+00  0.23563631319E+03  0.23563631319E+03  0.00000000000E+00 0. -1.
         21   -1    0    0  501  502  0.00000000000E+00 -0.00000000000E+00 -0.14229784628E+03  0.14229784628E+03  0.00000000000E+00 0. -1.
         23    2    1    2    0    0 -0.84730879960E+02  0.35504157086E+02  0.41274923521E+02  0.13494573432E+03  0.89815726410E+02 0.  0.
         23    2    1    2    0    0  0.13109240527E+03  0.14718132561E+02  0.62861221751E+02  0.17379117618E+03  0.94074425710E+02 0.  0.
        -11    1    4    4    0    0  0.11896356760E+03 -0.23837053783E+02  0.42690724645E+02  0.12861972446E+03  0.00000000000E+00 0.  1.
         11    1    4    4    0    0  0.12128837673E+02  0.38555186344E+02  0.20170497107E+02  0.45171451724E+02  0.00000000000E+00 0. -1.
        -13    1    3    3    0    0 -0.26902096367E+02  0.35498429924E+02 -0.21616239126E+02  0.49508818507E+02  0.00000000000E+00 0.  1.
         13    1    3    3    0    0 -0.57828783593E+02  0.57271620134E-02  0.62891162647E+02  0.85436915814E+02  0.00000000000E+00 0. -1.
          1    1    1    2  501    0 -0.46361525313E+02 -0.50222289646E+02 -0.10797678358E+02  0.69197248967E+02  0.00000000000E+00 0. -1.
<scales pt_clust_5="13000.00000" pt_clust_6="13000.00000" pt_clust_7="13000.00000" pt_clust_8="13000.00000" pt_clust_9="13000.00000"></scales>
<clustering>
<clus scale="   89.816">  7  8 -1 -1</clus>
<clus scale="   94.074">  5  6 -1 -1</clus>
<clus scale="   68.350">  5  9 -1 -1</clus>
<clus scale="  128.479">  1  7  2 -1</clus>
<clus scale="  237.345">  2  5  1 -1</clus>
</clustering>
</event>
<event>
 9    1  0.3312826E-006  0.2772924E+03  0.7546771E-02  0.1133857E+00
          4   -1    0    0  502    0 -0.00000000000E+00  0.00000000000E+00  0.54006809739E+02  0.54006809739E+02  0.00000000000E+00 0. -1.
         21   -1    0    0  501  502  0.00000000000E+00 -0.00000000000E+00 -0.71604989231E+03  0.71604989231E+03  0.00000000000E+00 0. -1.
         23    2    1    2    0    0 -0.25191435221E+02 -0.53976086639E+02 -0.25332266859E+03  0.27615036133E+03  0.92404660622E+02 0.  0.
         23    2    1    2    0    0  0.23355933973E+02 -0.53699368930E+02 -0.48969618298E+02  0.11838269593E+03  0.90483795816E+02 0.  0.
        -13    1    4    4    0    0 -0.25083323741E+02 -0.23272539168E+02  0.10574632575E+02  0.35813503924E+02  0.00000000000E+00 0.  1.
         13    1    4    4    0    0  0.48439257713E+02 -0.30426829762E+02 -0.59544250874E+02  0.82569192011E+02  0.00000000000E+00 0. -1.
        -13    1    3    3    0    0 -0.32938264777E+02  0.17744908798E+02 -0.75812708234E+02  0.84542165838E+02  0.00000000000E+00 0.  1.
         13    1    3    3    0    0  0.77468295561E+01 -0.71720995437E+02 -0.17750996036E+03  0.19160819550E+03  0.00000000000E+00 0. -1.
          4    1    1    2  501    0  0.18355012483E+01  0.10767545557E+03 -0.35975079568E+03  0.37552364478E+03  0.00000000000E+00 0. -1.
<scales pt_clust_5="13000.00000" pt_clust_6="13000.00000" pt_clust_7="13000.00000" pt_clust_8="13000.00000" pt_clust_9="13000.00000"></scales>
<clustering>
<clus scale="   90.484">  5  6 -1 -1</clus>
<clus scale="   92.405">  7  8 -1 -1</clus>
<clus scale="  107.691">  5  9 -1 -1</clus>
<clus scale="  109.939">  1  7  2 -1</clus>
<clus scale="  277.292">  2  5  1 -1</clus>
</clustering>
</event>
<event>
 9    1  0.3312826E-006  0.1880835E+03  0.7546771E-02  0.1186158E+00
         -3   -1    0    0    0  501 -0.00000000000E+00  0.00000000000E+00  0.21481633134E+03  0.21481633134E+03  0.00000000000E+00 0.  1.
         21   -1    0    0  501  502  0.00000000000E+00 -0.00000000000E+00 -0.15126463533E+03  0.15126463533E+03  0.00000000000E+00 0.  1.
         23    2    1    2    0    0  0.49973967033E+02  0.90553642051E+01  0.12999486374E+03  0.16660645627E+03  0.90992580301E+02 0.  0.
         23    2    1    2    0    0  0.26122272762E+02  0.32110538102E+02 -0.44412568466E+02  0.11019620101E+03  0.91963398630E+02 0.  0.
        -11    1    3    3    0    0 -0.21884830655E+02 -0.94160685801E+01  0.10690773888E+02  0.26113230490E+02  0.00000000000E+00 0. -1.
         11    1    3    3    0    0  0.71858797688E+02  0.18471432785E+02  0.11930408986E+03  0.14049322578E+03  0.00000000000E+00 0.  1.
        -13    1    4    4    0    0  0.43990836418E+02 -0.37584945397E+01  0.73246162656E+01  0.44754552544E+02  0.00000000000E+00 0. -1.
         13    1    4    4    0    0 -0.17868563656E+02  0.35869032642E+02 -0.51737184732E+02  0.65441648465E+02  0.00000000000E+00 0.  1.
         -3    1    1    2    0  502 -0.76096239796E+02 -0.41165902307E+02 -0.22030599262E+02  0.89278309391E+02  0.00000000000E+00 0.  1.
<scales pt_clust_5="13000.00000" pt_clust_6="13000.00000" pt_clust_7="13000.00000" pt_clust_8="13000.00000" pt_clust_9="13000.00000"></scales>
<clustering>
<clus scale="   90.993">  5  6 -1 -1</clus>
<clus scale="   91.963">  7  8 -1 -1</clus>
<clus scale="   86.517">  7  9 -1 -1</clus>
<clus scale="  104.207">  1  5  2 -1</clus>
<clus scale="  188.083">  2  5  1 -1</clus>
</clustering>
</event>
<event>
 9    1  0.3312826E-006  0.2356032E+03  0.7546771E-02  0.1145240E+00
          3   -1    0    0  502    0 -0.00000000000E+00  0.00000000000E+00  0.94481721460E+02  0.94481721460E+02  0.00000000000E+00 0. -1.
         21   -1    0    0  501  502  0.00000000000E+00 -0.00000000000E+00 -0.36707917079E+03  0.36707917079E+03  0.00000000000E+00 0. -1.
         23    2    1    2    0    0 -0.84556680511E+02  0.56157572077E+02 -0.86440930730E+02  0.16128918935E+03  0.90767080905E+02 0.  0.
         23    2    1    2    0    0  0.22097934584E+02  0.54297501855E+02 -0.93145768475E+02  0.14294269114E+03  0.91213712489E+02 0.  0.
        -13    1    4    4    0    0  0.56952744016E+02  0.31027444993E+02 -0.44093747830E+02  0.78425608008E+02  0.00000000000E+00 0.  1.
         13    1    4    4    0    0 -0.34854809432E+02  0.23270056862E+02 -0.49052020645E+02  0.64517083135E+02  0.00000000000E+00 0. -1.
        -13    1    3    3    0    0 -0.37950249680E+01  0.51485716174E+02 -0.16071419398E+02  0.54069138202E+02  0.00000000000E+00 0.  1.
         13    1    3    3    0    0 -0.80761655543E+02  0.46718559028E+01 -0.70369511332E+02  0.10722005115E+03  0.00000000000E+00 0. -1.
          3    1    1    2  501    0  0.62458745927E+02 -0.11045507393E+03 -0.93010750120E+02  0.15732901175E+03  0.00000000000E+00 0. -1.
<scales pt_clust_5="13000.00000" pt_clust_6="13000.00000" pt_clust_7="13000.00000" pt_clust_8="13000.00000" pt_clust_9="13000.00000"></scales>
<clustering>
<clus scale="   90.767">  7  8 -1 -1</clus>
<clus scale="   91.214">  5  6 -1 -1</clus>
<clus scale="  126.891">  5  9 -1 -1</clus>
<clus scale="  136.170">  1  7  2 -1</clus>
<clus scale="  235.603">  2  5  1 -1</clus>
</clustering>
</event>
<event>
 9    1  0.3312826E-006  0.3749127E+03  0.7546771E-02  0.1098512E+00
          1   -1    0    0  502    0 -0.00000000000E+00  0.00000000000E+00  0.18408335815E+03  0.18408335815E+03  0.00000000000E+00 0. -1.
         21   -1    0    0  501  502  0.00000000000E+00 -0.00000000000E+00 -0.31763086193E+03  0.31763086193E+03  0.00000000000E+00 0. -1.
         23    2    1    2    0    0  0.44726313046E+02  0.39479412173E+02 -0.22099088339E+02  0.11058730560E+03  0.90455046234E+02 0.  0.
         23    2    1    2    0    0  0.32297774593E+01  0.11096487933E+03  0.54208228992E+02  0.16227020099E+03  0.10521145438E+03 0.  0.
        -13    1    4    4    0    0  0.37241052596E+02  0.42032562674E+00  0.14923628397E+02  0.40122155433E+02  0.00000000000E+00 0.  1.
         13    1    4    4    0    0 -0.34011275137E+02  0.11054455370E+03  0.39284600595E+02  0.12214804556E+03  0.00000000000E+00 0. -1.
        -13    1    3    3    0    0  0.61772667931E+02 -0.35753724696E+01 -0.95333113995E+01  0.62606148403E+02  0.00000000000E+00 0.  1.
         13    1    3    3    0    0 -0.17046354885E+02  0.43054784643E+02 -0.12565776940E+02  0.47981157193E+02  0.00000000000E+00 0. -1.
          1    1    1    2  501    0 -0.47956090505E+02 -0.15044429150E+03 -0.16565664443E+03  0.22885671348E+03  0.00000000000E+00 0. -1.
<scales pt_clust_5="13000.00000" pt_clust_6="13000.00000" pt_clust_7="13000.00000" pt_clust_8="13000.00000" pt_clust_9="13000.00000"></scales>
<clustering>
<clus scale="   90.455">  7  8 -1 -1</clus>
<clus scale="  105.211">  5  6 -1 -1</clus>
<clus scale="  108.357">  1  7  2 -1</clus>
<clus scale="  146.497">  5  9 -1 -1</clus>
<clus scale="  374.913">  2  5  1 -1</clus>
</clustering>
</event>
<event>
 9    1  0.3312826E-006  0.1653609E+03  0.7546771E-02  0.1207473E+00
         -4   -1    0    0    0  501 -0.00000000000E+00  0.00000000000E+00  0.53058625176E+02  0.53058625176E+02  0.00000000000E+00 0.  1.
         21   -1    0    0  501  502  0.00000000000E+00 -0.00000000000E+00 -0.40020771149E+03  0.40020771149E+03  0.00000000000E+00 0. -1.
         23    2    1    2    0    0 -0.89026476461E+01  0.36107380619E+02 -0.23364011063E+03  0.25269588039E+03  0.88794744219E+02 0.  0.
         23    2    1    2    0    0  0.11096337459E+02  0.98479038844E+01 -0.20613070139E+02  0.96905854239E+02  0.93518639902E+02 0.  0.
        -11    1    4    4    0    0  0.45664306323E+02 -0.11531411292E+02  0.72148720219E+01  0.47647210796E+02  0.00000000000E+00 0. -1.
         11    1    4    4    0    0 -0.34567968864E+02  0.21379315176E+02 -0.27827942161E+02  0.49258643442E+02  0.00000000000E+00 0.  1.
        -11    1    3    3    0    0 -0.22534807121E+02 -0.23249878336E+02 -0.53454610575E+02  0.62496158013E+02  0.00000000000E+00 0.  1.
         11    1    3    3    0    0  0.13632159475E+02  0.59357258955E+02 -0.18018550005E+03  0.19019972238E+03  0.00000000000E+00 0. -1.
         -4    1    1    2    0  502 -0.21936898128E+01 -0.45955284503E+02 -0.92895905548E+02  0.10366460204E+03  0.00000000000E+00 0.  1.
<scales pt_clust_5="13000.00000" pt_clust_6="13000.00000" pt_clust_7="13000.00000" pt_clust_8="13000.00000" pt_clust_9="13000.00000"></scales>
<clustering>
<clus scale="   88.795">  7  8 -1 -1</clus>
<clus scale="   93.519">  5  6 -1 -1</clus>
<clus scale="   46.008">  5  9 -1 -1</clus>
<clus scale="   96.268">  1  7  2 -1</clus>
<clus scale="  165.361">  2  5  1 -1</clus>
</clustering>
</event>
<event>
 9    1  0.3312826E-006  0.2492567E+03  0.7546771E-02  0.1152394E+00
         -1   -1    0    0    0  501 -0.00000000000E+00  0.00000000000E+00  0.22659371595E+03  0.22659371595E+03  0.00000000000E+00 0.  1.
         21   -1    0    0  501  502  0.00000000000E+00 -0.00000000000E+00 -0.18716766550E+03  0.18716766550E+03  0.00000000000E+00 0. -1.
         23    2    1    2    0    0 -0.16201386711E+02 -0.24874600250E+02  0.11766609640E+03  0.15251362757E+03  0.92378924458E+02 0.  0.
         23    2    1    2    0    0 -0.82579967230E+02  0.66333741132E+02 -0.29592355412E+02  0.14359056521E+03  0.92319698436E+02 0.  0.
        -13    1    4    4    0    0 -0.74858902808E+02  0.25431960105E+01 -0.60067432234E+01  0.75142558778E+02  0.00000000000E+00 0. -1.
         13    1    4    4    0    0 -0.77210644217E+01  0.63790545121E+02 -0.23585612188E+02  0.68448006435E+02  0.00000000000E+00 0.  1.
        -13    1    3    3    0    0  0.51112474934E+01  0.31814301202E+02  0.63740366922E+02  0.71422048327E+02  0.00000000000E+00 0. -1.
         13    1    3    3    0    0 -0.21312634205E+02 -0.56688901452E+02  0.53925729479E+02  0.81091579245E+02  0.00000000000E+00 0.  1.
         -1    1    1    2    0  502  0.98781353941E+02 -0.41459140882E+02 -0.48647690541E+02  0.11765718866E+03  0.00000000000E+00 0.  1.
<scales pt_clust_5="13000.00000" pt_clust_6="13000.00000" pt_clust_7="13000.00000" pt_clust_8="13000.00000" pt_clust_9="13000.00000"></scales>
<clustering>
<clus scale="   92.320">  5  6 -1 -1</clus>
<clus scale="   92.379">  7  8 -1 -1</clus>
<clus scale="   97.031">  1  7  2 -1</clus>
<clus scale="  105.701">  5  9 -1 -1</clus>
<clus scale="  249.257">  2  5  1 -1</clus>
</clustering>
</event>
<event>
 9    1  0.3312826E-006  0.2626755E+03  0.7546771E-02  0.1120827E+00
         21   -1    0    0  501  502  0.00000000000E+00  0.00000000000E+00  0.11225599798E+03  0.11225599798E+03  0.00000000000E+00 0.  1.
         -3   -1    0    0    0  501 -0.00000000000E+00 -0.00000000000E+00 -0.44262802951E+03  0.44262802951E+03  0.00000000000E+00 0.  1.
         23    2    1    2    0    0 -0.13060625335E+03  0.80284197322E+02 -0.94610524571E+02  0.20192244082E+03  0.91202933040E+02 0.  0.
         23    2    1    2    0    0  0.43397176477E+01 -0.22151389132E+02 -0.17424699592E+03  0.20095271689E+03  0.97521595790E+02 0.  0.
        -11    1    3    3    0    0 -0.80648328902E+02  0.85283721924E+00 -0.64817234616E+02  0.10347054745E+03  0.00000000000E+00 0. -1.
         11    1    3    3    0    0 -0.49957924447E+02  0.79431360103E+02 -0.29793289955E+02  0.98451893375E+02  0.00000000000E+00 0.  1.
        -13    1    4    4    0    0  0.43449202706E+02  0.15183870445E+02 -0.79143108735E+02  0.91553344000E+02  0.00000000000E+00 0.  1.
         13    1    4    4    0    0 -0.39109485058E+02 -0.37335259576E+02 -0.95103887189E+02  0.10939937289E+03  0.00000000000E+00 0. -1.
         -3    1    1    2    0  502  0.12626653570E+03 -0.58132808190E+02 -0.61514511037E+02  0.15200886979E+03  0.00000000000E+00 0.  1.
<scales pt_clust_5="13000.00000" pt_clust_6="13000.00000" pt_clust_7="13000.00000" pt_clust_8="13000.00000" pt_clust_9="13000.00000"></scales>
<clustering>
<clus scale="   91.203">  5  6 -1 -1</clus>
<clus scale="   97.522">  7  8 -1 -1</clus>
<clus scale="  139.006">  7  9 -1 -1</clus>
<clus scale="  178.386">  2  5  1 -1</clus>
<clus scale="  262.675">  1  5  2 -1</clus>
</clustering>
</event>
<event>
 9    1  0.3312826E-006  0.2525427E+03  0.7546771E-02  0.1143733E+00
          2   -1    0    0  502    0 -0.00000000000E+00  0.00000000000E+00  0.10423894386E+04  0.10423894386E+04  0.00000000000E+00 0. -1.
         21   -1    0    0  501  502  0.00000000000E+00 -0.00000000000E+00 -0.32734575250E+02  0.32734575250E+02  0.00000000000E+00 0.  1.
         23    2    1    2    0    0 -0.65953981717E+02 -0.20899398767E+02  0.37279874667E+03  0.39002290720E+03  0.91390645332E+02 0.  0.
         23    2    1    2    0    0 -0.59905178934E+02  0.57645403884E+02  0.29955251520E+03  0.32321090674E+03  0.88441833005E+02 0.  0.
        -11    1    3    3    0    0 -0.40136770876E+02 -0.53714636931E+02  0.28527895611E+03  0.29305341731E+03  0.00000000000E+00 0.  1.
         11    1    3    3    0    0 -0.25817210842E+02  0.32815238164E+02  0.87519790554E+02  0.96969489893E+02  0.00000000000E+00 0. -1.
        -13    1    4    4    0    0 -0.76011520499E+02  0.18917353821E+02  0.21504884238E+03  0.22887031728E+03  0.00000000000E+00 0.  1.
         13    1    4    4    0    0  0.16106341565E+02  0.38728050063E+02  0.84503672817E+02  0.94340589461E+02  0.00000000000E+00 0. -1.
          2    1    1    2  501    0  0.12585916065E+03 -0.36746005117E+02  0.33730360153E+03  0.36189019995E+03  0.00000000000E+00 0. -1.
<scales pt_clust_5="13000.00000" pt_clust_6="13000.00000" pt_clust_7="13000.00000" pt_clust_8="13000.00000" pt_clust_9="13000.00000"></scales>
<clustering>
<clus scale="   88.442">  7  8 -1 -1</clus>
<clus scale="   91.391">  5  6 -1 -1</clus>
<clus scale="  114.625">  1  5  2 -1</clus>
<clus scale="  102.769">  7  9 -1 -1</clus>
<clus scale="  252.543">  2  5  1 -1</clus>
</clustering>
</event>
<event>
 9    1  0.3312826E-006  0.2820032E+03  0.7546771E-02  0.1130584E+00
         21   -1    0    0  501  502  0.00000000000E+00  0.00000000000E+00  0.34243262943E+02  0.34243262943E+02  0.00000000000E+00 0. -1.
          1   -1    0    0  502    0 -0.00000000000E+00 -0.00000000000E+00 -0.11711784015E+04  0.11711784015E+04  0.00000000000E+00 0. -1.
         23    2    1    2    0    0 -0.62249125570E+02  0.27715382222E+02 -0.42061649912E+03  0.43559169520E+03  0.90436660422E+02 0.  0.
         23    2    1    2    0    0  0.11782776017E+03 -0.75123464617E+02 -0.65091045678E+03  0.67177518222E+03  0.89836277171E+02 0.  0.
        -13    1    3    3    0    0 -0.66173052711E+02  0.54749859574E+02 -0.31477367522E+03  0.32628038041E+03  0.00000000000E+00 0.  1.
         13    1    3    3    0    0  0.39239271412E+01 -0.27034477352E+02 -0.10584282390E+03  0.10931131479E+03  0.00000000000E+00 0. -1.
        -13    1    4    4    0    0  0.79023953880E+02 -0.94069177102E+02 -0.49095753684E+03  0.50609593789E+03  0.00000000000E+00 0. -1.
         13    1    4    4    0    0  0.38803806294E+02  0.18945712485E+02 -0.15995291994E+03  0.16567924433E+03  0.00000000000E+00 0.  1.
          1    1    1    2  501    0 -0.55578634604E+02  0.47408082395E+02 -0.65408182665E+02  0.98054787034E+02  0.00000000000E+00 0. -1.
<scales pt_clust_5="13000.00000" pt_clust_6="13000.00000" pt_clust_7="13000.00000" pt_clust_8="13000.00000" pt_clust_9="13000.00000"></scales>
<clustering>
<clus scale="   89.836">  7  8 -1 -1</clus>
<clus scale="   73.051">  7  9 -1 -1</clus>
<clus scale="   90.437">  5  6 -1 -1</clus>
<clus scale="  113.234">  2  5  1 -1</clus>
<clus scale="  282.003">  1  5  2 -1</clus>
</clustering>
</event>
<event>
 9    1  0.3312826E-006  0.1713775E+03  0.7546771E-02  0.1204087E+00
         21   -1    0    0  501  502  0.00000000000E+00  0.00000000000E+00  0.33311272825E+02  0.33311272825E+02  0.00000000000E+00 0. -1.
          3   -1    0    0  502    0 -0.00000000000E+00 -0.00000000000E+00 -0.56634375459E+03  0.56634375459E+03  0.00000000000E+00 0. -1.
         23    2    1    2    0    0 -0.41985236959E+01  0.11214224159E+02 -0.27134434442E+03  0.28684372149E+03  0.92239800979E+02 0.  0.
         23    2    1    2    0    0 -0.53943280345E+02 -0.30611266777E+02 -0.17602318329E+03  0.20747755543E+03  0.90641314007E+02 0.  0.
        -11    1    4    4    0    0 -0.35353378594E+02 -0.56001136676E+02 -0.67822639596E+02  0.94793982556E+02  0.00000000000E+00 0.  1.
         11    1    4    4    0    0 -0.18589901750E+02  0.25389869899E+02 -0.10820054369E+03  0.11268357288E+03  0.00000000000E+00 0. -1.
        -11    1    3    3    0    0 -0.41631943271E+02  0.14401980009E+01 -0.21163660434E+03  0.21569734622E+03  0.00000000000E+00 0. -1.
         11    1    3    3    0    0  0.37433419575E+02  0.97740261583E+01 -0.59707740088E+02  0.71146375276E+02  0.00000000000E+00 0.  1.
          3    1    1    2  501    0  0.58141804040E+02  0.19397042618E+02 -0.85664954047E+02  0.10533375049E+03  0.00000000000E+00 0. -1.
<scales pt_clust_5="13000.00000" pt_clust_6="13000.00000" pt_clust_7="13000.00000" pt_clust_8="13000.00000" pt_clust_9="13000.00000"></scales>
<clustering>
<clus scale="   90.641">  5  6 -1 -1</clus>
<clus scale="   61.292">  5  9 -1 -1</clus>
<clus scale="   92.240">  7  8 -1 -1</clus>
<clus scale="   93.014">  2  7  1 -1</clus>
<clus scale="  171.377">  1  5  2 -1</clus>
</clustering>
</event>
<event>
 9    1  0.3312826E-006  0.3401684E+03  0.7546771E-02  0.1079461E+00
         21   -1    0    0  501  502  0.00000000000E+00  0.00000000000E+00  0.93670956232E+02  0.93670956232E+02  0.00000000000E+00 0. -1.
          2   -1    0    0  502    0 -0.00000000000E+00 -0.00000000000E+00 -0.92483420253E+03  0.92483420253E+03  0.00000000000E+00 0. -1.
         23    2    1    2    0    0  0.12242932651E+03  0.18845084943E+03 -0.42956510008E+03  0.49220142485E+03  0.85049425506E+02 0.  0.
         23    2    1    2    0    0 -0.46522196175E+02 -0.93737224356E+02 -0.37709344653E+03  0.40247706669E+03  0.94007126445E+02 0.  0.
        -11    1    4    4    0    0 -0.53381310696E+02 -0.10605513704E+02 -0.18978833684E+03  0.19743772196E+03  0.00000000000E+00 0. -1.
         11    1    4    4    0    0  0.68591145208E+01 -0.83131710652E+02 -0.18730510970E+03  0.20503934473E+03  0.00000000000E+00 0.  1.
        -13    1    3    3    0    0  0.36273876509E+02  0.10052003856E+03 -0.27205815308E+03  0.29229387767E+03  0.00000000000E+00 0.  1.
         13    1    3    3    0    0  0.86155450001E+02  0.87930810866E+02 -0.15750694700E+03  0.19990754718E+03  0.00000000000E+00 0. -1.
          2    1    1    2  501    0 -0.75907130335E+02 -0.94713625069E+02 -0.24504699683E+02  0.12382666722E+03  0.00000000000E+00 0. -1.
<scales pt_clust_5="13000.00000" pt_clust_6="13000.00000" pt_clust_7="13000.00000" pt_clust_8="13000.00000" pt_clust_9="13000.00000"></scales>
<clustering>
<clus scale="   85.049">  7  8 -1 -1</clus>
<clus scale="   94.007">  5  6 -1 -1</clus>
<clus scale="  121.378">  5  9 -1 -1</clus>
<clus scale="  240.283">  2  7  1 -1</clus>
<clus scale="  340.168">  1  5  2 -1</clus>
</clustering>
</event>
<event>
 9    1  0.3312826E-006  0.1196786E+03  0.7546771E-02  0.1257853E+00
         21   -1    0    0  501  502  0.00000000000E+00  0.00000000000E+00  0.47737735660E+02  0.47737735660E+02  0.00000000000E+00 0. -1.
         -1   -1    0    0    0  501 -0.00000000000E+00 -0.00000000000E+00 -0.28803983187E+03  0.28803983187E+03  0.00000000000E+00 0.  1.
         23    2    1    2    0    0  0.17867561350E+02  0.67232379375E+00 -0.18105466860E+03  0.20223644428E+03  0.88312426114E+02 0.  0.
         23    2    1    2    0    0 -0.31960960223E+02 -0.17294093765E+02 -0.51940058913E+02  0.11055624200E+03  0.90577725009E+02 0.  0.
        -11    1    3    3    0    0 -0.68219654413E+01  0.39083326461E+02 -0.11721784643E+03  0.12375002684E+03  0.00000000000E+00 0.  1.
         11    1    3    3    0    0  0.24689526792E+02 -0.38411002667E+02 -0.63836822169E+02  0.78486417447E+02  0.00000000000E+00 0. -1.
        -13    1    4    4    0    0 -0.61539109907E+02 -0.30034270976E+01 -0.20099686205E+02  0.64808024257E+02  0.00000000000E+00 0.  1.
         13    1    4    4    0    0  0.29578149684E+02 -0.14290666667E+02 -0.31840372707E+02  0.45748217743E+02  0.00000000000E+00 0. -1.
         -1    1    1    2    0  502  0.14093398873E+02  0.16621769971E+02 -0.73073687008E+01  0.22984881250E+02  0.00000000000E+00 0.  1.
<scales pt_clust_5="13000.00000" pt_clust_6="13000.00000" pt_clust_7="13000.00000" pt_clust_8="13000.00000" pt_clust_9="13000.00000"></scales>
<clustering>
<clus scale="   88.312">  5  6 -1 -1</clus>
<clus scale="   90.104">  2  5  1 -1</clus>
<clus scale="   90.578">  7  8 -1 -1</clus>
<clus scale="   23.779">  7  9 -1 -1</clus>
<clus scale="  119.679">  1  5  2 -1</clus>
</clustering>
</event>
<event>
 9    1  0.3312826E-006  0.3518156E+03  0.7546771E-02  0.1111705E+00
         21   -1    0    0  501  502  0.00000000000E+00  0.00000000000E+00  0.20059293773E+03  0.20059293773E+03  0.00000000000E+00 0. -1.
          3   -1    0    0  502    0 -0.00000000000E+00 -0.00000000000E+00 -0.38512772750E+03  0.38512772750E+03  0.00000000000E+00 0. -1.
         23    2    1    2    0    0  0.16639151971E+02  0.19388775495E+02 -0.21317027941E+03  0.23274164085E+03  0.89857205423E+02 0.  0.
         23    2    1    2    0    0 -0.82853087854E+02  0.23838928724E+02  0.15791821727E+03  0.20143053914E+03  0.90571353431E+02 0.  0.
        -11    1    4    4    0    0 -0.29197007885E+02  0.38742969672E+02  0.13076860160E+03  0.13947727462E+03  0.00000000000E+00 0. -1.
         11    1    4    4    0    0 -0.53656079969E+02 -0.14904040947E+02  0.27149615661E+02  0.61953264521E+02  0.00000000000E+00 0.  1.
        -13    1    3    3    0    0  0.42683105914E+01  0.49138623656E+02 -0.67796579572E+02  0.83840318533E+02  0.00000000000E+00 0.  1.
         13    1    3    3    0    0  0.12370841379E+02 -0.29749848160E+02 -0.14537369984E+03  0.14890132231E+03  0.00000000000E+00 0. -1.
          3    1    1    2  501    0  0.66213935884E+02 -0.43227704220E+02 -0.12928272763E+03  0.15154848524E+03  0.00000000000E+00 0. -1.
<scales pt_clust_5="13000.00000" pt_clust_6="13000.00000" pt_clust_7="13000.00000" pt_clust_8="13000.00000" pt_clust_9="13000.00000"></scales>
<clustering>
<clus scale="   89.857">  7  8 -1 -1</clus>
<clus scale="   90.571">  5  6 -1 -1</clus>
<clus scale="   79.075">  5  9 -1 -1</clus>
<clus scale="   93.419">  2  7  1 -1</clus>
<clus scale="  351.816">  1  5  2 -1</clus>
</clustering>
</event>
<event>
 9    1  0.3312826E-006  0.2299032E+03  0.7546771E-02  0.1161550E+00
         21   -1    0    0  501  502  0.00000000000E+00  0.00000000000E+00  0.93661749327E+02  0.93661749327E+02  0.00000000000E+00 0.  1.
         -3   -1    0    0    0  501 -0.00000000000E+00 -0.00000000000E+00 -0.39842500876E+03  0.39842500876E+03  0.00000000000E+00 0.  1.
         23    2    1    2    0    0  0.24044646664E+02 -0.31532385186E+02 -0.22935925725E+03  0.25013375282E+03  0.91590332815E+02 0.  0.
         23    2    1    2    0    0 -0.81288120839E+02 -0.41427652401E+02 -0.83066559087E+02  0.14890088440E+03  0.83351131741E+02 0.  0.
        -11    1    4    4    0    0 -0.55996918063E+02  0.17543522214E+02 -0.47779110180E+02  0.75672143975E+02  0.00000000000E+00 0.  1.
         11    1    4    4    0    0 -0.25291202776E+02 -0.58971174615E+02 -0.35287448907E+02  0.73228740421E+02  0.00000000000E+00 0. -1.
        -13    1    3    3    0    0 -0.28036848098E+02 -0.21418018174E+02 -0.39324286269E+02  0.52831769272E+02  0.00000000000E+00 0.  1.
         13    1    3    3    0    0  0.52081494762E+02 -0.10114367012E+02 -0.19003497098E+03  0.19730198355E+03  0.00000000000E+00 0. -1.
         -3    1    1    2    0  502  0.57243474176E+02  0.72960037588E+02  0.76625569010E+01  0.93052120872E+02  0.00000000000E+00 0.  1.
<scales pt_clust_5="13000.00000" pt_clust_6="13000.00000" pt_clust_7="13000.00000" pt_clust_8="13000.00000" pt_clust_9="13000.00000"></scales>
<clustering>
<clus scale="   83.351">  5  6 -1 -1</clus>
<clus scale="   91.590">  7  8 -1 -1</clus>
<clus scale="   92.736">  5  9 -1 -1</clus>
<clus scale="   99.806">  2  7  1 -1</clus>
<clus scale="  229.903">  1  5  2 -1</clus>
</clustering>
</event>
<event>
 9    1  0.3312826E-006  0.1720119E+03  0.7546771E-02  0.1198251E+00
         21   -1    0    0  501  502  0.00000000000E+00  0.00000000000E+00  0.65111934919E+02  0.65111934919E+02  0.00000000000E+00 0. -1.
         -1   -1    0    0    0  501 -0.00000000000E+00 -0.00000000000E+00 -0.47073991396E+03  0.47073991396E+03  0.00000000000E+00 0.  1.
         23    2    1    2    0    0 -0.29158709924E+02 -0.41357375516E+02 -0.10515592302E+02  0.10492041955E+03  0.91307468936E+02 0.  0.
         23    2    1    2    0    0  0.51774304574E+02  0.26697612752E+02 -0.38817571547E+03  0.40310174780E+03  0.91745800222E+02 0.  0.
        -11    1    3    3    0    0  0.42396435304E+01 -0.41911721768E+02 -0.41663120989E+02  0.59248482254E+02  0.00000000000E+00 0.  1.
         11    1    3    3    0    0 -0.33398353454E+02  0.55434625224E+00  0.31147528687E+02  0.45671937298E+02  0.00000000000E+00 0. -1.
        -11    1    4    4    0    0 -0.18889123077E+02  0.89270332439E+01 -0.24499333340E+02  0.32197953774E+02  0.00000000000E+00 0. -1.
         11    1    4    4    0    0  0.70663427651E+02  0.17770579508E+02 -0.36367638213E+03  0.37090379403E+03  0.00000000000E+00 0.  1.
         -1    1    1    2    0  502 -0.22615594650E+02  0.14659762764E+02 -0.69366712704E+01  0.27829681529E+02  0.00000000000E+00 0.  1.
<scales pt_clust_5="13000.00000" pt_clust_6="13000.00000" pt_clust_7="13000.00000" pt_clust_8="13000.00000" pt_clust_9="13000.00000"></scales>
<clustering>
<clus scale="   91.307">  5  6 -1 -1</clus>
<clus scale="   91.746">  7  8 -1 -1</clus>
<clus scale="   26.951">  7  9 -1 -1</clus>
<clus scale="  104.392">  2  5  1 -1</clus>
<clus scale="  172.012">  1  5  2 -1</clus>
</clustering>
</event>
<event>
 9    1  0.3312826E-006  0.2405846E+03  0.7546771E-02  0.1134798E+00
          1   -1    0    0  502    0 -0.00000000000E+00  0.00000000000E+00  0.15615220930E+04  0.15615220930E+04  0.00000000000E+00 0. -1.
         21   -1    0    0  501  502  0.00000000000E+00 -0.00000000000E+00 -0.28483439062E+02  0.28483439062E+02  0.00000000000E+00 0. -1.
         23    2    1    2    0    0 -0.13357075315E+03  0.36066126662E+02  0.85157101815E+03  0.86731673800E+03  0.89012434325E+02 0.  0.
         23    2    1    2    0    0 -0.84725443466E+00 -0.11190335041E+02  0.18443306935E+03  0.20719838096E+03  0.93753242951E+02 0.  0.
        -13    1    4    4    0    0 -0.20061974582E+02  0.33331328451E+02  0.44531200323E+02  0.59131109263E+02  0.00000000000E+00 0. -1.
         13    1    4    4    0    0  0.19214720148E+02 -0.44521663492E+02  0.13990186903E+03  0.14806727169E+03  0.00000000000E+00 0.  1.
        -13    1    3    3    0    0 -0.33887070100E+02  0.50763528783E+02  0.24848146870E+03  0.25586775815E+03  0.00000000000E+00 0.  1.
         13    1    3    3    0    0 -0.99683683054E+02 -0.14697402120E+02  0.60308954946E+03  0.61144897985E+03  0.00000000000E+00 0. -1.
          1    1    1    2  501    0  0.13441800759E+03 -0.24875791622E+02  0.49703456647E+03  0.51549041314E+03  0.00000000000E+00 0. -1.
<scales pt_clust_5="13000.00000" pt_clust_6="13000.00000" pt_clust_7="13000.00000" pt_clust_8="13000.00000" pt_clust_9="13000.00000"></scales>
<clustering>
<clus scale="   89.012">  7  8 -1 -1</clus>
<clus scale="   93.753">  5  6 -1 -1</clus>
<clus scale="  136.700">  5  9 -1 -1</clus>
<clus scale="  164.515">  1  7  2 -1</clus>
<clus scale="  240.585">  2  5  1 -1</clus>
</clustering>
</event>
<event>
 9    1  0.3312826E-006  0.1872767E+03  0.7546771E-02  0.1172253E+00
          2   -1    0    0  502    0 -0.00000000000E+00  0.00000000000E+00  0.58974056614E+03  0.58974056614E+03  0.00000000000E+00 0. -1.
         21   -1    0    0  501  502  0.00000000000E+00 -0.00000000000E+00 -0.87293445686E+02  0.87293445686E+02  0.00000000000E+00 0.  1.
         23    2    1    2    0    0 -0.41154406726E+02 -0.99145456021E+02  0.46388642183E+03  0.48582867829E+03  0.96516245513E+02 0.  0.
         23    2    1    2    0    0 -0.15295883072E+02  0.53580568539E+02  0.44961621004E+02  0.11837837426E+03  0.94271155533E+02 0.  0.
        -13    1    4    4    0    0  0.30035080993E+02  0.56071430260E+02  0.31768066600E+02  0.71100783661E+02  0.00000000000E+00 0.  1.
         13    1    4    4    0    0 -0.45330964065E+02 -0.24908617205E+01  0.13193554404E+02  0.47277590601E+02  0.00000000000E+00 0. -1.
        -13    1    3    3    0    0 -0.20476003015E+02  0.34326333492E+01  0.16939213970E+02  0.26795272738E+02  0.00000000000E+00 0.  1.
         13    1    3    3    0    0 -0.20678403712E+02 -0.10257808937E+03  0.44694720786E+03  0.45903340555E+03  0.00000000000E+00 0. -1.
          2    1    1    2  501    0  0.56450289798E+02  0.45564887482E+02 -0.64009223827E+01  0.72826959273E+02  0.00000000000E+00 0. -1.
<scales pt_clust_5="13000.00000" pt_clust_6="13000.00000" pt_clust_7="13000.00000" pt_clust_8="13000.00000" pt_clust_9="13000.00000"></scales>
<clustering>
<clus scale="   94.271">  5  6 -1 -1</clus>
<clus scale="   72.545">  5  9 -1 -1</clus>
<clus scale="   96.516">  7  8 -1 -1</clus>
<clus scale="  144.357">  1  7  2 -1</clus>
<clus scale="  187.277">  2  5  1 -1</clus>
</clustering>
</event>
<event>
 9    1  0.3312826E-006  0.3748070E+03  0.7546771E-02  0.1090764E+00
         -3   -1    0    0    0  501 -0.00000000000E+00  0.00000000000E+00  0.35302592782E+03  0.35302592782E+03  0.00000000000E+00 0.  1.
         21   -1    0    0  501  502  0.00000000000E+00 -0.00000000000E+00 -0.18969746065E+03  0.18969746065E+03  0.00000000000E+00 0. -1.
         23    2    1    2    0    0 -0.44828189724E+02 -0.76666105791E+02  0.90893344191E+02  0.16098111716E+03  0.98823386373E+02 0.  0.
         23    2    1    2    0    0  0.13307195564E+03  0.16738541081E+03 -0.66280230217E+01  0.23251782431E+03  0.91074622171E+02 0.  0.
        -11    1    4    4    0    0  0.44435348670E+02  0.11210583653E+03 -0.32511927542E+02  0.12489693442E+03  0.00000000000E+00 0. -1.
         11    1    4    4    0    0  0.88636606967E+02  0.55279574281E+02  0.25883904521E+02  0.10762088989E+03  0.00000000000E+00 0.  1.
        -13    1    3    3    0    0 -0.21913826914E+02 -0.75702508221E+02  0.10704672250E+03  0.13292887707E+03  0.00000000000E+00 0.  1.
         13    1    3    3    0    0 -0.22914362810E+02 -0.96359756958E+00 -0.16153378313E+02  0.28052240092E+02  0.00000000000E+00 0. -1.
         -3    1    1    2    0  502 -0.88243765913E+02 -0.90719305016E+02  0.79063146004E+02  0.14922444700E+03  0.00000000000E+00 0.  1.
<scales pt_clust_5="13000.00000" pt_clust_6="13000.00000" pt_clust_7="13000.00000" pt_clust_8="13000.00000" pt_clust_9="13000.00000"></scales>
<clustering>
<clus scale="   91.075">  5  6 -1 -1</clus>
<clus scale="   98.823">  7  8 -1 -1</clus>
<clus scale="  126.558">  5  9 -1 -1</clus>
<clus scale="  132.866">  1  7  2 -1</clus>
<clus scale="  374.807">  2  5  1 -1</clus>
</clustering>
</event>
<event>
 9    1  0.3312826E-006  0.1850688E+03  0.7546771E-02  0.1189786E+00
         21   -1    0    0  501  502  0.00000000000E+00  0.00000000000E+00  0.33738798816E+02  0.33738798816E+02  0.00000000000E+00 0. -1.
          2   -1    0    0  502    0 -0.00000000000E+00 -0.00000000000E+00 -0.73609147786E+03  0.73609147786E+03  0.00000000000E+00 0. -1.
         23    2    1    2    0    0  0.25535874011E+02  0.22718459008E+02 -0.42200092623E+03  0.43390235548E+03  0.94964536058E+02 0.  0.
         23    2    1    2    0    0 -0.71947877675E+02 -0.26032874678E+02 -0.12205902531E+03  0.17093808207E+03  0.92017468862E+02 0.  0.
        -11    1    4    4    0    0 -0.70409498022E+01 -0.48942991318E+02 -0.38424566305E+02  0.62621391465E+02  0.00000000000E+00 0.  1.
         11    1    4    4    0    0 -0.64906927873E+02  0.22910116640E+02 -0.83634459004E+02  0.10831669060E+03  0.00000000000E+00 0. -1.
        -13    1    3    3    0    0 -0.34106698871E+02  0.22939627115E+02 -0.18509961676E+03  0.18960844265E+03  0.00000000000E+00 0. -1.
         13    1    3    3    0    0  0.59642572881E+02 -0.22116810708E+00 -0.23690130947E+03  0.24429391283E+03  0.00000000000E+00 0.  1.
          2    1    1    2  501    0  0.46412003664E+02  0.33144156698E+01 -0.15829272751E+03  0.16498983913E+03  0.00000000000E+00 0. -1.
<scales pt_clust_5="13000.00000" pt_clust_6="13000.00000" pt_clust_7="13000.00000" pt_clust_8="13000.00000" pt_clust_9="13000.00000"></scales>
<clustering>
<clus scale="   92.017">  5  6 -1 -1</clus>
<clus scale="   46.530">  5  9 -1 -1</clus>
<clus scale="   94.965">  7  8 -1 -1</clus>
<clus scale="  100.928">  2  7  1 -1</clus>
<clus scale="  185.069">  1  5  2 -1</clus>
</clustering>
</event>
<event>
 9    1  0.3312826E-006  0.1920818E+03  0.7546771E-02  0.1169604E+00
         21   -1    0    0  501  502  0.00000000000E+00  0.00000000000E+00  0.23563681409E+03  0.23563681409E+03  0.00000000000E+00 0. -1.
         -3   -1    0    0    0  501 -0.00000000000E+00 -0.00000000000E+00 -0.13875899009E+03  0.13875899009E+03  0.00000000000E+00 0.  1.
         23    2    1    2    0    0 -0.33113722994E+01  0.10947929547E+03  0.11308415917E+03  0.18163153655E+03  0.90583147942E+02 0.  0.
         23    2    1    2    0    0  0.37168778215E+02 -0.28711815361E+02 -0.21841056049E+02  0.10500630585E+03  0.91342247197E+02 0.  0.
        -11    1    4    4    0    0 -0.29144742139E+02  0.28018814614E+01 -0.55676083130E+01  0.29803771513E+02  0.00000000000E+00 0.  1.
         11    1    4    4    0    0  0.66313520354E+02 -0.31513696823E+02 -0.16273447736E+02  0.75202534334E+02  0.00000000000E+00 0. -1.
        -13    1    3    3    0    0  0.27875162601E+02  0.99578961829E+02  0.60811346831E+02  0.11996255346E+03  0.00000000000E+00 0. -1.
         13    1    3    3    0    0 -0.31186534900E+02  0.99003336375E+01  0.52272812343E+02  0.61668983091E+02  0.00000000000E+00 0.  1.
         -3    1    1    2    0  502 -0.33857405915E+02 -0.80767480105E+02  0.56347208737E+01  0.87757961788E+02  0.00000000000E+00 0.  1.
<scales pt_clust_5="13000.00000" pt_clust_6="13000.00000" pt_clust_7="13000.00000" pt_clust_8="13000.00000" pt_clust_9="13000.00000"></scales>
<clustering>
<clus scale="   90.583">  7  8 -1 -1</clus>
<clus scale="   91.342">  5  6 -1 -1</clus>
<clus scale="   87.577">  5  9 -1 -1</clus>
<clus scale="  142.134">  2  7  1 -1</clus>
<clus scale="  192.082">  1  5  2 -1</clus>
</clustering>
</event>
<event>
 9    1  0.3312826E-006  0.3280565E+03  0.7546771E-02  0.1112589E+00
         21   -1    0    0  501  502  0.00000000000E+00  0.00000000000E+00  0.78138031761E+02  0.78138031761E+02  0.00000000000E+00 0. -1.
          1   -1    0    0  502    0 -0.00000000000E+00 -0.00000000000E+00 -0.82199518765E+03  0.82199518765E+03  0.00000000000E+00 0. -1.
         23    2    1    2    0    0 -0.51105996308E+02  0.41173309213E+02 -0.43573873883E+03  0.45006877661E+03  0.91578332107E+02 0.  0.
         23    2    1    2    0    0  0.16423118595E+03 -0.14469269836E+02 -0.10444548793E+03  0.21555841662E+03  0.91516822604E+02 0.  0.
        -11    1    4    4    0    0  0.15439733581E+03 -0.41435796990E+02 -0.88461351182E+02  0.18270433281E+03  0.00000000000E+00 0. -1.
         11    1    4    4    0    0  0.98338501489E+01  0.26966527154E+02 -0.15984136743E+02  0.32854083809E+02  0.00000000000E+00 0.  1.
        -13    1    3    3    0    0  0.64319885319E+01  0.48982463911E+02 -0.26925306017E+03  0.27374780850E+03  0.00000000000E+00 0. -1.
         13    1    3    3    0    0 -0.57537984840E+02 -0.78091546974E+01 -0.16648567866E+03  0.17632096811E+03  0.00000000000E+00 0.  1.
          1    1    1    2  501    0 -0.11312518965E+03 -0.26704039378E+02 -0.20367292913E+03  0.23450602618E+03  0.00000000000E+00 0. -1.
<scales pt_clust_5="13000.00000" pt_clust_6="13000.00000" pt_clust_7="13000.00000" pt_clust_8="13000.00000" pt_clust_9="13000.00000"></scales>
<clustering>
<clus scale="   91.517">  5  6 -1 -1</clus>
<clus scale="   91.578">  7  8 -1 -1</clus>
<clus scale="  112.666">  2  7  1 -1</clus>
<clus scale="  142.691">  5  9 -1 -1</clus>
<clus scale="  328.056">  1  5  2 -1</clus>
</clustering>
</event>
<event>
 9    1  0.3312826E-006  0.5156295E+03  0.7546771E-02  0.1068454E+00
          3   -1    0    0  502    0 -0.00000000000E+00  0.00000000000E+00  0.37888540574E+03  0.37888540574E+03  0.00000000000E+00 0. -1.
         21   -1    0    0  501  502  0.00000000000E+00 -0.00000000000E+00 -0.33347587670E+03  0.33347587670E+03  0.00000000000E+00 0. -1.
         23    2    1    2    0    0  0.14067657133E+02 -0.11562843989E+02  0.15909918549E+03  0.18434692061E+03  0.91321618356E+02 0.  0.
         23    2    1    2    0    0  0.43917289863E+02 -0.17497154093E+03  0.11098688863E+03  0.23029489531E+03  0.90409517613E+02 0.  0.
        -11    1    4    4    0    0  0.25745680506E+02 -0.14389021753E+03  0.41366272861E+02  0.15191577698E+03  0.00000000000E+00 0.  1.
         11    1    4    4    0    0  0.18171609357E+02 -0.31081323404E+02  0.69620615764E+02  0.78379118332E+02  0.00000000000E+00 0. -1.
        -13    1    3    3    0    0 -0.17314499244E+02  0.29043316549E+02  0.10255956017E+03  0.10798967313E+03  0.00000000000E+00 0. -1.
         13    1    3    3    0    0  0.31382156377E+02 -0.40606160538E+02  0.56539625313E+02  0.76357247482E+02  0.00000000000E+00 0.  1.
          3    1    1    2  501    0 -0.57984946996E+02  0.18653438492E+03 -0.22467654507E+03  0.29771946651E+03  0.00000000000E+00 0. -1.
<scales pt_clust_5="13000.00000" pt_clust_6="13000.00000" pt_clust_7="13000.00000" pt_clust_8="13000.00000" pt_clust_9="13000.00000"></scales>
<clustering>
<clus scale="   90.410">  5  6 -1 -1</clus>
<clus scale="   91.322">  7  8 -1 -1</clus>
<clus scale="   93.119">  1  7  2 -1</clus>
<clus scale="  192.664">  5  9 -1 -1</clus>
<clus scale="  515.630">  2  5  1 -1</clus>
</clustering>
</event>
<event>
 9    1  0.3312826E-006  0.2202125E+03  0.7546771E-02  0.1165823E+00
         21   -1    0    0  501  502  0.00000000000E+00  0.00000000000E+00  0.46605848563E+03  0.46605848563E+03  0.00000000000E+00 0.  1.
         -2   -1    0    0    0  501 -0.00000000000E+00 -0.00000000000E+00 -0.22343074701E+03  0.22343074701E+03  0.00000000000E+00 0.  1.
         23    2    1    2    0    0 -0.40072413756E+02  0.22955064405E+02 -0.18318756478E+03  0.21010187741E+03  0.91936835254E+02 0.  0.
         23    2    1    2    0    0 -0.59655437495E+02 -0.33747569871E+02  0.27946071051E+03  0.30195627185E+03  0.91551251745E+02 0.  0.
        -11    1    4    4    0    0 -0.55769374194E+02 -0.16654371534E+01  0.25603121479E+03  0.26204003459E+03  0.00000000000E+00 0.  1.
         11    1    4    4    0    0 -0.38860633008E+01 -0.32082132718E+02  0.23429495721E+02  0.39916237265E+02  0.00000000000E+00 0. -1.
        -13    1    3    3    0    0  0.18960563603E+02  0.15610641341E+02 -0.92017896434E+01  0.26227238281E+02  0.00000000000E+00 0. -1.
         13    1    3    3    0    0 -0.59032977360E+02  0.73444230647E+01 -0.17398577514E+03  0.18387463913E+03  0.00000000000E+00 0.  1.
         -2    1    1    2    0  502  0.99727851251E+02  0.10792505466E+02  0.14635459289E+03  0.17743108338E+03  0.00000000000E+00 0.  1.
<scales pt_clust_5="13000.00000" pt_clust_6="13000.00000" pt_clust_7="13000.00000" pt_clust_8="13000.00000" pt_clust_9="13000.00000"></scales>
<clustering>
<clus scale="   91.551">  5  6 -1 -1</clus>
<clus scale="   91.937">  7  8 -1 -1</clus>
<clus scale="  100.310">  5  9 -1 -1</clus>
<clus scale="  102.884">  2  7  1 -1</clus>
<clus scale="  220.213">  1  5  2 -1</clus>
</clustering>
</event>
<event>
 9    1  0.3312826E-006  0.2189326E+03  0.7546771E-02  0.1164376E+00
         -3   -1    0    0    0  501 -0.00000000000E+00  0.00000000000E+00  0.33894063640E+03  0.33894063640E+03  0.00000000000E+00 0.  1.
         21   -1    0    0  501  502  0.00000000000E+00 -0.00000000000E+00 -0.79949900952E+02  0.79949900952E+02  0.00000000000E+00 0.  1.
         23    2    1    2    0    0 -0.37707594661E+02 -0.45406209084E+02  0.64266919419E+02  0.12589078482E+03  0.90745061863E+02 0.  0.
         23    2    1    2    0    0  0.10635480333E+03  0.13126242252E+02  0.12372878831E+03  0.18910206499E+03  0.94694960257E+02 0.  0.
        -13    1    3    3    0    0  0.29788394571E+02 -0.21022553325E+02  0.20352266419E+02  0.41755370287E+02  0.00000000000E+00 0.  1.
         13    1    3    3    0    0 -0.67495989232E+02 -0.24383655758E+02  0.43914653000E+02  0.84135414533E+02  0.00000000000E+00 0. -1.
        -13    1    4    4    0    0  0.74135964168E+02  0.45609805988E+02  0.44857404897E+02  0.97921306974E+02  0.00000000000E+00 0.  1.
         13    1    4    4    0    0  0.32218839162E+02 -0.32483563737E+02  0.78871383415E+02  0.91180758013E+02  0.00000000000E+00 0. -1.
         -3    1    1    2    0  502 -0.68647208669E+02  0.32279966832E+02  0.70995027714E+02  0.10389768754E+03  0.00000000000E+00 0.  1.
<scales pt_clust_5="13000.00000" pt_clust_6="13000.00000" pt_clust_7="13000.00000" pt_clust_8="13000.00000" pt_clust_9="13000.00000"></scales>
<clustering>
<clus scale="   90.745">  5  6 -1 -1</clus>
<clus scale="   94.695">  7  8 -1 -1</clus>
<clus scale="   75.858">  7  9 -1 -1</clus>
<clus scale="  108.251">  1  5  2 -1</clus>
<clus scale="  218.933">  2  5  1 -1</clus>
</clustering>
</event>
<event>
 9    1  0.3312826E-006  0.3141526E+03  0.7546771E-02  0.1113835E+00
         -2   -1    0    0    0  501 -0.00000000000E+00  0.00000000000E+00  0.38626090553E+03  0.38626090553E+03  0.00000000000E+00 0.  1.
         21   -1    0    0  501  502  0.00000000000E+00 -0.00000000000E+00 -0.12446390410E+03  0.12446390410E+03  0.00000000000E+00 0. -1.
         23    2    1    2    0    0 -0.13528747674E+02 -0.84334047601E+02  0.78036556028E+02  0.14677456579E+03  0.90320598356E+02 0.  0.
         23    2    1    2    0    0  0.65008593408E+02  0.13184591556E+03  0.22416067926E+03  0.28308164047E+03  0.90982099231E+02 0.  0.
        -13    1    4    4    0    0 -0.11365367561E+02  0.67156348427E+02  0.59766223429E+02  0.90615385983E+02  0.00000000000E+00 0.  1.
         13    1    4    4    0    0  0.76373960969E+02  0.64689567132E+02  0.16439445583E+03  0.19246625449E+03  0.00000000000E+00 0. -1.
        -13    1    3    3    0    0  0.38718551568E+02 -0.36759529544E+02  0.38300161346E+02  0.65706100226E+02  0.00000000000E+00 0. -1.
         13    1    3    3    0    0 -0.52247299242E+02 -0.47574518057E+02  0.39736394683E+02  0.81068465563E+02  0.00000000000E+00 0.  1.
         -2    1    1    2    0  502 -0.51479845734E+02 -0.47511867957E+02 -0.40400233859E+02  0.80868603361E+02  0.00000000000E+00 0.  1.
<scales pt_clust_5="13000.00000" pt_clust_6="13000.00000" pt_clust_7="13000.00000" pt_clust_8="13000.00000" pt_clust_9="13000.00000"></scales>
<clustering>
<clus scale="   90.321">  7  8 -1 -1</clus>
<clus scale="   90.982">  5  6 -1 -1</clus>
<clus scale="   70.054">  5  9 -1 -1</clus>
<clus scale="  124.310">  1  7  2 -1</clus>
<clus scale="  314.153">  2  5  1 -1</clus>
</clustering>
</event>
<event>
 9    1  0.3312826E-006  0.2037410E+03  0.7546771E-02  0.1152282E+00
         -1   -1    0    0    0  501 -0.00000000000E+00  0.00000000000E+00  0.69352219286E+02  0.69352219286E+02  0.00000000000E+00 0.  1.
         21   -1    0    0  501  502  0.00000000000E+00 -0.00000000000E+00 -0.53103874510E+03  0.53103874510E+03  0.00000000000E+00 0.  1.
         23    2    1    2    0    0 -0.13987068820E+03 -0.62044826220E+02 -0.18549641993E+03  0.25718349811E+03  0.91219844423E+02 0.  0.
         23    2    1    2    0    0  0.84001684659E+02  0.22189529619E+02 -0.12930883939E+03  0.18108437516E+03  0.92315311482E+02 0.  0.
        -11    1    4    4    0    0  0.78013807416E+02  0.49633514533E+02 -0.71750116519E+02  0.11703725532E+03  0.00000000000E+00 0.  1.
         11    1    4    4    0    0  0.59878772433E+01 -0.27443984914E+02 -0.57558722871E+02  0.64047119844E+02  0.00000000000E+00 0. -1.
        -13    1    3    3    0    0 -0.91689624343E+02 -0.49578644206E+02 -0.55724452218E+02  0.11819578566E+03  0.00000000000E+00 0.  1.
         13    1    3    3    0    0 -0.48181063855E+02 -0.12466182013E+02 -0.12977196771E+03  0.13898771245E+03  0.00000000000E+00 0. -1.
         -1    1    1    2    0  502  0.55869003539E+02  0.39855296601E+02 -0.14688126649E+03  0.16212309111E+03  0.00000000000E+00 0.  1.
<scales pt_clust_5="13000.00000" pt_clust_6="13000.00000" pt_clust_7="13000.00000" pt_clust_8="13000.00000" pt_clust_9="13000.00000"></scales>
<clustering>
<clus scale="   91.220">  7  8 -1 -1</clus>
<clus scale="   92.315">  5  6 -1 -1</clus>
<clus scale="   68.628">  5  9 -1 -1</clus>
<clus scale="  178.142">  1  7  2 -1</clus>
<clus scale="  203.741">  2  5  1 -1</clus>
</clustering>
</event>
<event>
 9    1  0.3312826E-006  0.2251254E+03  0.7546771E-02  0.1152769E+00
          2   -1    0    0  502    0 -0.00000000000E+00  0.00000000000E+00  0.72138218950E+02  0.72138218950E+02  0.00000000000E+00 0. -1.
         21   -1    0    0  501  502  0.00000000000E+00 -0.00000000000E+00 -0.44427251322E+03  0.44427251322E+03  0.00000000000E+00 0. -1.
         23    2    1    2    0    0  0.91602910994E+02 -0.21073948265E+02 -0.16591900045E+03  0.21111384332E+03  0.90579995226E+02 0.  0.
         23    2    1    2    0    0 -0.52984712451E+02  0.89720864715E+02 -0.97708136914E+02  0.17121643726E+03  0.94397961053E+02 0.  0.
        -13    1    4    4    0    0 -0.51253636708E+02  0.25846497070E+02 -0.36643291623E+01  0.57518727340E+02  0.00000000000E+00 0.  1.
         13    1    4    4    0    0 -0.17310757431E+01  0.63874367645E+02 -0.94043807752E+02  0.11369770992E+03  0.00000000000E+00 0. -1.
        -13    1    3    3    0    0 -0.15911707022E+02 -0.16328770906E+02 -0.25685651200E+02  0.34344779185E+02  0.00000000000E+00 0.  1.
         13    1    3    3    0    0  0.10751461802E+03 -0.47451773592E+01 -0.14023334925E+03  0.17676906414E+03  0.00000000000E+00 0. -1.
          2    1    1    2  501    0 -0.38618198543E+02 -0.68646916450E+02 -0.10850715691E+03  0.13408045159E+03  0.00000000000E+00 0. -1.
<scales pt_clust_5="13000.00000" pt_clust_6="13000.00000" pt_clust_7="13000.00000" pt_clust_8="13000.00000" pt_clust_9="13000.00000"></scales>
<clustering>
<clus scale="   90.580">  7  8 -1 -1</clus>
<clus scale="   94.398">  5  6 -1 -1</clus>
<clus scale="   78.764">  5  9 -1 -1</clus>
<clus scale="  130.537">  1  7  2 -1</clus>
<clus scale="  225.125">  2  5  1 -1</clus>
</clustering>
</event>
<event>
 9    1  0.3312826E-006  0.1673283E+03  0.7546771E-02  0.1198131E+00
         21   -1    0    0  501  502  0.00000000000E+00  0.00000000000E+00  0.48122650349E+02  0.48122650349E+02  0.00000000000E+00 0.  1.
          2   -1    0    0  502    0 -0.00000000000E+00 -0.00000000000E+00 -0.48150358820E+03  0.48150358820E+03  0.00000000000E+00 0. -1.
         23    2    1    2    0    0  0.61670452992E+02  0.36960705055E+02 -0.28169984405E+03  0.30378133211E+03  0.88084942588E+02 0.  0.
         23    2    1    2    0    0 -0.53167879071E+02 -0.67951935734E+02 -0.12779859922E+03  0.18580587936E+03  0.10366799847E+03 0.  0.
        -11    1    4    4    0    0 -0.24503943988E+02 -0.47454554612E+01 -0.11184158903E+03  0.11459277314E+03  0.00000000000E+00 0. -1.
         11    1    4    4    0    0 -0.28663935083E+02 -0.63206480273E+02 -0.15957010184E+02  0.71213106216E+02  0.00000000000E+00 0.  1.
        -11    1    3    3    0    0  0.82458865880E+02  0.38832137304E+02 -0.24709263830E+03  0.26336698987E+03  0.00000000000E+00 0.  1.
         11    1    3    3    0    0 -0.20788412889E+02 -0.18714322489E+01 -0.34607205745E+02  0.40414342238E+02  0.00000000000E+00 0. -1.
          2    1    1    2  501    0 -0.85025739208E+01  0.30991230679E+02 -0.23882494586E+02  0.40039027085E+02  0.00000000000E+00 0. -1.
<scales pt_clust_5="13000.00000" pt_clust_6="13000.00000" pt_clust_7="13000.00000" pt_clust_8="13000.00000" pt_clust_9="13000.00000"></scales>
<clustering>
<clus scale="   88.085">  7  8 -1 -1</clus>
<clus scale="  103.668">  5  6 -1 -1</clus>
<clus scale="   32.136">  5  9 -1 -1</clus>
<clus scale="  113.703">  2  7  1 -1</clus>
<clus scale="  167.328">  1  5  2 -1</clus>
</clustering>
</event>
<event>
 9    1  0.3312826E-006  0.1751090E+03  0.7546771E-02  0.1192706E+00
          2   -1    0    0  502    0 -0.00000000000E+00  0.00000000000E+00  0.64685639441E+03  0.64685639441E+03  0.00000000000E+00 0. -1.
         21   -1    0    0  501  502  0.00000000000E+00 -0.00000000000E+00 -0.79961508435E+02  0.79961508435E+02  0.00000000000E+00 0. -1.
         23    2    1    2    0    0  0.62572531065E+02 -0.17848446311E+02  0.53783294375E+03  0.54931368716E+03  0.90814992362E+02 0.  0.
         23    2    1    2    0    0 -0.81476083770E+02  0.50718379817E+02  0.52289215076E+02  0.13303756484E+03  0.75855951432E+02 0.  0.
        -11    1    3    3    0    0  0.74525164868E+02 -0.38663560863E+02  0.46798894604E+03  0.47546032931E+03  0.00000000000E+00 0.  1.
         11    1    3    3    0    0 -0.11952633803E+02  0.20815114552E+02  0.69843997711E+02  0.73853357844E+02  0.00000000000E+00 0. -1.
        -13    1    4    4    0    0 -0.43975586982E+02 -0.28713465083E+01 -0.71635391261E+01  0.44647655862E+02  0.00000000000E+00 0. -1.
         13    1    4    4    0    0 -0.37500496788E+02  0.53589726325E+02  0.59452754202E+02  0.88389908978E+02  0.00000000000E+00 0.  1.
          2    1    1    2  501    0  0.18903552705E+02 -0.32869933506E+02 -0.23227272849E+02  0.44466650848E+02  0.00000000000E+00 0. -1.
<scales pt_clust_5="13000.00000" pt_clust_6="13000.00000" pt_clust_7="13000.00000" pt_clust_8="13000.00000" pt_clust_9="13000.00000"></scales>
<clustering>
<clus scale="   75.856">  7  8 -1 -1</clus>
<clus scale="   37.918">  7  9 -1 -1</clus>
<clus scale="   90.815">  5  6 -1 -1</clus>
<clus scale="  111.720">  1  5  2 -1</clus>
<clus scale="  175.109">  2  5  1 -1</clus>
</clustering>
</event>
<event>
 9    1  0.3312826E-006  0.2690985E+03  0.7546771E-02  0.1140927E+00
         21   -1    0    0  501  502  0.00000000000E+00  0.00000000000E+00  0.45774241092E+03  0.45774241092E+03  0.00000000000E+00 0.  1.
          1   -1    0    0  502    0 -0.00000000000E+00 -0.00000000000E+00 -0.75200774856E+02  0.75200774856E+02  0.00000000000E+00 0. -1.
         23    2    1    2    0    0  0.12813368596E+02 -0.42034336960E+02  0.11865153210E+03  0.15604535683E+03  0.91328524673E+02 0.  0.
         23    2    1    2    0    0 -0.54500009802E+02  0.62356659483E+02  0.13919226769E+02  0.12266130071E+03  0.89406072316E+02 0.  0.
        -11    1    3    3    0    0 -0.32710211893E+02 -0.57480575606E+01  0.78752405989E+02  0.85468939252E+02  0.00000000000E+00 0.  1.
         11    1    3    3    0    0  0.45523580489E+02 -0.36286279400E+02  0.39899126111E+02  0.70576417574E+02  0.00000000000E+00 0. -1.
        -13    1    4    4    0    0 -0.73821467769E+02  0.69288784564E+02  0.13395049055E+02  0.10212723490E+03  0.00000000000E+00 0.  1.
         13    1    4    4    0    0  0.19321457967E+02 -0.69321250810E+01  0.52417771405E+00  0.20534065803E+02  0.00000000000E+00 0. -1.
          1    1    1    2  501    0  0.41686641206E+02 -0.20322322523E+02  0.24997087720E+03  0.25423652825E+03  0.00000000000E+00 0. -1.
<scales pt_clust_5="13000.00000" pt_clust_6="13000.00000" pt_clust_7="13000.00000" pt_clust_8="13000.00000" pt_clust_9="13000.00000"></scales>
<clustering>
<clus scale="   89.406">  7  8 -1 -1</clus>
<clus scale="   46.376">  7  9 -1 -1</clus>
<clus scale="   91.329">  5  6 -1 -1</clus>
<clus scale="  101.351">  2  5  1 -1</clus>
<clus scale="  269.098">  1  5  2 -1</clus>
</clustering>
</event>
<event>
 9    1  0.3312826E-006  0.3123879E+03  0.7546771E-02  0.1113675E+00
         21   -1    0    0  501  502  0.00000000000E+00  0.00000000000E+00  0.12201210828E+03  0.12201210828E+03  0.00000000000E+00 0. -1.
         -1   -1    0    0    0  501 -0.00000000000E+00 -0.00000000000E+00 -0.53144937330E+03  0.53144937330E+03  0.00000000000E+00 0.  1.
         23    2    1    2    0    0  0.87902186229E+02 -0.16495311101E+02 -0.29433532706E+03  0.32054309066E+03  0.90087172108E+02 0.  0.
         23    2    1    2    0    0 -0.65810968083E+02 -0.12189595138E+03 -0.26551883981E+02  0.16714361749E+03  0.89678759135E+02 0.  0.
        -13    1    4    4    0    0 -0.47197656245E+02 -0.39399640989E+02  0.26888292322E+02  0.67103880134E+02  0.00000000000E+00 0. -1.
         13    1    4    4    0    0 -0.18613311839E+02 -0.82496310393E+02 -0.53440176303E+02  0.10003973735E+03  0.00000000000E+00 0.  1.
        -13    1    3    3    0    0  0.95560792294E+02 -0.38226397266E+02 -0.25450320773E+03  0.27452687522E+03  0.00000000000E+00 0. -1.
         13    1    3    3    0    0 -0.76586060656E+01  0.21731086165E+02 -0.39832119332E+02  0.46016215438E+02  0.00000000000E+00 0.  1.
         -1    1    1    2    0  502 -0.22091218146E+02  0.13839126248E+03 -0.88550053973E+02  0.16577477344E+03  0.00000000000E+00 0.  1.
<scales pt_clust_5="13000.00000" pt_clust_6="13000.00000" pt_clust_7="13000.00000" pt_clust_8="13000.00000" pt_clust_9="13000.00000"></scales>
<clustering>
<clus scale="   89.679">  5  6 -1 -1</clus>
<clus scale="   90.087">  7  8 -1 -1</clus>
<clus scale="  126.943">  2  7  1 -1</clus>
<clus scale="  131.990">  5  9 -1 -1</clus>
<clus scale="  312.388">  1  5  2 -1</clus>
</clustering>
</event>
<event>
 9    1  0.3312826E-006  0.1913103E+03  0.7546771E-02  0.1178636E+00
          1   -1    0    0  502    0 -0.00000000000E+00  0.00000000000E+00  0.10703795206E+03  0.10703795206E+03  0.00000000000E+00 0. -1.
         21   -1    0    0  501  502  0.00000000000E+00 -0.00000000000E+00 -0.27499036164E+03  0.27499036164E+03  0.00000000000E+00 0. -1.
         23    2    1    2    0    0  0.57444443677E+02 -0.47376504260E+02  0.13991235423E+02  0.11801482538E+03  0.90483960318E+02 0.  0.
         23    2    1    2    0    0  0.24798402939E+02  0.26744651484E+02 -0.60131130641E+02  0.11559567327E+03  0.91740774110E+02 0.  0.
        -11    1    4    4    0    0  0.38164047235E+01  0.24946025143E+02  0.20341208910E+02  0.32413483234E+02  0.00000000000E+00 0. -1.
         11    1    4    4    0    0  0.20981998216E+02  0.17986263409E+01 -0.80472339550E+02  0.83182190032E+02  0.00000000000E+00 0.  1.
        -11    1    3    3    0    0  0.71459327099E+01 -0.55732422097E+02 -0.16555539990E+02  0.58576899298E+02  0.00000000000E+00 0. -1.
         11    1    3    3    0    0  0.50298510967E+02  0.83559178362E+01  0.30546775413E+02  0.59437926079E+02  0.00000000000E+00 0.  1.
          1    1    1    2  501    0 -0.82242846616E+02  0.20631852776E+02 -0.12181251436E+03  0.14841781505E+03  0.00000000000E+00 0. -1.
<scales pt_clust_5="13000.00000" pt_clust_6="13000.00000" pt_clust_7="13000.00000" pt_clust_8="13000.00000" pt_clust_9="13000.00000"></scales>
<clustering>
<clus scale="   90.484">  7  8 -1 -1</clus>
<clus scale="   91.741">  5  6 -1 -1</clus>
<clus scale="   84.791">  5  9 -1 -1</clus>
<clus scale="  117.183">  1  7  2 -1</clus>
<clus scale="  191.310">  2  5  1 -1</clus>
</clustering>
</event>
<event>
 9    1  0.3312826E-006  0.1481044E+03  0.7546771E-02  0.1223887E+00
         21   -1    0    0  501  502  0.00000000000E+00  0.00000000000E+00  0.35454702265E+02  0.35454702265E+02  0.00000000000E+00 0.  1.
          3   -1    0    0  502    0 -0.00000000000E+00 -0.00000000000E+00 -0.44915965109E+03  0.44915965109E+03  0.00000000000E+00 0. -1.
         23    2    1    2    0    0 -0.25000318386E+02 -0.10774538241E+02 -0.22941045651E+03  0.24818384846E+03  0.90691556865E+02 0.  0.
         23    2    1    2    0    0  0.23901533465E+01  0.46651261836E+02 -0.12432119538E+03  0.16297878467E+03  0.94468362784E+02 0.  0.
        -13    1    4    4    0    0  0.26251116508E+02 -0.90856103196E+01 -0.88049675783E+02  0.92327757680E+02  0.00000000000E+00 0. -1.
         13    1    4    4    0    0 -0.23860963161E+02  0.55736872155E+02 -0.36271519601E+02  0.70651026991E+02  0.00000000000E+00 0.  1.
        -13    1    3    3    0    0 -0.41242118746E+02  0.17156081339E+02 -0.55231340622E+02  0.71033403920E+02  0.00000000000E+00 0.  1.
         13    1    3    3    0    0  0.16241800360E+02 -0.27930619580E+02 -0.17417911589E+03  0.17715044454E+03  0.00000000000E+00 0. -1.
          3    1    1    2  501    0  0.22610165039E+02 -0.35876723595E+02 -0.59973296931E+02  0.73451720224E+02  0.00000000000E+00 0. -1.
<scales pt_clust_5="13000.00000" pt_clust_6="13000.00000" pt_clust_7="13000.00000" pt_clust_8="13000.00000" pt_clust_9="13000.00000"></scales>
<clustering>
<clus scale="   90.692">  7  8 -1 -1</clus>
<clus scale="   94.468">  5  6 -1 -1</clus>
<clus scale="   42.407">  5  9 -1 -1</clus>
<clus scale="   94.689">  2  7  1 -1</clus>
<clus scale="  148.104">  1  5  2 -1</clus>
</clustering>
</event>
<event>
 9    1  0.3312826E-006  0.2920880E+03  0.7546771E-02  0.1125945E+00
          1   -1    0    0  502    0 -0.00000000000E+00  0.00000000000E+00  0.70706872454E+02  0.70706872454E+02  0.00000000000E+00 0. -1.
         21   -1    0    0  501  502  0.00000000000E+00 -0.00000000000E+00 -0.73472116630E+03  0.73472116630E+03  0.00000000000E+00 0. -1.
         23    2    1    2    0    0  0.16217798361E+02  0.65276543231E+02 -0.38462455650E+03  0.40123247655E+03  0.92343958618E+02 0.  0.
         23    2    1    2    0    0 -0.55655963241E+02  0.18073492628E+02  0.90787153167E+00  0.10912040759E+03  0.92098869390E+02 0.  0.
        -11    1    4    4    0    0  0.22598363110E+02  0.17849498255E+02  0.96679703942E+01  0.30376969150E+02  0.00000000000E+00 0.  1.
         11    1    4    4    0    0 -0.78254326350E+02  0.22399437315E+00 -0.87600988625E+01  0.78743438445E+02  0.00000000000E+00 0. -1.
        -11    1    3    3    0    0  0.72845323935E+01  0.88054792811E+02 -0.27238194851E+03  0.28635404105E+03  0.00000000000E+00 0. -1.
         11    1    3    3    0    0  0.89332659680E+01 -0.22778249580E+02 -0.11224260799E+03  0.11487843550E+03  0.00000000000E+00 0.  1.
          1    1    1    2  501    0  0.39438164879E+02 -0.83350035859E+02 -0.28029760888E+03  0.29507515461E+03  0.00000000000E+00 0. -1.
<scales pt_clust_5="13000.00000" pt_clust_6="13000.00000" pt_clust_7="13000.00000" pt_clust_8="13000.00000" pt_clust_9="13000.00000"></scales>
<clustering>
<clus scale="   92.099">  5  6 -1 -1</clus>
<clus scale="   92.210">  5  9 -1 -1</clus>
<clus scale="   92.344">  7  8 -1 -1</clus>
<clus scale="  114.243">  1  7  2 -1</clus>
<clus scale="  292.088">  2  5  1 -1</clus>
</clustering>
</event>
<event>
 9    1  0.3312826E-006  0.3498918E+03  0.7546771E-02  0.1102111E+00
         21   -1    0    0  501  502  0.00000000000E+00  0.00000000000E+00  0.15541063680E+03  0.15541063680E+03  0.00000000000E+00 0.  1.
         -4   -1    0    0    0  501 -0.00000000000E+00 -0.00000000000E+00 -0.52160014017E+03  0.52160014017E+03  0.00000000000E+00 0.  1.
         23    2    1    2    0    0 -0.58206188292E+02 -0.54949859987E+02 -0.29628899832E+03  0.32020504488E+03  0.91305272416E+02 0.  0.
         23    2    1    2    0    0  0.16397200874E+03  0.12213054121E+03 -0.60783941754E+02  0.23117625930E+03  0.89135214937E+02 0.  0.
        -11    1    4    4    0    0  0.22893869144E+02  0.54331049370E+02 -0.44381447112E+02  0.73795020277E+02  0.00000000000E+00 0. -1.
         11    1    4    4    0    0  0.14107813960E+03  0.67799491845E+02 -0.16402494642E+02  0.15738123902E+03  0.00000000000E+00 0.  1.
        -13    1    3    3    0    0 -0.79561028157E+02 -0.55341641411E+02 -0.26630280867E+03  0.28338990875E+03  0.00000000000E+00 0.  1.
         13    1    3    3    0    0  0.21354839865E+02  0.39178142336E+00 -0.29986189649E+02  0.36815136126E+02  0.00000000000E+00 0. -1.
         -4    1    1    2    0  502 -0.10576582045E+03 -0.67180681227E+02 -0.91165632928E+01  0.12562947278E+03  0.00000000000E+00 0.  1.
<scales pt_clust_5="13000.00000" pt_clust_6="13000.00000" pt_clust_7="13000.00000" pt_clust_8="13000.00000" pt_clust_9="13000.00000"></scales>
<clustering>
<clus scale="   89.135">  5  6 -1 -1</clus>
<clus scale="   91.305">  7  8 -1 -1</clus>
<clus scale="  121.425">  2  7  1 -1</clus>
<clus scale="  150.194">  5  9 -1 -1</clus>
<clus scale="  349.892">  1  5  2 -1</clus>
</clustering>
</event>
<event>
 9    1  0.3312826E-006  0.3246157E+03  0.7546771E-02  0.1123164E+00
         21   -1    0    0  501  502  0.00000000000E+00  0.00000000000E+00  0.81315611621E+03  0.81315611621E+03  0.00000000000E+00 0.  1.
          2   -1    0    0  502    0 -0.00000000000E+00 -0.00000000000E+00 -0.55836973560E+02  0.55836973560E+02  0.00000000000E+00 0. -1.
         23    2    1    2    0    0  0.13371972865E+02 -0.50014287481E+01  0.26219301409E+03  0.27694136915E+03  0.88020005464E+02 0.  0.
         23    2    1    2    0    0 -0.84909525462E+02  0.48805284566E+02  0.55880095375E+02  0.14486777985E+03  0.90953313646E+02 0.  0.
        -11    1    4    4    0    0 -0.10400106638E+03  0.36590893700E+02  0.51904523165E+02  0.12185727239E+03  0.00000000000E+00 0.  1.
         11    1    4    4    0    0  0.19091540919E+02  0.12214390866E+02  0.39755722105E+01  0.23010507454E+02  0.00000000000E+00 0. -1.
        -13    1    3    3    0    0  0.46144202204E+02 -0.21562922048E+02  0.12652814877E+03  0.13639508582E+03  0.00000000000E+00 0. -1.
         13    1    3    3    0    0 -0.32772229339E+02  0.16561493300E+02  0.13566486532E+03  0.14054628334E+03  0.00000000000E+00 0.  1.
          2    1    1    2  501    0  0.71537552597E+02 -0.43803855817E+02  0.43924603318E+03  0.44718394077E+03  0.00000000000E+00 0. -1.
<scales pt_clust_5="13000.00000" pt_clust_6="13000.00000" pt_clust_7="13000.00000" pt_clust_8="13000.00000" pt_clust_9="13000.00000"></scales>
<clustering>
<clus scale="   88.020">  7  8 -1 -1</clus>
<clus scale="   89.170">  2  7  1 -1</clus>
<clus scale="   90.953">  5  6 -1 -1</clus>
<clus scale="   85.031">  5  9 -1 -1</clus>
<clus scale="  324.616">  1  5  2 -1</clus>
</clustering>
</event>
<event>
 9    1  0.3312826E-006  0.5109316E+03  0.7546771E-02  0.1030201E+00
         21   -1    0    0  501  502  0.00000000000E+00  0.00000000000E+00  0.55803811317E+03  0.55803811317E+03  0.00000000000E+00 0.  1.
         -4   -1    0    0    0  501 -0.00000000000E+00 -0.00000000000E+00 -0.29803466214E+03  0.29803466214E+03  0.00000000000E+00 0.  1.
         23    2    1    2    0    0 -0.48066699389E+02  0.26561233394E+03  0.64029366283E+01  0.28566562950E+03  0.93292736853E+02 0.  0.
         23    2    1    2    0    0  0.80659602743E+02 -0.44999663551E+02 -0.91974608354E+02  0.15912328622E+03  0.91268561953E+02 0.  0.
        -11    1    3    3    0    0 -0.15843323333E+02  0.32805859307E+02 -0.30809070006E+02  0.47711991089E+02  0.00000000000E+00 0. -1.
         11    1    3    3    0    0 -0.32223376057E+02  0.23280647463E+03  0.37212006634E+02  0.23795363841E+03  0.00000000000E+00 0.  1.
        -13    1    4    4    0    0  0.16140137275E+02  0.26504721377E+02 -0.98651987021E+01  0.32562653945E+02  0.00000000000E+00 0.  1.
         13    1    4    4    0    0  0.64519465468E+02 -0.71504384928E+02 -0.82109409652E+02  0.12656063227E+03  0.00000000000E+00 0. -1.
         -4    1    1    2    0  502 -0.32592903354E+02 -0.22061267039E+03  0.34557512276E+03  0.41128385959E+03  0.00000000000E+00 0.  1.
<scales pt_clust_5="13000.00000" pt_clust_6="13000.00000" pt_clust_7="13000.00000" pt_clust_8="13000.00000" pt_clust_9="13000.00000"></scales>
<clustering>
<clus scale="   91.269">  7  8 -1 -1</clus>
<clus scale="   93.293">  5  6 -1 -1</clus>
<clus scale="  223.007">  7  9 -1 -1</clus>
<clus scale="  285.594">  2  5  1 -1</clus>
<clus scale="  510.932">  1  5  2 -1</clus>
</clustering>
</event>
<event>
 9    1  0.3312826E-006  0.3091982E+03  0.7546771E-02  0.1100389E+00
          1   -1    0    0  502    0 -0.00000000000E+00  0.00000000000E+00  0.74226642637E+03  0.74226642637E+03  0.00000000000E+00 0. -1.
         21   -1    0    0  501  502  0.00000000000E+00 -0.00000000000E+00 -0.12208161748E+03  0.12208161748E+03  0.00000000000E+00 0. -1.
         23    2    1    2    0    0 -0.11701582354E+03  0.73005831727E+02  0.49972125813E+03  0.53251221607E+03  0.12175947609E+03 0.  0.
         23    2    1    2    0    0  0.89904400845E+02 -0.85437183196E+02  0.19675392437E+03  0.24992252699E+03  0.91470482552E+02 0.  0.
        -13    1    3    3    0    0 -0.90193798377E+02  0.10566754355E+03  0.41843943397E+03  0.44089920722E+03  0.00000000000E+00 0. -1.
         13    1    3    3    0    0 -0.26822025163E+02 -0.32661711820E+02  0.81281824154E+02  0.91613008851E+02  0.00000000000E+00 0.  1.
        -13    1    4    4    0    0  0.53263893816E+02 -0.82554525694E+01  0.27919978997E+02  0.60701895430E+02  0.00000000000E+00 0.  1.
         13    1    4    4    0    0  0.36640507029E+02 -0.77181730627E+02  0.16883394537E+03  0.18922063156E+03  0.00000000000E+00 0. -1.
          1    1    1    2  501    0  0.27111422695E+02  0.12431351469E+02 -0.76290373612E+02  0.81913300787E+02  0.00000000000E+00 0. -1.
<scales pt_clust_5="13000.00000" pt_clust_6="13000.00000" pt_clust_7="13000.00000" pt_clust_8="13000.00000" pt_clust_9="13000.00000"></scales>
<clustering>
<clus scale="   91.470">  7  8 -1 -1</clus>
<clus scale="   29.826">  7  9 -1 -1</clus>
<clus scale="  121.759">  5  6 -1 -1</clus>
<clus scale="  183.978">  1  5  2 -1</clus>
<clus scale="  309.198">  2  5  1 -1</clus>
</clustering>
</event>
<event>
 9    1  0.3312826E-006  0.1929279E+03  0.7546771E-02  0.1174277E+00
         21   -1    0    0  501  502  0.00000000000E+00  0.00000000000E+00  0.49667230007E+02  0.49667230007E+02  0.00000000000E+00 0. -1.
          1   -1    0    0  502    0 -0.00000000000E+00 -0.00000000000E+00 -0.57745027621E+03  0.57745027621E+03  0.00000000000E+00 0. -1.
         23    2    1    2    0    0 -0.24825920222E+02  0.71864867596E+02 -0.11159578186E+03  0.16838773692E+03  0.10059784245E+03 0.  0.
         23    2    1    2    0    0 -0.10637826291E+02  0.14496603958E+02 -0.12549550387E+03  0.15341406271E+03  0.86391193248E+02 0.  0.
        -11    1    4    4    0    0 -0.30200829850E+02  0.40613009255E+02 -0.99729516564E+02  0.11183685939E+03  0.00000000000E+00 0. -1.
         11    1    4    4    0    0  0.19563003559E+02 -0.26116405297E+02 -0.25765987307E+02  0.41577203319E+02  0.00000000000E+00 0.  1.
        -13    1    3    3    0    0  0.13038354420E+02  0.82592478329E+02 -0.92349289541E+02  0.12457892053E+03  0.00000000000E+00 0.  1.
         13    1    3    3    0    0 -0.37864274642E+02 -0.10727610733E+02 -0.19246492321E+02  0.43808816383E+02  0.00000000000E+00 0. -1.
          1    1    1    2  501    0  0.35463746513E+02 -0.86361471554E+02 -0.29069176047E+03  0.30531570659E+03  0.00000000000E+00 0. -1.
<scales pt_clust_5="13000.00000" pt_clust_6="13000.00000" pt_clust_7="13000.00000" pt_clust_8="13000.00000" pt_clust_9="13000.00000"></scales>
<clustering>
<clus scale="   86.391">  5  6 -1 -1</clus>
<clus scale="   93.359">  5  9 -1 -1</clus>
<clus scale="  100.598">  7  8 -1 -1</clus>
<clus scale="  126.098">  2  7  1 -1</clus>
<clus scale="  192.928">  1  5  2 -1</clus>
</clustering>
</event>
<event>
 9    1  0.3312826E-006  0.2323420E+03  0.7546771E-02  0.1135536E+00
          3   -1    0    0  502    0 -0.00000000000E+00  0.00000000000E+00  0.67827323293E+02  0.67827323293E+02  0.00000000000E+00 0. -1.
         21   -1    0    0  501  502  0.00000000000E+00 -0.00000000000E+00 -0.72398390261E+03  0.72398390261E+03  0.00000000000E+00 0. -1.
         23    2    1    2    0    0  0.13884290564E+03  0.63645709210E+02 -0.14623190548E+03  0.23144887623E+03  0.94109953687E+02 0.  0.
         23    2    1    2    0    0 -0.30182751393E+02 -0.50694180597E+02 -0.14993004759E+03  0.18410326055E+03  0.89073525521E+02 0.  0.
        -11    1    3    3    0    0  0.29799679566E+02 -0.23344263580E+02 -0.46563537140E+02  0.60009487045E+02  0.00000000000E+00 0.  1.
         11    1    3    3    0    0  0.10904322607E+03  0.86989972790E+02 -0.99668368338E+02  0.17143938919E+03  0.00000000000E+00 0. -1.
        -13    1    4    4    0    0 -0.34978971242E+02 -0.74201200489E+02 -0.12491778391E+03  0.14944497088E+03  0.00000000000E+00 0. -1.
         13    1    4    4    0    0  0.47962198489E+01  0.23507019893E+02 -0.25012263677E+02  0.34658289677E+02  0.00000000000E+00 0.  1.
          3    1    1    2  501    0 -0.10866015424E+03 -0.12951528613E+02 -0.35999462625E+03  0.37625908911E+03  0.00000000000E+00 0. -1.
<scales pt_clust_5="13000.00000" pt_clust_6="13000.00000" pt_clust_7="13000.00000" pt_clust_8="13000.00000" pt_clust_9="13000.00000"></scales>
<clustering>
<clus scale="   89.074">  7  8 -1 -1</clus>
<clus scale="   94.110">  5  6 -1 -1</clus>
<clus scale="  109.429">  7  9 -1 -1</clus>
<clus scale="  179.401">  1  5  2 -1</clus>
<clus scale="  232.342">  2  5  1 -1</clus>
</clustering>
</event>
<event>
 9    1  0.4146874E-006  0.3288258E+03  0.7546771E-02  0.1116020E+00
         21   -1    0    0  501  502  0.00000000000E+00  0.00000000000E+00  0.18285191962E+03  0.18285191962E+03  0.00000000000E+00 0.  1.
          3   -1    0    0  502    0 -0.00000000000E+00 -0.00000000000E+00 -0.42337455897E+03  0.42337455897E+03  0.00000000000E+00 0. -1.
         23    2    1    2    0    0 -0.23896125771E+02  0.35727093293E+02  0.92565240712E+02  0.13817315012E+03  0.93145292972E+02 0.  0.
         23    2    1    2    0    0 -0.64438648057E+01  0.67823054868E+02 -0.34129820574E+03  0.35983799841E+03  0.91418978847E+02 0.  0.
        -13    1    3    3    0    0  0.80761488189E+01  0.57984446423E+02  0.75764866456E+02  0.95748290824E+02  0.00000000000E+00 0.  1.
         13    1    3    3    0    0 -0.31972274590E+02 -0.22257353129E+02  0.16800374256E+02  0.42424859291E+02  0.00000000000E+00 0. -1.
        -13    1    4    4    0    0  0.22532711706E+01 -0.22349164570E+02 -0.88214860536E+02  0.91029797360E+02  0.00000000000E+00 0.  1.
         13    1    4    4    0    0 -0.86971359763E+01  0.90172219438E+02 -0.25308334521E+03  0.26880820105E+03  0.00000000000E+00 0. -1.
          3    1    1    2  501    0  0.30339990576E+02 -0.10355014816E+03  0.82103256832E+01  0.10821533006E+03  0.00000000000E+00 0. -1.
<scales pt_clust_5="13000.00000" pt_clust_6="13000.00000" pt_clust_7="13000.00000" pt_clust_8="13000.00000" pt_clust_9="13000.00000"></scales>
<clustering>
<clus scale="   91.419">  7  8 -1 -1</clus>
<clus scale="   93.145">  5  6 -1 -1</clus>
<clus scale="  102.584">  2  5  1 -1</clus>
<clus scale="  102.798">  7  9 -1 -1</clus>
<clus scale="  328.826">  1  5  2 -1</clus>
</clustering>
</event>
<event>
 9    1  0.3312826E-006  0.1808024E+03  0.7546771E-02  0.1188111E+00
         21   -1    0    0  501  502  0.00000000000E+00  0.00000000000E+00  0.55303117041E+02  0.55303117041E+02  0.00000000000E+00 0. -1.
          2   -1    0    0  502    0 -0.00000000000E+00 -0.00000000000E+00 -0.38853573281E+03  0.38853573281E+03  0.00000000000E+00 0. -1.
         23    2    1    2    0    0 -0.26012361571E+02 -0.55735168188E+02 -0.13115441857E+03  0.17268369367E+03  0.93995343618E+02 0.  0.
         23    2    1    2    0    0  0.17341256518E+02  0.99647863770E+02 -0.15225200278E+03  0.20417633455E+03  0.90977399996E+02 0.  0.
        -13    1    3    3    0    0  0.18582374436E+02  0.11311785706E+02 -0.39131134740E+01  0.22103700880E+02  0.00000000000E+00 0.  1.
         13    1    3    3    0    0 -0.44594736007E+02 -0.67046953894E+02 -0.12724130510E+03  0.15057999279E+03  0.00000000000E+00 0. -1.
        -13    1    4    4    0    0 -0.26792236541E+02  0.71060799440E+01 -0.11424478375E+02  0.29980644042E+02  0.00000000000E+00 0. -1.
         13    1    4    4    0    0  0.44133493058E+02  0.92541783826E+02 -0.14082752440E+03  0.17419569051E+03  0.00000000000E+00 0.  1.
          2    1    1    2  501    0  0.86711050532E+01 -0.43912695582E+02 -0.49826194423E+02  0.66978821629E+02  0.00000000000E+00 0. -1.
<scales pt_clust_5="13000.00000" pt_clust_6="13000.00000" pt_clust_7="13000.00000" pt_clust_8="13000.00000" pt_clust_9="13000.00000"></scales>
<clustering>
<clus scale="   90.977">  7  8 -1 -1</clus>
<clus scale="   44.761">  7  9 -1 -1</clus>
<clus scale="   93.995">  5  6 -1 -1</clus>
<clus scale="  112.331">  2  5  1 -1</clus>
<clus scale="  180.802">  1  5  2 -1</clus>
</clustering>
</event>
<event>
 9    1  0.3312826E-006  0.2688805E+03  0.7546771E-02  0.1142027E+00
         -2   -1    0    0    0  501 -0.00000000000E+00  0.00000000000E+00  0.42644090569E+03  0.42644090569E+03  0.00000000000E+00 0.  1.
         21   -1    0    0  501  502  0.00000000000E+00 -0.00000000000E+00 -0.88742636455E+02  0.88742636455E+02  0.00000000000E+00 0. -1.
         23    2    1    2    0    0  0.34076852802E+01  0.41343823456E+02  0.23604195832E+02  0.10172034031E+03  0.89827309408E+02 0.  0.
         23    2    1    2    0    0  0.13086333047E+02 -0.14003227583E+03  0.21528286536E+03  0.27283917079E+03  0.91182293304E+02 0.  0.
        -11    1    3    3    0    0 -0.31293330816E+01  0.69736520623E+02  0.16913965805E+02  0.71826577764E+02  0.00000000000E+00 0.  1.
         11    1    3    3    0    0  0.65370183618E+01 -0.28392697167E+02  0.66902300266E+01  0.29893762548E+02  0.00000000000E+00 0. -1.
        -13    1    4    4    0    0 -0.80899243154E+01 -0.14510473501E+03  0.17957012833E+03  0.23101138930E+03  0.00000000000E+00 0. -1.
         13    1    4    4    0    0  0.21176257362E+02  0.50724591816E+01  0.35712737025E+02  0.41827781484E+02  0.00000000000E+00 0.  1.
         -2    1    1    2    0  502 -0.16494018327E+02  0.98688452374E+02  0.98811208048E+02  0.14062403105E+03  0.00000000000E+00 0.  1.
<scales pt_clust_5="13000.00000" pt_clust_6="13000.00000" pt_clust_7="13000.00000" pt_clust_8="13000.00000" pt_clust_9="13000.00000"></scales>
<clustering>
<clus scale="   89.827">  5  6 -1 -1</clus>
<clus scale="   91.182">  7  8 -1 -1</clus>
<clus scale="   98.944">  1  5  2 -1</clus>
<clus scale="  113.342">  7  9 -1 -1</clus>
<clus scale="  268.881">  2  5  1 -1</clus>
</clustering>
</event>
<event>
 9    1  0.3312826E-006  0.4807076E+03  0.7546771E-02  0.1027586E+00
          1   -1    0    0  502    0 -0.00000000000E+00  0.00000000000E+00  0.96117833487E+03  0.96117833487E+03  0.00000000000E+00 0. -1.
         21   -1    0    0  501  502  0.00000000000E+00 -0.00000000000E+00 -0.22807389724E+03  0.22807389724E+03  0.00000000000E+00 0. -1.
         23    2    1    2    0    0  0.21773571567E+03 -0.28500597189E+03  0.57328615144E+03  0.68267385864E+03  0.93537906422E+02 0.  0.
         23    2    1    2    0    0 -0.10838771354E+03 -0.20969894122E+02 -0.38709512028E+01  0.14274821724E+03  0.90412589581E+02 0.  0.
        -13    1    4    4    0    0 -0.52498934702E+02 -0.46547624339E+02  0.25467024784E+02  0.74641736500E+02  0.00000000000E+00 0. -1.
         13    1    4    4    0    0 -0.55888778843E+02  0.25577730217E+02 -0.29337975986E+02  0.68106480738E+02  0.00000000000E+00 0.  1.
        -13    1    3    3    0    0  0.16380125865E+03 -0.24212547223E+03  0.51606213112E+03  0.59310683676E+03  0.00000000000E+00 0. -1.
         13    1    3    3    0    0  0.53934457029E+02 -0.42880499656E+02  0.57224020325E+02  0.89567021877E+02  0.00000000000E+00 0.  1.
          1    1    1    2  501    0 -0.10934800213E+03  0.30597586601E+03  0.16368923738E+03  0.36383015623E+03  0.00000000000E+00 0. -1.
<scales pt_clust_5="13000.00000" pt_clust_6="13000.00000" pt_clust_7="13000.00000" pt_clust_8="13000.00000" pt_clust_9="13000.00000"></scales>
<clustering>
<clus scale="   90.413">  5  6 -1 -1</clus>
<clus scale="   93.538">  7  8 -1 -1</clus>
<clus scale="  324.928">  5  9 -1 -1</clus>
<clus scale="  370.657">  1  7  2 -1</clus>
<clus scale="  480.708">  2  5  1 -1</clus>
</clustering>
</event>
<event>
 9    1  0.3312826E-006  0.4205654E+03  0.7546771E-02  0.1072368E+00
          2   -1    0    0  502    0 -0.00000000000E+00  0.00000000000E+00  0.38664583024E+03  0.38664583024E+03  0.00000000000E+00 0. -1.
         21   -1    0    0  501  502  0.00000000000E+00 -0.00000000000E+00 -0.23659793268E+03  0.23659793268E+03  0.00000000000E+00 0. -1.
         23    2    1    2    0    0 -0.69481275483E+02  0.10308691653E+03  0.13093115217E+03  0.20224415987E+03  0.91132725131E+02 0.  0.
         23    2    1    2    0    0  0.15268360880E+03  0.84587501335E+02 -0.54232858517E+02  0.20299850263E+03  0.88316812384E+02 0.  0.
        -13    1    4    4    0    0  0.11763501815E+03  0.10246249034E+03 -0.47580319876E+02  0.16309643240E+03  0.00000000000E+00 0. -1.
         13    1    4    4    0    0  0.35048590654E+02 -0.17874989005E+02 -0.66525386410E+01  0.39902070236E+02  0.00000000000E+00 0.  1.
        -13    1    3    3    0    0 -0.77766535385E+02  0.34983917971E+02  0.78409849957E+02  0.11584305380E+03  0.00000000000E+00 0.  1.
         13    1    3    3    0    0  0.82852599017E+01  0.68102998561E+02  0.52521302213E+02  0.86401106074E+02  0.00000000000E+00 0. -1.
          2    1    1    2  501    0 -0.83202333318E+02 -0.18767441787E+03  0.73349603908E+02  0.21800110042E+03  0.00000000000E+00 0. -1.
<scales pt_clust_5="13000.00000" pt_clust_6="13000.00000" pt_clust_7="13000.00000" pt_clust_8="13000.00000" pt_clust_9="13000.00000"></scales>
<clustering>
<clus scale="   88.317">  5  6 -1 -1</clus>
<clus scale="   91.133">  7  8 -1 -1</clus>
<clus scale="  154.142">  1  7  2 -1</clus>
<clus scale="  175.944">  5  9 -1 -1</clus>
<clus scale="  420.565">  2  5  1 -1</clus>
</clustering>
</event>
<event>
 9    1  0.3312826E-006  0.2693577E+03  0.7546771E-02  0.1141977E+00
          3   -1    0    0  502    0 -0.00000000000E+00  0.00000000000E+00  0.13118311297E+03  0.13118311297E+03  0.00000000000E+00 0. -1.
         21   -1    0    0  501  502  0.00000000000E+00 -0.00000000000E+00 -0.45023353870E+03  0.45023353870E+03  0.00000000000E+00 0. -1.
         23    2    1    2    0    0 -0.20419300671E+02 -0.29360939137E+02  0.60778622272E+02  0.11577335031E+03  0.91817292102E+02 0.  0.
         23    2    1    2    0    0  0.75662879043E+02  0.26634770589E+02 -0.49151454455E+02  0.13037183551E+03  0.90258892913E+02 0.  0.
        -11    1    4    4    0    0  0.53239466123E+02 -0.67090722601E+01  0.14058085235E+02  0.55471453597E+02  0.00000000000E+00 0. -1.
         11    1    4    4    0    0  0.22423412920E+02  0.33343842849E+02 -0.63209539690E+02  0.74900381913E+02  0.00000000000E+00 0.  1.
        -13    1    3    3    0    0 -0.86611350699E+01 -0.61997368878E+02  0.47692318531E+02  0.78697180734E+02  0.00000000000E+00 0.  1.
         13    1    3    3    0    0 -0.11758165601E+02  0.32636429741E+02  0.13086303740E+02  0.37076169572E+02  0.00000000000E+00 0. -1.
          3    1    1    2  501    0 -0.55243578372E+02  0.27261685476E+01 -0.33067759355E+03  0.33527146586E+03  0.00000000000E+00 0. -1.
<scales pt_clust_5="13000.00000" pt_clust_6="13000.00000" pt_clust_7="13000.00000" pt_clust_8="13000.00000" pt_clust_9="13000.00000"></scales>
<clustering>
<clus scale="   90.259">  5  6 -1 -1</clus>
<clus scale="   55.311">  5  9 -1 -1</clus>
<clus scale="   91.817">  7  8 -1 -1</clus>
<clus scale="   98.536">  1  7  2 -1</clus>
<clus scale="  269.358">  2  5  1 -1</clus>
</clustering>
</event>
<event>
 9    1  0.3312826E-006  0.3613404E+03  0.7546771E-02  0.1068905E+00
         21   -1    0    0  501  502  0.00000000000E+00  0.00000000000E+00  0.26303396778E+03  0.26303396778E+03  0.00000000000E+00 0. -1.
          1   -1    0    0  502    0 -0.00000000000E+00 -0.00000000000E+00 -0.53526813470E+03  0.53526813470E+03  0.00000000000E+00 0. -1.
         23    2    1    2    0    0  0.24771399495E+03  0.38196544784E+02 -0.33813946165E+03  0.43100060566E+03  0.92747114400E+02 0.  0.
         23    2    1    2    0    0 -0.12219710624E+03 -0.36258834713E+02 -0.80262570204E+02  0.17462744871E+03  0.88350607236E+02 0.  0.
        -11    1    3    3    0    0  0.33430629391E+02  0.14900406939E+02 -0.92148828516E+01  0.37743120888E+02  0.00000000000E+00 0.  1.
         11    1    3    3    0    0  0.21428336556E+03  0.23296137845E+02 -0.32892457880E+03  0.39325748478E+03  0.00000000000E+00 0. -1.
        -11    1    4    4    0    0 -0.11113951875E+03  0.60250001401E+01 -0.55078125299E+02  0.12418491511E+03  0.00000000000E+00 0. -1.
         11    1    4    4    0    0 -0.11057587495E+02 -0.42283834853E+02 -0.25184444905E+02  0.50442533603E+02  0.00000000000E+00 0.  1.
          1    1    1    2  501    0 -0.12551688871E+03 -0.19377100716E+01  0.14616786494E+03  0.19267404810E+03  0.00000000000E+00 0. -1.
<scales pt_clust_5="13000.00000" pt_clust_6="13000.00000" pt_clust_7="13000.00000" pt_clust_8="13000.00000" pt_clust_9="13000.00000"></scales>
<clustering>
<clus scale="   88.351">  7  8 -1 -1</clus>
<clus scale="   92.747">  5  6 -1 -1</clus>
<clus scale="  125.532">  7  9 -1 -1</clus>
<clus scale="  267.251">  2  5  1 -1</clus>
<clus scale="  361.340">  1  5  2 -1</clus>
</clustering>
</event>
<event>
 9    1  0.3312826E-006  0.5140316E+03  0.7546771E-02  0.1037995E+00
         -2   -1    0    0    0  501 -0.00000000000E+00  0.00000000000E+00  0.17800958890E+03  0.17800958890E+03  0.00000000000E+00 0.  1.
         21   -1    0    0  501  502  0.00000000000E+00 -0.00000000000E+00 -0.78623372152E+03  0.78623372152E+03  0.00000000000E+00 0. -1.
         23    2    1    2    0    0 -0.20314454392E+03  0.99777724723E+01 -0.11095676552E+03  0.24904869963E+03  0.91359669998E+02 0.  0.
         23    2    1    2    0    0  0.14135373294E+03 -0.98345781717E+02  0.99035917714E+01  0.19668772472E+03  0.94526236192E+02 0.  0.
        -11    1    3    3    0    0 -0.46958994968E+02 -0.30543488190E+01 -0.74529784927E+02  0.88142867530E+02  0.00000000000E+00 0.  1.
         11    1    3    3    0    0 -0.15618554896E+03  0.13032121291E+02 -0.36426980593E+02  0.16090583210E+03  0.00000000000E+00 0. -1.
        -11    1    4    4    0    0  0.65836559271E+02 -0.63222950640E+00  0.28606060262E+02  0.71785506438E+02  0.00000000000E+00 0.  1.
         11    1    4    4    0    0  0.75517173666E+02 -0.97713552210E+02 -0.18702468491E+02  0.12490221828E+03  0.00000000000E+00 0. -1.
         -2    1    1    2    0  502  0.61790810988E+02  0.88368009245E+02 -0.50717095887E+03  0.51850688607E+03  0.00000000000E+00 0.  1.
<scales pt_clust_5="13000.00000" pt_clust_6="13000.00000" pt_clust_7="13000.00000" pt_clust_8="13000.00000" pt_clust_9="13000.00000"></scales>
<clustering>
<clus scale="   91.360">  5  6 -1 -1</clus>
<clus scale="   94.526">  7  8 -1 -1</clus>
<clus scale="  107.829">  7  9 -1 -1</clus>
<clus scale="  222.966">  1  5  2 -1</clus>
<clus scale="  514.032">  2  5  1 -1</clus>
</clustering>
</event>
<event>
 9    1  0.3312826E-006  0.1538995E+03  0.7546771E-02  0.1211459E+00
         -2   -1    0    0    0  501 -0.00000000000E+00  0.00000000000E+00  0.84133820089E+02  0.84133820089E+02  0.00000000000E+00 0.  1.
         21   -1    0    0  501  502  0.00000000000E+00 -0.00000000000E+00 -0.20670159124E+03  0.20670159124E+03  0.00000000000E+00 0.  1.
         23    2    1    2    0    0 -0.60064987454E+02 -0.45510354798E+01 -0.45699727006E+02  0.11880709764E+03  0.91641403085E+02 0.  0.
         23    2    1    2    0    0  0.18824560820E+02  0.33558353271E+02 -0.30900923505E+02  0.10379948214E+03  0.91317787177E+02 0.  0.
        -11    1    4    4    0    0  0.51456889858E+02  0.39506033548E+02 -0.27480592044E+02  0.70453680810E+02  0.00000000000E+00 0. -1.
         11    1    4    4    0    0 -0.32632329038E+02 -0.59476802771E+01 -0.34203314607E+01  0.33345801331E+02  0.00000000000E+00 0.  1.
        -11    1    3    3    0    0 -0.34610122017E+02 -0.46095279637E+02 -0.10234412077E+02  0.58543817277E+02  0.00000000000E+00 0.  1.
         11    1    3    3    0    0 -0.25454865437E+02  0.41544244157E+02 -0.35465314929E+02  0.60263280363E+02  0.00000000000E+00 0. -1.
         -2    1    1    2    0  502  0.41240426634E+02 -0.29007317791E+02 -0.45967120635E+02  0.68228831545E+02  0.00000000000E+00 0.  1.
<scales pt_clust_5="13000.00000" pt_clust_6="13000.00000" pt_clust_7="13000.00000" pt_clust_8="13000.00000" pt_clust_9="13000.00000"></scales>
<clustering>
<clus scale="   91.318">  5  6 -1 -1</clus>
<clus scale="   50.420">  5  9 -1 -1</clus>
<clus scale="   91.641">  7  8 -1 -1</clus>
<clus scale="  109.666">  1  7  2 -1</clus>
<clus scale="  153.899">  2  5  1 -1</clus>
</clustering>
</event>
<event>
 9    1  0.3312826E-006  0.2344313E+03  0.7546771E-02  0.1148417E+00
         -3   -1    0    0    0  501 -0.00000000000E+00  0.00000000000E+00  0.12750301857E+03  0.12750301857E+03  0.00000000000E+00 0.  1.
         21   -1    0    0  501  502  0.00000000000E+00 -0.00000000000E+00 -0.27649821913E+03  0.27649821913E+03  0.00000000000E+00 0.  1.
         23    2    1    2    0    0  0.88666583016E+02  0.89419291041E+01 -0.10457504284E+03  0.16539863943E+03  0.92081753356E+02 0.  0.
         23    2    1    2    0    0 -0.12805955337E+03  0.45548062880E+02 -0.10495994086E+02  0.16329115015E+03  0.89888589834E+02 0.  0.
        -11    1    3    3    0    0  0.61204383104E+02  0.47753408523E+02 -0.47074395466E+02  0.90787461938E+02  0.00000000000E+00 0.  1.
         11    1    3    3    0    0  0.27462199912E+02 -0.38811479418E+02 -0.57500647371E+02  0.74611177492E+02  0.00000000000E+00 0. -1.
        -11    1    4    4    0    0 -0.85048355065E+02  0.64340711527E+02 -0.32451949550E+02  0.11147232342E+03  0.00000000000E+00 0.  1.
         11    1    4    4    0    0 -0.43011198308E+02 -0.18792648647E+02  0.21955955464E+02  0.51818826727E+02  0.00000000000E+00 0. -1.
         -3    1    1    2    0  502  0.39392970356E+02 -0.54489991984E+02 -0.33924163634E+02  0.75311448122E+02  0.00000000000E+00 0.  1.
<scales pt_clust_5="13000.00000" pt_clust_6="13000.00000" pt_clust_7="13000.00000" pt_clust_8="13000.00000" pt_clust_9="13000.00000"></scales>
<clustering>
<clus scale="   89.889">  7  8 -1 -1</clus>
<clus scale="   67.238">  7  9 -1 -1</clus>
<clus scale="   92.082">  5  6 -1 -1</clus>
<clus scale="  128.144">  1  5  2 -1</clus>
<clus scale="  234.431">  2  5  1 -1</clus>
</clustering>
</event>
<event>
 9    1  0.3312826E-006  0.2701015E+03  0.7546771E-02  0.1142816E+00
         -1   -1    0    0    0  501 -0.00000000000E+00  0.00000000000E+00  0.13218955383E+03  0.13218955383E+03  0.00000000000E+00 0.  1.
         21   -1    0    0  501  502  0.00000000000E+00 -0.00000000000E+00 -0.27520902580E+03  0.27520902580E+03  0.00000000000E+00 0.  1.
         23    2    1    2    0    0 -0.25617367205E+01 -0.66153983052E+01  0.11106144489E+02  0.96417018929E+02  0.95512141134E+02 0.  0.
         23    2    1    2    0    0  0.83365110835E+02 -0.81741416414E+02 -0.10719296618E+03  0.18237835064E+03  0.90222668561E+02 0.  0.
        -11    1    4    4    0    0  0.75297389500E+02 -0.13011631241E+02 -0.70890416218E+02  0.10423267494E+03  0.00000000000E+00 0. -1.
         11    1    4    4    0    0  0.80677213343E+01 -0.68729785173E+02 -0.36302549963E+02  0.78145675704E+02  0.00000000000E+00 0.  1.
        -11    1    3    3    0    0  0.26371183387E+02  0.34823544592E+02  0.13786358338E+02  0.45805919349E+02  0.00000000000E+00 0.  1.
         11    1    3    3    0    0 -0.28932920107E+02 -0.41438942898E+02 -0.26802138484E+01  0.50611099580E+02  0.00000000000E+00 0. -1.
         -1    1    1    2    0  502 -0.80803374114E+02  0.88356814719E+02 -0.46932650274E+02  0.12860321006E+03  0.00000000000E+00 0.  1.
<scales pt_clust_5="13000.00000" pt_clust_6="13000.00000" pt_clust_7="13000.00000" pt_clust_8="13000.00000" pt_clust_9="13000.00000"></scales>
<clustering>
<clus scale="   90.223">  5  6 -1 -1</clus>
<clus scale="   95.512">  7  8 -1 -1</clus>
<clus scale="   95.775">  1  7  2 -1</clus>
<clus scale="  118.138">  5  9 -1 -1</clus>
<clus scale="  270.102">  2  5  1 -1</clus>
</clustering>
</event>
<event>
 9    1  0.3312826E-006  0.2016184E+03  0.7546771E-02  0.1164845E+00
          4   -1    0    0  502    0 -0.00000000000E+00  0.00000000000E+00  0.19135407912E+03  0.19135407912E+03  0.00000000000E+00 0. -1.
         21   -1    0    0  501  502  0.00000000000E+00 -0.00000000000E+00 -0.31261970033E+03  0.31261970033E+03  0.00000000000E+00 0. -1.
         23    2    1    2    0    0 -0.99793555549E+02  0.17291216906E+02  0.12511254849E+03  0.18561523358E+03  0.92423618376E+02 0.  0.
         23    2    1    2    0    0  0.71693440875E+02  0.11375029386E+02 -0.68442012294E+02  0.13595063421E+03  0.92352179933E+02 0.  0.
        -11    1    3    3    0    0 -0.78969679347E+02  0.28207630483E+02  0.13594534725E+03  0.15972795032E+03  0.00000000000E+00 0. -1.
         11    1    3    3    0    0 -0.20823876202E+02 -0.10916413577E+02 -0.10832798759E+02  0.25887283257E+02  0.00000000000E+00 0.  1.
        -11    1    4    4    0    0  0.42762736809E+02  0.51788987038E+02 -0.32484578723E+02  0.74605621053E+02  0.00000000000E+00 0. -1.
         11    1    4    4    0    0  0.28930704066E+02 -0.40413957652E+02 -0.35957433570E+02  0.61345013162E+02  0.00000000000E+00 0.  1.
          4    1    1    2  501    0  0.28100114674E+02 -0.28666246292E+02 -0.17793615741E+03  0.18240791166E+03  0.00000000000E+00 0. -1.
<scales pt_clust_5="13000.00000" pt_clust_6="13000.00000" pt_clust_7="13000.00000" pt_clust_8="13000.00000" pt_clust_9="13000.00000"></scales>
<clustering>
<clus scale="   92.352">  7  8 -1 -1</clus>
<clus scale="   40.142">  7  9 -1 -1</clus>
<clus scale="   92.424">  5  6 -1 -1</clus>
<clus scale="  137.113">  1  5  2 -1</clus>
<clus scale="  201.618">  2  5  1 -1</clus>
</clustering>
</event>
<event>
 9    1  0.3312826E-006  0.2819439E+03  0.7546771E-02  0.1122866E+00
         -1   -1    0    0    0  501 -0.00000000000E+00  0.00000000000E+00  0.17493312138E+03  0.17493312138E+03  0.00000000000E+00 0.  1.
         21   -1    0    0  501  502  0.00000000000E+00 -0.00000000000E+00 -0.25662904219E+03  0.25662904219E+03  0.00000000000E+00 0. -1.
         23    2    1    2    0    0 -0.25807570617E+02 -0.98582478032E+02  0.31044118239E+01  0.13714164445E+03  0.91725991913E+02 0.  0.
         23    2    1    2    0    0 -0.55071810826E+01  0.14273806316E+03 -0.13805955101E+03  0.21848058422E+03  0.90933175124E+02 0.  0.
        -11    1    3    3    0    0  0.24852766742E+02 -0.48965971356E+02 -0.25669758961E+02  0.60615698385E+02  0.00000000000E+00 0.  1.
         11    1    3    3    0    0 -0.50660337360E+02 -0.49616506675E+02  0.28774170785E+02  0.76525946060E+02  0.00000000000E+00 0. -1.
        -13    1    4    4    0    0 -0.11074996599E+01  0.52385177052E+02 -0.11308865134E+03  0.12463737959E+03  0.00000000000E+00 0. -1.
         13    1    4    4    0    0 -0.43996814227E+01  0.90352886106E+02 -0.24970899673E+02  0.93843204628E+02  0.00000000000E+00 0.  1.
         -1    1    1    2    0  502  0.31314751700E+02 -0.44155585126E+02  0.53259218371E+02  0.75939934905E+02  0.00000000000E+00 0.  1.
<scales pt_clust_5="13000.00000" pt_clust_6="13000.00000" pt_clust_7="13000.00000" pt_clust_8="13000.00000" pt_clust_9="13000.00000"></scales>
<clustering>
<clus scale="   90.933">  7  8 -1 -1</clus>
<clus scale="   54.133">  7  9 -1 -1</clus>
<clus scale="   91.726">  5  6 -1 -1</clus>
<clus scale="  137.107">  1  5  2 -1</clus>
<clus scale="  281.944">  2  5  1 -1</clus>
</clustering>
</event>
<event>
 9    1  0.3312826E-006  0.1620322E+03  0.7546771E-02  0.1215606E+00
         21   -1    0    0  501  502  0.00000000000E+00  0.00000000000E+00  0.37483404372E+02  0.37483404372E+02  0.00000000000E+00 0. -1.
         -1   -1    0    0    0  501 -0.00000000000E+00 -0.00000000000E+00 -0.41380573236E+03  0.41380573236E+03  0.00000000000E+00 0.  1.
         23    2    1    2    0    0 -0.14347226093E+02 -0.46501071002E+01 -0.11172614685E+03  0.14102217468E+03  0.84717503919E+02 0.  0.
         23    2    1    2    0    0  0.72469111774E+01 -0.29040931626E+02 -0.25762373162E+03  0.27513698035E+03  0.91839411083E+02 0.  0.
        -11    1    4    4    0    0  0.16445433050E+02 -0.60999573133E+02 -0.17617791556E+03  0.18716318581E+03  0.00000000000E+00 0. -1.
         11    1    4    4    0    0 -0.91985218727E+01  0.31958641507E+02 -0.81445816058E+02  0.87973794536E+02  0.00000000000E+00 0.  1.
        -13    1    3    3    0    0 -0.38639536858E+02  0.18169695879E+02 -0.28408578824E+02  0.51285465853E+02  0.00000000000E+00 0. -1.
         13    1    3    3    0    0  0.24292310765E+02 -0.22819802980E+02 -0.83317568022E+02  0.89736708829E+02  0.00000000000E+00 0.  1.
         -1    1    1    2    0  502  0.71003149160E+01  0.33691038726E+02 -0.69724495235E+01  0.35129981707E+02  0.00000000000E+00 0.  1.
<scales pt_clust_5="13000.00000" pt_clust_6="13000.00000" pt_clust_7="13000.00000" pt_clust_8="13000.00000" pt_clust_9="13000.00000"></scales>
<clustering>
<clus scale="   84.718">  7  8 -1 -1</clus>
<clus scale="   86.050">  2  7  1 -1</clus>
<clus scale="   91.839">  5  6 -1 -1</clus>
<clus scale="   33.895">  5  9 -1 -1</clus>
<clus scale="  162.032">  1  5  2 -1</clus>
</clustering>
</event>
<event>
 9    1  0.3312826E-006  0.2241545E+03  0.7546771E-02  0.1147229E+00
         21   -1    0    0  501  502  0.00000000000E+00  0.00000000000E+00  0.45022574295E+03  0.45022574295E+03  0.00000000000E+00 0. -1.
         -3   -1    0    0    0  501 -0.00000000000E+00 -0.00000000000E+00 -0.83864159318E+02  0.83864159318E+02  0.00000000000E+00 0.  1.
         23    2    1    2    0    0  0.77080019744E+00  0.11852294787E+03  0.80844700166E+02  0.17109523627E+03  0.93217117665E+02 0.  0.
         23    2    1    2    0    0  0.44787457113E+02 -0.11370932648E+03  0.11085093330E+03  0.18242080325E+03  0.77805480535E+02 0.  0.
        -13    1    4    4    0    0  0.56520106349E+02 -0.58834122010E+02  0.92598012706E+02  0.12341137829E+03  0.00000000000E+00 0. -1.
         13    1    4    4    0    0 -0.11732649236E+02 -0.54875204471E+02  0.18252920595E+02  0.59009424960E+02  0.00000000000E+00 0.  1.
        -13    1    3    3    0    0 -0.37064928198E+02  0.14056168826E+02  0.19487149405E+02  0.44171639955E+02  0.00000000000E+00 0.  1.
         13    1    3    3    0    0  0.37835728396E+02  0.10446677904E+03  0.61357550761E+02  0.12692359632E+03  0.00000000000E+00 0. -1.
         -3    1    1    2    0  502 -0.45558257310E+02 -0.48136213863E+01  0.17466595017E+03  0.18057386275E+03  0.00000000000E+00 0.  1.
<scales pt_clust_5="13000.00000" pt_clust_6="13000.00000" pt_clust_7="13000.00000" pt_clust_8="13000.00000" pt_clust_9="13000.00000"></scales>
<clustering>
<clus scale="   77.805">  5  6 -1 -1</clus>
<clus scale="   45.812">  5  9 -1 -1</clus>
<clus scale="   93.217">  7  8 -1 -1</clus>
<clus scale="  150.790">  2  7  1 -1</clus>
<clus scale="  224.154">  1  5  2 -1</clus>
</clustering>
</event>
<event>
 9    1  0.3312826E-006  0.2133490E+03  0.7546771E-02  0.1157448E+00
         21   -1    0    0  501  502  0.00000000000E+00  0.00000000000E+00  0.10867150507E+03  0.10867150507E+03  0.00000000000E+00 0.  1.
         -1   -1    0    0    0  501 -0.00000000000E+00 -0.00000000000E+00 -0.33017404021E+03  0.33017404021E+03  0.00000000000E+00 0.  1.
         23    2    1    2    0    0  0.92952073400E+02 -0.44564922137E+02 -0.89748096792E+01  0.13770463255E+03  0.90861974343E+02 0.  0.
         23    2    1    2    0    0  0.13915484539E+02  0.23429854884E+02 -0.14325824963E+03  0.17204549729E+03  0.91291446696E+02 0.  0.
        -11    1    3    3    0    0 -0.15213667381E+02 -0.18995507778E+02 -0.10601813199E+02  0.26545874143E+02  0.00000000000E+00 0. -1.
         11    1    3    3    0    0  0.10816574078E+03 -0.25569414359E+02  0.16270035193E+01  0.11115875840E+03  0.00000000000E+00 0.  1.
        -11    1    4    4    0    0 -0.35470880536E+02 -0.75434963935E+01 -0.65403411103E+02  0.74784315787E+02  0.00000000000E+00 0. -1.
         11    1    4    4    0    0  0.49386365075E+02  0.30973351277E+02 -0.77854838527E+02  0.97261181500E+02  0.00000000000E+00 0.  1.
         -1    1    1    2    0  502 -0.10686755794E+03  0.21135067253E+02 -0.69269475825E+02  0.12909541544E+03  0.00000000000E+00 0.  1.
<scales pt_clust_5="13000.00000" pt_clust_6="13000.00000" pt_clust_7="13000.00000" pt_clust_8="13000.00000" pt_clust_9="13000.00000"></scales>
<clustering>
<clus scale="   90.862">  5  6 -1 -1</clus>
<clus scale="   91.291">  7  8 -1 -1</clus>
<clus scale="  108.937">  7  9 -1 -1</clus>
<clus scale="  137.412">  2  5  1 -1</clus>
<clus scale="  213.349">  1  5  2 -1</clus>
</clustering>
</event>
<event>
 9    1  0.3312826E-006  0.3056715E+03  0.7546771E-02  0.1124459E+00
         21   -1    0    0  501  502  0.00000000000E+00  0.00000000000E+00  0.10072200594E+03  0.10072200594E+03  0.00000000000E+00 0.  1.
          1   -1    0    0  502    0 -0.00000000000E+00 -0.00000000000E+00 -0.44396432620E+03  0.44396432620E+03  0.00000000000E+00 0. -1.
         23    2    1    2    0    0  0.47321597313E+02  0.15727513012E+02 -0.15291754986E+03  0.18460494443E+03  0.90600884177E+02 0.  0.
         23    2    1    2    0    0 -0.94780039726E+01 -0.12147183689E+03 -0.19511069311E+03  0.24766739995E+03  0.91791713782E+02 0.  0.
        -11    1    4    4    0    0 -0.22073759933E+02 -0.75473240935E+02 -0.45968634082E+02  0.91085543827E+02  0.00000000000E+00 0.  1.
         11    1    4    4    0    0  0.12595755960E+02 -0.45998595950E+02 -0.14914205903E+03  0.15658185613E+03  0.00000000000E+00 0. -1.
        -13    1    3    3    0    0  0.61716630627E+02  0.40251131674E+02 -0.12260339517E+03  0.14304086340E+03  0.00000000000E+00 0. -1.
         13    1    3    3    0    0 -0.14395033314E+02 -0.24523618663E+02 -0.30314154695E+02  0.41564081023E+02  0.00000000000E+00 0.  1.
          1    1    1    2  501    0 -0.37843593340E+02  0.10574432387E+03  0.47859227101E+01  0.11241398776E+03  0.00000000000E+00 0. -1.
<scales pt_clust_5="13000.00000" pt_clust_6="13000.00000" pt_clust_7="13000.00000" pt_clust_8="13000.00000" pt_clust_9="13000.00000"></scales>
<clustering>
<clus scale="   90.601">  7  8 -1 -1</clus>
<clus scale="   91.792">  5  6 -1 -1</clus>
<clus scale="  103.418">  2  7  1 -1</clus>
<clus scale="  112.513">  5  9 -1 -1</clus>
<clus scale="  305.672">  1  5  2 -1</clus>
</clustering>
</event>
<event>
 9    1  0.3312826E-006  0.1300079E+03  0.7546771E-02  0.1239117E+00
          1   -1    0    0  502    0 -0.00000000000E+00  0.00000000000E+00  0.11387782593E+03  0.11387782593E+03  0.00000000000E+00 0. -1.
         21   -1    0    0  501  502  0.00000000000E+00 -0.00000000000E+00 -0.34506967287E+03  0.34506967287E+03  0.00000000000E+00 0.  1.
         23    2    1    2    0    0 -0.15414737192E+02 -0.42195772867E+02  0.74639162982E+02  0.12663037643E+03  0.91902939092E+02 0.  0.
         23    2    1    2    0    0 -0.11005578736E+02  0.19071378216E+02 -0.24052805182E+03  0.25817370014E+03  0.91187035818E+02 0.  0.
        -11    1    4    4    0    0  0.32956300680E+02  0.22919703688E+02 -0.59018571140E+02  0.71376623002E+02  0.00000000000E+00 0. -1.
         11    1    4    4    0    0 -0.43961879417E+02 -0.38483254723E+01 -0.18150948068E+03  0.18679707714E+03  0.00000000000E+00 0.  1.
        -13    1    3    3    0    0 -0.39570956139E+02  0.13313287976E+02  0.29738600614E+02  0.51259034062E+02  0.00000000000E+00 0.  1.
         13    1    3    3    0    0  0.24156218947E+02 -0.55509060844E+02  0.44900562368E+02  0.75371342369E+02  0.00000000000E+00 0. -1.
          1    1    1    2  501    0  0.26420315929E+02  0.23124394651E+02 -0.65302958112E+02  0.74143422230E+02  0.00000000000E+00 0. -1.
<scales pt_clust_5="13000.00000" pt_clust_6="13000.00000" pt_clust_7="13000.00000" pt_clust_8="13000.00000" pt_clust_9="13000.00000"></scales>
<clustering>
<clus scale="   91.187">  5  6 -1 -1</clus>
<clus scale="   35.111">  5  9 -1 -1</clus>
<clus scale="   91.903">  7  8 -1 -1</clus>
<clus scale="  102.295">  1  7  2 -1</clus>
<clus scale="  130.008">  2  5  1 -1</clus>
</clustering>
</event>
<event>
 9    1  0.3312826E-006  0.4072764E+03  0.7546771E-02  0.1078934E+00
         -3   -1    0    0    0  501 -0.00000000000E+00  0.00000000000E+00  0.13771557635E+03  0.13771557635E+03  0.00000000000E+00 0.  1.
         21   -1    0    0  501  502  0.00000000000E+00 -0.00000000000E+00 -0.54831554110E+03  0.54831554110E+03  0.00000000000E+00 0. -1.
         23    2    1    2    0    0  0.17235901069E+02 -0.99667329458E+02 -0.11628181329E+03  0.18354004976E+03  0.99673652080E+02 0.  0.
         23    2    1    2    0    0  0.11168720676E+03  0.18034754230E+03 -0.90758178619E+02  0.24839044387E+03  0.91986398191E+02 0.  0.
        -11    1    4    4    0    0  0.59194128854E+02  0.36769789936E+02  0.17501078082E+01  0.69706708573E+02  0.00000000000E+00 0.  1.
         11    1    4    4    0    0  0.52493077907E+02  0.14357775236E+03 -0.92508286427E+02  0.17868373530E+03  0.00000000000E+00 0. -1.
        -11    1    3    3    0    0 -0.17118158383E+02 -0.28462133774E+02 -0.96482459056E+02  0.10203915577E+03  0.00000000000E+00 0. -1.
         11    1    3    3    0    0  0.34354059453E+02 -0.71205195684E+02 -0.19799354230E+02  0.81500893990E+02  0.00000000000E+00 0.  1.
         -3    1    1    2    0  502 -0.12892310783E+03 -0.80680212842E+02 -0.20355997285E+03  0.25410062381E+03  0.00000000000E+00 0.  1.
<scales pt_clust_5="13000.00000" pt_clust_6="13000.00000" pt_clust_7="13000.00000" pt_clust_8="13000.00000" pt_clust_9="13000.00000"></scales>
<clustering>
<clus scale="   91.986">  5  6 -1 -1</clus>
<clus scale="   99.674">  7  8 -1 -1</clus>
<clus scale="  142.005">  1  7  2 -1</clus>
<clus scale="  162.969">  5  9 -1 -1</clus>
<clus scale="  407.276">  2  5  1 -1</clus>
</clustering>
</event>
<event>
 9    1  0.3312826E-006  0.4291638E+03  0.7546771E-02  0.1087256E+00
          1   -1    0    0  502    0 -0.00000000000E+00  0.00000000000E+00  0.11896407559E+03  0.11896407559E+03  0.00000000000E+00 0. -1.
         21   -1    0    0  501  502  0.00000000000E+00 -0.00000000000E+00 -0.58378303673E+03  0.58378303673E+03  0.00000000000E+00 0.  1.
         23    2    1    2    0    0 -0.26580254193E+02 -0.19792994432E+02 -0.71382056773E+02  0.12053220764E+03  0.91292620228E+02 0.  0.
         23    2    1    2    0    0  0.14564168285E+03 -0.30625843038E+02 -0.22478562739E+02  0.18936916628E+03  0.11491715846E+03 0.  0.
        -11    1    4    4    0    0  0.23821931467E+02  0.38526944806E+02  0.80379142226E+01  0.46004542819E+02  0.00000000000E+00 0. -1.
         11    1    4    4    0    0  0.12181975138E+03 -0.69152787844E+02 -0.30516476962E+02  0.14336462346E+03  0.00000000000E+00 0.  1.
        -13    1    3    3    0    0  0.48474466181E+01 -0.30996378996E+02  0.97125247537E+01  0.32842143455E+02  0.00000000000E+00 0.  1.
         13    1    3    3    0    0 -0.31427700811E+02  0.11203384565E+02 -0.81094581527E+02  0.87690064186E+02  0.00000000000E+00 0. -1.
          1    1    1    2  501    0 -0.11906142865E+03  0.50418837469E+02 -0.37095834163E+03  0.39284573841E+03  0.00000000000E+00 0. -1.
<scales pt_clust_5="13000.00000" pt_clust_6="13000.00000" pt_clust_7="13000.00000" pt_clust_8="13000.00000" pt_clust_9="13000.00000"></scales>
<clustering>
<clus scale="   91.293">  7  8 -1 -1</clus>
<clus scale="   97.122">  1  7  2 -1</clus>
<clus scale="  114.917">  5  6 -1 -1</clus>
<clus scale="  131.282">  5  9 -1 -1</clus>
<clus scale="  429.164">  2  5  1 -1</clus>
</clustering>
</event>
<event>
 9    1  0.3312826E-006  0.5410055E+03  0.7546771E-02  0.1061432E+00
         21   -1    0    0  501  502  0.00000000000E+00  0.00000000000E+00  0.18981390662E+03  0.18981390662E+03  0.00000000000E+00 0. -1.
          1   -1    0    0  502    0 -0.00000000000E+00 -0.00000000000E+00 -0.55134243670E+03  0.55134243670E+03  0.00000000000E+00 0. -1.
         23    2    1    2    0    0  0.18305402778E+02 -0.36338548401E+02 -0.10098327357E+03  0.14068086028E+03  0.89094921502E+02 0.  0.
         23    2    1    2    0    0 -0.19486931516E+03 -0.11856003908E+03 -0.27074814231E+03  0.36537446978E+03  0.90351611731E+02 0.  0.
        -11    1    4    4    0    0 -0.16270637220E+03 -0.76637575641E+02 -0.25138969941E+03  0.30910105552E+03  0.00000000000E+00 0. -1.
         11    1    4    4    0    0 -0.32162942960E+02 -0.41922463438E+02 -0.19358442902E+02  0.56273414257E+02  0.00000000000E+00 0.  1.
        -11    1    3    3    0    0  0.36617559884E+02  0.16921377259E+02 -0.31144284128E+02  0.50962193183E+02  0.00000000000E+00 0.  1.
         11    1    3    3    0    0 -0.18312157106E+02 -0.53259925661E+02 -0.69838989446E+02  0.89718667100E+02  0.00000000000E+00 0. -1.
          1    1    1    2  501    0  0.17656391238E+03  0.15489858748E+03  0.10202885799E+02  0.23510101327E+03  0.00000000000E+00 0. -1.
<scales pt_clust_5="13000.00000" pt_clust_6="13000.00000" pt_clust_7="13000.00000" pt_clust_8="13000.00000" pt_clust_9="13000.00000"></scales>
<clustering>
<clus scale="   89.095">  7  8 -1 -1</clus>
<clus scale="   90.352">  5  6 -1 -1</clus>
<clus scale="   97.946">  2  7  1 -1</clus>
<clus scale="  232.442">  5  9 -1 -1</clus>
<clus scale="  541.006">  1  5  2 -1</clus>
</clustering>
</event>
<event>
 9    1  0.3312826E-006  0.1473964E+03  0.7546771E-02  0.1216342E+00
          2   -1    0    0  502    0 -0.00000000000E+00  0.00000000000E+00  0.14736068417E+03  0.14736068417E+03  0.00000000000E+00 0. -1.
         21   -1    0    0  501  502  0.00000000000E+00 -0.00000000000E+00 -0.12373389161E+03  0.12373389161E+03  0.00000000000E+00 0.  1.
         23    2    1    2    0    0  0.10669245694E+01  0.28272633135E+02  0.46795019191E+02  0.12188842972E+03  0.10893362826E+03 0.  0.
         23    2    1    2    0    0  0.19476987869E+02 -0.27955455267E+02  0.21686625265E+02  0.99869438849E+02  0.91338571069E+02 0.  0.
        -11    1    4    4    0    0  0.31494390979E+02  0.15645704808E+02 -0.18172923833E+02  0.39584591734E+02  0.00000000000E+00 0.  1.
         11    1    4    4    0    0 -0.12017403109E+02 -0.43601160075E+02  0.39859549098E+02  0.60284847115E+02  0.00000000000E+00 0. -1.
        -11    1    3    3    0    0 -0.26325524992E+02  0.29619541581E+02 -0.23750102435E+02  0.46199760554E+02  0.00000000000E+00 0.  1.
         11    1    3    3    0    0  0.27392449561E+02 -0.13469084464E+01  0.70545121625E+02  0.75688669168E+02  0.00000000000E+00 0. -1.
          2    1    1    2  501    0 -0.20543912439E+02 -0.31717786770E+00 -0.44854851895E+02  0.49336707213E+02  0.00000000000E+00 0. -1.
<scales pt_clust_5="13000.00000" pt_clust_6="13000.00000" pt_clust_7="13000.00000" pt_clust_8="13000.00000" pt_clust_9="13000.00000"></scales>
<clustering>
<clus scale="   91.339">  5  6 -1 -1</clus>
<clus scale="   20.546">  5  9 -1 -1</clus>
<clus scale="  108.934">  7  8 -1 -1</clus>
<clus scale="  112.548">  1  7  2 -1</clus>
<clus scale="  147.396">  2  5  1 -1</clus>
</clustering>
</event>
<event>
 9    1  0.3312826E-006  0.3695508E+03  0.7546771E-02  0.1070078E+00
         -1   -1    0    0    0  501 -0.00000000000E+00  0.00000000000E+00  0.41819412838E+03  0.41819412838E+03  0.00000000000E+00 0.  1.
         21   -1    0    0  501  502  0.00000000000E+00 -0.00000000000E+00 -0.22611888535E+03  0.22611888535E+03  0.00000000000E+00 0. -1.
         23    2    1    2    0    0 -0.11315925168E+01 -0.22397648289E+03  0.42345554795E+02  0.24558158088E+03  0.91380640556E+02 0.  0.
         23    2    1    2    0    0 -0.80772724003E+02  0.69379292936E+01  0.10922335006E+03  0.16324297401E+03  0.90256083236E+02 0.  0.
        -13    1    4    4    0    0 -0.99575216221E+02 -0.38186132920E+01  0.90503013467E+02  0.13461278149E+03  0.00000000000E+00 0.  1.
         13    1    4    4    0    0  0.18802492219E+02  0.10756542586E+02  0.18720336592E+02  0.28630192527E+02  0.00000000000E+00 0. -1.
        -13    1    3    3    0    0 -0.29627659425E+02 -0.23225591043E+02  0.16767570582E+02  0.41211378350E+02  0.00000000000E+00 0.  1.
         13    1    3    3    0    0  0.28496066908E+02 -0.20075089185E+03  0.25577984214E+02  0.20437020253E+03  0.00000000000E+00 0. -1.
         -1    1    1    2    0  502  0.81904316520E+02  0.21703855360E+03  0.40506338181E+02  0.23548845883E+03  0.00000000000E+00 0.  1.
<scales pt_clust_5="13000.00000" pt_clust_6="13000.00000" pt_clust_7="13000.00000" pt_clust_8="13000.00000" pt_clust_9="13000.00000"></scales>
<clustering>
<clus scale="   90.256">  5  6 -1 -1</clus>
<clus scale="   91.381">  7  8 -1 -1</clus>
<clus scale="  231.979">  5  9 -1 -1</clus>
<clus scale="  241.903">  1  7  2 -1</clus>
<clus scale="  369.551">  2  5  1 -1</clus>
</clustering>
</event>
<event>
 9    1  0.3312826E-006  0.2343909E+03  0.7546771E-02  0.1150487E+00
         21   -1    0    0  501  502  0.00000000000E+00  0.00000000000E+00  0.78279724301E+02  0.78279724301E+02  0.00000000000E+00 0. -1.
          2   -1    0    0  502    0 -0.00000000000E+00 -0.00000000000E+00 -0.40817225024E+03  0.40817225024E+03  0.00000000000E+00 0. -1.
         23    2    1    2    0    0 -0.55049642217E+02 -0.59734820948E+02 -0.95669090877E+02  0.15509158934E+03  0.91115938185E+02 0.  0.
         23    2    1    2    0    0  0.77775819973E+01  0.12417778767E+03 -0.17865480183E+03  0.23401863344E+03  0.85828718088E+02 0.  0.
        -13    1    4    4    0    0 -0.11209569603E+02  0.70830769963E+02 -0.15840495747E+03  0.17388151994E+03  0.00000000000E+00 0. -1.
         13    1    4    4    0    0  0.18987151600E+02  0.53347017706E+02 -0.20249844360E+02  0.60137113504E+02  0.00000000000E+00 0.  1.
        -13    1    3    3    0    0  0.25259031586E+02 -0.20829411488E+02 -0.28395602980E+02  0.43338127881E+02  0.00000000000E+00 0.  1.
         13    1    3    3    0    0 -0.80308673803E+02 -0.38905409460E+02 -0.67273487897E+02  0.11175346145E+03  0.00000000000E+00 0. -1.
          2    1    1    2  501    0  0.47272060220E+02 -0.64442966721E+02 -0.55568633228E+02  0.97341751762E+02  0.00000000000E+00 0. -1.
<scales pt_clust_5="13000.00000" pt_clust_6="13000.00000" pt_clust_7="13000.00000" pt_clust_8="13000.00000" pt_clust_9="13000.00000"></scales>
<clustering>
<clus scale="   85.829">  5  6 -1 -1</clus>
<clus scale="   79.922">  5  9 -1 -1</clus>
<clus scale="   91.116">  7  8 -1 -1</clus>
<clus scale="  122.069">  2  7  1 -1</clus>
<clus scale="  234.391">  1  5  2 -1</clus>
</clustering>
</event>
<event>
 9    1  0.3312826E-006  0.2668968E+03  0.7546771E-02  0.1123986E+00
          2   -1    0    0  502    0 -0.00000000000E+00  0.00000000000E+00  0.11002625728E+04  0.11002625728E+04  0.00000000000E+00 0. -1.
         21   -1    0    0  501  502  0.00000000000E+00 -0.00000000000E+00 -0.46058819797E+02  0.46058819797E+02  0.00000000000E+00 0. -1.
         23    2    1    2    0    0 -0.15912969213E+02 -0.10392911633E+03  0.59278742488E+03  0.61327454176E+03  0.11685139565E+03 0.  0.
         23    2    1    2    0    0  0.42432566216E+02 -0.48583146608E+02  0.20110589799E+03  0.23018582757E+03  0.91548283442E+02 0.  0.
        -11    1    3    3    0    0  0.47720275861E+02 -0.55979073734E+02  0.35344455272E+03  0.36101791267E+03  0.00000000000E+00 0.  1.
         11    1    3    3    0    0 -0.63633245075E+02 -0.47950042597E+02  0.23934287216E+03  0.25225662909E+03  0.00000000000E+00 0. -1.
        -13    1    4    4    0    0  0.24936564365E+02  0.13178961277E+02  0.12308049929E+02  0.30773452125E+02  0.00000000000E+00 0.  1.
         13    1    4    4    0    0  0.17496001852E+02 -0.61762107884E+02  0.18879784806E+03  0.19941237545E+03  0.00000000000E+00 0. -1.
          2    1    1    2  501    0 -0.26519597003E+02  0.15251226294E+03  0.26031043012E+03  0.30286102324E+03  0.00000000000E+00 0. -1.
<scales pt_clust_5="13000.00000" pt_clust_6="13000.00000" pt_clust_7="13000.00000" pt_clust_8="13000.00000" pt_clust_9="13000.00000"></scales>
<clustering>
<clus scale="   91.548">  7  8 -1 -1</clus>
<clus scale="  116.851">  5  6 -1 -1</clus>
<clus scale="  154.801">  7  9 -1 -1</clus>
<clus scale="  157.190">  1  5  2 -1</clus>
<clus scale="  266.897">  2  5  1 -1</clus>
</clustering>
</event>
<event>
 9    1  0.3312826E-006  0.3750777E+03  0.7546771E-02  0.1074138E+00
          2   -1    0    0  502    0 -0.00000000000E+00  0.00000000000E+00  0.27108259149E+03  0.27108259149E+03  0.00000000000E+00 0. -1.
         21   -1    0    0  501  502  0.00000000000E+00 -0.00000000000E+00 -0.31258084426E+03  0.31258084426E+03  0.00000000000E+00 0. -1.
         23    2    1    2    0    0 -0.13797061504E+03  0.12467538841E+03 -0.18414814495E+02  0.20787612186E+03  0.91068839675E+02 0.  0.
         23    2    1    2    0    0  0.60044052771E+02 -0.35855630893E+02  0.13429840390E+03  0.17898654489E+03  0.95442167952E+02 0.  0.
        -11    1    4    4    0    0 -0.23597793806E+02  0.31973726067E+00  0.12018175516E+02  0.26483856350E+02  0.00000000000E+00 0. -1.
         11    1    4    4    0    0  0.83641846576E+02 -0.36175368154E+02  0.12228022838E+03  0.15250268854E+03  0.00000000000E+00 0.  1.
        -13    1    3    3    0    0 -0.72107527918E+02  0.86155134129E+02 -0.52857900698E+02  0.12416183144E+03  0.00000000000E+00 0.  1.
         13    1    3    3    0    0 -0.65863087121E+02  0.38520254279E+02  0.34443086203E+02  0.83714290429E+02  0.00000000000E+00 0. -1.
          2    1    1    2  501    0  0.77926562269E+02 -0.88819757514E+02 -0.15738184217E+03  0.19680076899E+03  0.00000000000E+00 0. -1.
<scales pt_clust_5="13000.00000" pt_clust_6="13000.00000" pt_clust_7="13000.00000" pt_clust_8="13000.00000" pt_clust_9="13000.00000"></scales>
<clustering>
<clus scale="   91.069">  7  8 -1 -1</clus>
<clus scale="   95.442">  5  6 -1 -1</clus>
<clus scale="  118.159">  5  9 -1 -1</clus>
<clus scale="  207.059">  1  7  2 -1</clus>
<clus scale="  375.078">  2  5  1 -1</clus>
</clustering>
</event>
<event>
 9    1  0.3312826E-006  0.1474450E+03  0.7546771E-02  0.1217922E+00
          1   -1    0    0  502    0 -0.00000000000E+00  0.00000000000E+00  0.34904138080E+03  0.34904138080E+03  0.00000000000E+00 0. -1.
         21   -1    0    0  501  502  0.00000000000E+00 -0.00000000000E+00 -0.96850954967E+02  0.96850954967E+02  0.00000000000E+00 0.  1.
         23    2    1    2    0    0  0.53956388549E+02 -0.31778863699E+02  0.27589465348E+03  0.29655407789E+03  0.88911603562E+02 0.  0.
         23    2    1    2    0    0 -0.13221309006E+02 -0.11809340631E+02 -0.27618499874E+02  0.89550300994E+02  0.83319933598E+02 0.  0.
        -11    1    3    3    0    0 -0.15147390918E+02 -0.13904960642E+02  0.13435766719E+02  0.24562394212E+02  0.00000000000E+00 0.  1.
         11    1    3    3    0    0  0.69103779467E+02 -0.17873903056E+02  0.26245888677E+03  0.27199168368E+03  0.00000000000E+00 0. -1.
        -13    1    4    4    0    0  0.18213897705E+02 -0.91638283994E+01  0.22478632596E+02  0.30348158823E+02  0.00000000000E+00 0. -1.
         13    1    4    4    0    0 -0.31435206711E+02 -0.26455122317E+01 -0.50097132470E+02  0.59202142171E+02  0.00000000000E+00 0.  1.
          1    1    1    2  501    0 -0.40735079543E+02  0.43588204330E+02  0.39142722275E+01  0.59787956890E+02  0.00000000000E+00 0. -1.
<scales pt_clust_5="13000.00000" pt_clust_6="13000.00000" pt_clust_7="13000.00000" pt_clust_8="13000.00000" pt_clust_9="13000.00000"></scales>
<clustering>
<clus scale="   83.320">  7  8 -1 -1</clus>
<clus scale="   59.660">  7  9 -1 -1</clus>
<clus scale="   88.912">  5  6 -1 -1</clus>
<clus scale="  108.750">  1  5  2 -1</clus>
<clus scale="  147.445">  2  5  1 -1</clus>
</clustering>
</event>
<event>
 9    1  0.3312826E-006  0.1299314E+04  0.7546771E-02  0.9446378E-01
          2   -1    0    0  502    0 -0.00000000000E+00  0.00000000000E+00  0.61978387366E+03  0.61978387366E+03  0.00000000000E+00 0. -1.
         21   -1    0    0  501  502  0.00000000000E+00 -0.00000000000E+00 -0.10259005798E+04  0.10259005798E+04  0.00000000000E+00 0. -1.
         23    2    1    2    0    0 -0.26164918652E+03  0.19452771027E+02  0.19284266617E+02  0.27850388291E+03  0.91399249193E+02 0.  0.
         23    2    1    2    0    0 -0.23184033183E+03 -0.34965335391E+03  0.22641733087E+03  0.48545984913E+03  0.91646331230E+02 0.  0.
        -11    1    3    3    0    0 -0.17216222449E+03  0.37250715289E+01  0.55156549829E+02  0.18082022201E+03  0.00000000000E+00 0. -1.
         11    1    3    3    0    0 -0.89486962027E+02  0.15727699498E+02 -0.35872283212E+02  0.97683660902E+02  0.00000000000E+00 0.  1.
        -13    1    4    4    0    0 -0.18750705390E+02 -0.86501471989E+02  0.27207635393E+02  0.92597780927E+02  0.00000000000E+00 0.  1.
         13    1    4    4    0    0 -0.21308962644E+03 -0.26315188192E+03  0.19920969548E+03  0.39286206820E+03  0.00000000000E+00 0. -1.
          2    1    1    2  501    0  0.49348951835E+03  0.33020058289E+03 -0.65181830366E+03  0.88172072145E+03  0.00000000000E+00 0. -1.
<scales pt_clust_5="13000.00000" pt_clust_6="13000.00000" pt_clust_7="13000.00000" pt_clust_8="13000.00000" pt_clust_9="13000.00000"></scales>
<clustering>
<clus scale="   91.399">  5  6 -1 -1</clus>
<clus scale="   91.646">  7  8 -1 -1</clus>
<clus scale="  277.835">  1  5  2 -1</clus>
<clus scale="  544.759">  7  9 -1 -1</clus>
<clus scale=" 1299.314">  2  5  1 -1</clus>
</clustering>
</event>
<event>
 9    1  0.3312826E-006  0.2695805E+03  0.7546771E-02  0.1137148E+00
         21   -1    0    0  501  502  0.00000000000E+00  0.00000000000E+00  0.99563874833E+02  0.99563874833E+02  0.00000000000E+00 0. -1.
          2   -1    0    0  502    0 -0.00000000000E+00 -0.00000000000E+00 -0.56001609011E+03  0.56001609011E+03  0.00000000000E+00 0. -1.
         23    2    1    2    0    0  0.17054105406E+02  0.60708149907E+02 -0.35214109237E+03  0.36905468651E+03  0.90673539277E+02 0.  0.
         23    2    1    2    0    0 -0.65907069428E+01  0.35670252589E+02 -0.15398805360E+03  0.18335876700E+03  0.92694727180E+02 0.  0.
        -11    1    3    3    0    0 -0.26340617438E+02 -0.69399130783E+01 -0.12996190275E+03  0.13278586780E+03  0.00000000000E+00 0.  1.
         11    1    3    3    0    0  0.43394722843E+02  0.67648062986E+02 -0.22217918962E+03  0.23626881871E+03  0.00000000000E+00 0. -1.
        -13    1    4    4    0    0 -0.23078843008E+02  0.63138609185E+02 -0.11054221082E+03  0.12937811769E+03  0.00000000000E+00 0. -1.
         13    1    4    4    0    0  0.16488136066E+02 -0.27468356596E+02 -0.43445842778E+02  0.53980649308E+02  0.00000000000E+00 0.  1.
          2    1    1    2  501    0 -0.10463398463E+02 -0.96378402496E+02  0.45676930690E+02  0.10716651143E+03  0.00000000000E+00 0. -1.
<scales pt_clust_5="13000.00000" pt_clust_6="13000.00000" pt_clust_7="13000.00000" pt_clust_8="13000.00000" pt_clust_9="13000.00000"></scales>
<clustering>
<clus scale="   90.674">  5  6 -1 -1</clus>
<clus scale="   92.695">  7  8 -1 -1</clus>
<clus scale="   96.945">  7  9 -1 -1</clus>
<clus scale="  110.445">  2  5  1 -1</clus>
<clus scale="  269.580">  1  5  2 -1</clus>
</clustering>
</event>
<event>
 9    1  0.3312826E-006  0.2193043E+03  0.7546771E-02  0.1167871E+00
          1   -1    0    0  502    0 -0.00000000000E+00  0.00000000000E+00  0.73126040820E+03  0.73126040820E+03  0.00000000000E+00 0. -1.
         21   -1    0    0  501  502  0.00000000000E+00 -0.00000000000E+00 -0.34956700313E+02  0.34956700313E+02  0.00000000000E+00 0. -1.
         23    2    1    2    0    0  0.31612248522E+02 -0.26294287037E+02  0.24727501679E+03  0.26649606642E+03  0.90468202720E+02 0.  0.
         23    2    1    2    0    0 -0.97403636734E+02 -0.32109413098E+01  0.36792728064E+03  0.39120143998E+03  0.90389735125E+02 0.  0.
        -13    1    3    3    0    0  0.48104452459E+02 -0.39919852979E+02  0.23183151713E+03  0.24011140195E+03  0.00000000000E+00 0.  1.
         13    1    3    3    0    0 -0.16492203937E+02  0.13625565942E+02  0.15443499656E+02  0.26384664477E+02  0.00000000000E+00 0. -1.
        -13    1    4    4    0    0 -0.38784823684E+02 -0.42162880243E+02  0.11238334044E+03  0.12614272166E+03  0.00000000000E+00 0.  1.
         13    1    4    4    0    0 -0.58618813050E+02  0.38951938933E+02  0.25554394020E+03  0.26505871833E+03  0.00000000000E+00 0. -1.
          1    1    1    2  501    0  0.65791388212E+02  0.29505228347E+02  0.81101410464E+02  0.10851960211E+03  0.00000000000E+00 0. -1.
<scales pt_clust_5="13000.00000" pt_clust_6="13000.00000" pt_clust_7="13000.00000" pt_clust_8="13000.00000" pt_clust_9="13000.00000"></scales>
<clustering>
<clus scale="   90.390">  7  8 -1 -1</clus>
<clus scale="   72.105">  7  9 -1 -1</clus>
<clus scale="   90.468">  5  6 -1 -1</clus>
<clus scale="   99.374">  1  5  2 -1</clus>
<clus scale="  219.304">  2  5  1 -1</clus>
</clustering>
</event>
<event>
 9    1  0.3312826E-006  0.1458728E+03  0.7546771E-02  0.1222124E+00
          1   -1    0    0  502    0 -0.00000000000E+00  0.00000000000E+00  0.12560044155E+03  0.12560044155E+03  0.00000000000E+00 0. -1.
         21   -1    0    0  501  502  0.00000000000E+00 -0.00000000000E+00 -0.12680061402E+03  0.12680061402E+03  0.00000000000E+00 0.  1.
         23    2    1    2    0    0  0.38687933242E+02  0.27324119370E+02 -0.21728484700E+02  0.10509085847E+03  0.91261151701E+02 0.  0.
         23    2    1    2    0    0 -0.38184655348E+01  0.11023008552E+02  0.12353844814E+02  0.94839215438E+02  0.93304726068E+02 0.  0.
        -11    1    3    3    0    0  0.19852068493E+02 -0.29094438921E+02 -0.28390051066E+02  0.45239208648E+02  0.00000000000E+00 0. -1.
         11    1    3    3    0    0  0.18835864750E+02  0.56418558291E+02  0.66615663664E+01  0.59851649827E+02  0.00000000000E+00 0.  1.
        -13    1    4    4    0    0 -0.26257271871E+02 -0.24867121703E+02  0.31894507339E+02  0.48219059160E+02  0.00000000000E+00 0. -1.
         13    1    4    4    0    0  0.22438806336E+02  0.35890130255E+02 -0.19540662525E+02  0.46620156278E+02  0.00000000000E+00 0.  1.
          1    1    1    2  501    0 -0.34869467707E+02 -0.38347127922E+02  0.81744674171E+01  0.52470981653E+02  0.00000000000E+00 0. -1.
<scales pt_clust_5="13000.00000" pt_clust_6="13000.00000" pt_clust_7="13000.00000" pt_clust_8="13000.00000" pt_clust_9="13000.00000"></scales>
<clustering>
<clus scale="   91.261">  5  6 -1 -1</clus>
<clus scale="   93.305">  7  8 -1 -1</clus>
<clus scale="   51.830">  7  9 -1 -1</clus>
<clus scale="  102.820">  1  5  2 -1</clus>
<clus scale="  145.873">  2  5  1 -1</clus>
</clustering>
</event>
<event>
 9    1  0.3312826E-006  0.1373834E+03  0.7546771E-02  0.1227137E+00
         21   -1    0    0  501  502  0.00000000000E+00  0.00000000000E+00  0.64942282664E+02  0.64942282664E+02  0.00000000000E+00 0. -1.
          1   -1    0    0  502    0 -0.00000000000E+00 -0.00000000000E+00 -0.26199108784E+03  0.26199108784E+03  0.00000000000E+00 0. -1.
         23    2    1    2    0    0  0.43255516475E+02 -0.10082884624E+02 -0.13895821192E+03  0.17777335308E+03  0.10159368158E+03 0.  0.
         23    2    1    2    0    0 -0.78605678332E+01  0.54652908421E+01 -0.65118544831E+02  0.11277984886E+03  0.91581720326E+02 0.  0.
        -11    1    3    3    0    0  0.30156065357E+02  0.43944636984E+02 -0.84822194299E+02  0.10017646452E+03  0.00000000000E+00 0.  1.
         11    1    3    3    0    0  0.13099451118E+02 -0.54027521608E+02 -0.54136017617E+02  0.77596888560E+02  0.00000000000E+00 0. -1.
        -13    1    4    4    0    0 -0.30729310156E+02 -0.33806404807E+02 -0.40724010787E+02  0.61201377135E+02  0.00000000000E+00 0.  1.
         13    1    4    4    0    0  0.22868742323E+02  0.39271695649E+02 -0.24394534045E+02  0.51578471728E+02  0.00000000000E+00 0. -1.
          1    1    1    2  501    0 -0.35394948642E+02  0.46175937822E+01  0.70279515689E+01  0.36380168567E+02  0.00000000000E+00 0. -1.
<scales pt_clust_5="13000.00000" pt_clust_6="13000.00000" pt_clust_7="13000.00000" pt_clust_8="13000.00000" pt_clust_9="13000.00000"></scales>
<clustering>
<clus scale="   91.582">  7  8 -1 -1</clus>
<clus scale="   35.695">  7  9 -1 -1</clus>
<clus scale="  101.594">  5  6 -1 -1</clus>
<clus scale="  110.878">  2  5  1 -1</clus>
<clus scale="  137.383">  1  5  2 -1</clus>
</clustering>
</event>
<event>
 9    1  0.3312826E-006  0.3317726E+03  0.7546771E-02  0.1116975E+00
         -1   -1    0    0    0  501 -0.00000000000E+00  0.00000000000E+00  0.53342534099E+03  0.53342534099E+03  0.00000000000E+00 0.  1.
         21   -1    0    0  501  502  0.00000000000E+00 -0.00000000000E+00 -0.89214303423E+02  0.89214303423E+02  0.00000000000E+00 0.  1.
         23    2    1    2    0    0  0.17947250022E+02  0.19821538557E+02  0.15170246958E+03  0.18033393748E+03  0.93764025927E+02 0.  0.
         23    2    1    2    0    0  0.17811005025E+02  0.31223288876E+02 -0.36887114150E+02  0.10706587841E+03  0.93863291344E+02 0.  0.
        -13    1    4    4    0    0  0.22773104620E+01  0.63940097591E+02 -0.27579939884E+02  0.69671911894E+02  0.00000000000E+00 0.  1.
         13    1    4    4    0    0  0.15533694563E+02 -0.32716808715E+02 -0.93071742663E+01  0.37393966520E+02  0.00000000000E+00 0. -1.
        -13    1    3    3    0    0 -0.33894152427E+02  0.26217533520E+02  0.48871944306E+02  0.64997227425E+02  0.00000000000E+00 0.  1.
         13    1    3    3    0    0  0.51841402449E+02 -0.63959949624E+01  0.10283052527E+03  0.11533671006E+03  0.00000000000E+00 0. -1.
         -1    1    1    2    0  502 -0.35758255047E+02 -0.51044827434E+02  0.32939568214E+03  0.33523982852E+03  0.00000000000E+00 0.  1.
<scales pt_clust_5="13000.00000" pt_clust_6="13000.00000" pt_clust_7="13000.00000" pt_clust_8="13000.00000" pt_clust_9="13000.00000"></scales>
<clustering>
<clus scale="   93.764">  7  8 -1 -1</clus>
<clus scale="   93.863">  5  6 -1 -1</clus>
<clus scale="   62.324">  5  9 -1 -1</clus>
<clus scale="   97.502">  1  7  2 -1</clus>
<clus scale="  331.773">  2  5  1 -1</clus>
</clustering>
</event>
<event>
 9    1  0.3312826E-006  0.1669150E+03  0.7546771E-02  0.1199621E+00
         -2   -1    0    0    0  501 -0.00000000000E+00  0.00000000000E+00  0.70310519923E+02  0.70310519923E+02  0.00000000000E+00 0.  1.
         21   -1    0    0  501  502  0.00000000000E+00 -0.00000000000E+00 -0.28369060683E+03  0.28369060683E+03  0.00000000000E+00 0. -1.
         23    2    1    2    0    0 -0.30870441111E+02 -0.55378964511E+02 -0.11724222325E+03  0.16137949859E+03  0.90982359879E+02 0.  0.
         23    2    1    2    0    0 -0.26639010971E+02  0.42355210130E+02 -0.60385671228E+02  0.12366385470E+03  0.95617566058E+02 0.  0.
        -11    1    3    3    0    0 -0.38889577341E+02 -0.19906236065E+02 -0.11712902747E+03  0.12501146562E+03  0.00000000000E+00 0. -1.
         11    1    3    3    0    0  0.80191362302E+01 -0.35472728446E+02 -0.11319578065E+00  0.36368032976E+02  0.00000000000E+00 0.  1.
        -13    1    4    4    0    0  0.12336093295E+02  0.61280896586E+02 -0.47347261544E+02  0.78417412989E+02  0.00000000000E+00 0.  1.
         13    1    4    4    0    0 -0.38975104266E+02 -0.18925686456E+02 -0.13038409684E+02  0.45246441710E+02  0.00000000000E+00 0. -1.
         -2    1    1    2    0  502  0.57509452081E+02  0.13023754381E+02 -0.35752192428E+02  0.68957773458E+02  0.00000000000E+00 0.  1.
<scales pt_clust_5="13000.00000" pt_clust_6="13000.00000" pt_clust_7="13000.00000" pt_clust_8="13000.00000" pt_clust_9="13000.00000"></scales>
<clustering>
<clus scale="   90.982">  5  6 -1 -1</clus>
<clus scale="   95.618">  7  8 -1 -1</clus>
<clus scale="   58.966">  7  9 -1 -1</clus>
<clus scale="  110.895">  1  5  2 -1</clus>
<clus scale="  166.915">  2  5  1 -1</clus>
</clustering>
</event>
<event>
 9    1  0.3312826E-006  0.2207838E+03  0.7546771E-02  0.1167349E+00
          1   -1    0    0  502    0 -0.00000000000E+00  0.00000000000E+00  0.19119163433E+03  0.19119163433E+03  0.00000000000E+00 0. -1.
         21   -1    0    0  501  502  0.00000000000E+00 -0.00000000000E+00 -0.15378621457E+03  0.15378621457E+03  0.00000000000E+00 0. -1.
         23    2    1    2    0    0 -0.24646870377E+02  0.26496155377E+02  0.71243038699E+02  0.12161614358E+03  0.91680975923E+02 0.  0.
         23    2    1    2    0    0  0.59173839244E+02  0.20754622553E+02  0.49390173453E+02  0.12161882832E+03  0.91757574941E+02 0.  0.
        -13    1    4    4    0    0  0.45103386360E+02  0.41758129871E+02  0.66912703605E+02  0.90859048945E+02  0.00000000000E+00 0. -1.
         13    1    4    4    0    0  0.14070452884E+02 -0.21003507318E+02 -0.17522530152E+02  0.30759779371E+02  0.00000000000E+00 0.  1.
        -13    1    3    3    0    0 -0.18258812462E+02  0.57669873978E+02  0.65715527349E+02  0.89318134396E+02  0.00000000000E+00 0. -1.
         13    1    3    3    0    0 -0.63880579147E+01 -0.31173718601E+02  0.55275113500E+01  0.32298009181E+02  0.00000000000E+00 0.  1.
          1    1    1    2  501    0 -0.34526968868E+02 -0.47250777930E+02 -0.83227792390E+02  0.10174287700E+03  0.00000000000E+00 0. -1.
<scales pt_clust_5="13000.00000" pt_clust_6="13000.00000" pt_clust_7="13000.00000" pt_clust_8="13000.00000" pt_clust_9="13000.00000"></scales>
<clustering>
<clus scale="   91.681">  7  8 -1 -1</clus>
<clus scale="   91.758">  5  6 -1 -1</clus>
<clus scale="   58.521">  5  9 -1 -1</clus>
<clus scale="   98.564">  1  7  2 -1</clus>
<clus scale="  220.784">  2  5  1 -1</clus>
</clustering>
</event>
<event>
 9    1  0.3312826E-006  0.1519121E+03  0.7546771E-02  0.1226218E+00
         21   -1    0    0  501  502  0.00000000000E+00  0.00000000000E+00  0.83691039283E+02  0.83691039283E+02  0.00000000000E+00 0. -1.
          1   -1    0    0  502    0 -0.00000000000E+00 -0.00000000000E+00 -0.16730566302E+03  0.16730566302E+03  0.00000000000E+00 0. -1.
         23    2    1    2    0    0  0.10888559515E+02 -0.17785527686E+02 -0.41665217612E+02  0.93398986123E+02  0.80947480052E+02 0.  0.
         23    2    1    2    0    0 -0.49226008560E+02 -0.10733866080E+02 -0.35668421439E+02  0.10940470228E+03  0.90325726085E+02 0.  0.
        -11    1    3    3    0    0  0.39781587302E+02  0.12157588259E+02 -0.16366422425E+02  0.44701693743E+02  0.00000000000E+00 0.  1.
         11    1    3    3    0    0 -0.28893027787E+02 -0.29943115945E+02 -0.25298795187E+02  0.48697292380E+02  0.00000000000E+00 0. -1.
        -11    1    4    4    0    0 -0.66703323134E+02  0.16234099955E+02 -0.35460635515E+02  0.77267949304E+02  0.00000000000E+00 0. -1.
         11    1    4    4    0    0  0.17477314573E+02 -0.26967966035E+02 -0.20778592376E+00  0.32136752975E+02  0.00000000000E+00 0.  1.
          1    1    1    2  501    0  0.38337449046E+02  0.28519393766E+02 -0.62809846826E+01  0.48193013899E+02  0.00000000000E+00 0. -1.
<scales pt_clust_5="13000.00000" pt_clust_6="13000.00000" pt_clust_7="13000.00000" pt_clust_8="13000.00000" pt_clust_9="13000.00000"></scales>
<clustering>
<clus scale="   80.947">  5  6 -1 -1</clus>
<clus scale="   83.591">  2  5  1 -1</clus>
<clus scale="   90.326">  7  8 -1 -1</clus>
<clus scale="   47.608">  7  9 -1 -1</clus>
<clus scale="  151.912">  1  5  2 -1</clus>
</clustering>
</event>
<event>
 9    1  0.3312826E-006  0.1670470E+03  0.7546771E-02  0.1206575E+00
          2   -1    0    0  502    0 -0.00000000000E+00  0.00000000000E+00  0.65068088968E+03  0.65068088968E+03  0.00000000000E+00 0. -1.
         21   -1    0    0  501  502  0.00000000000E+00 -0.00000000000E+00 -0.68874520312E+02  0.68874520312E+02  0.00000000000E+00 0. -1.
         23    2    1    2    0    0  0.31198476674E+02 -0.12051038391E+02  0.53868486814E+03  0.54703249966E+03  0.89132463513E+02 0.  0.
         23    2    1    2    0    0 -0.62087739785E+02  0.40291085688E+02  0.52138417832E+02  0.12970992595E+03  0.92886981103E+02 0.  0.
        -13    1    4    4    0    0  0.10948764680E+02  0.17062561854E+02 -0.17025898214E+02  0.26474283277E+02  0.00000000000E+00 0.  1.
         13    1    4    4    0    0 -0.73036504466E+02  0.23228523834E+02  0.69164316046E+02  0.10323564267E+03  0.00000000000E+00 0. -1.
        -13    1    3    3    0    0  0.45648194010E+02 -0.41898626009E+02  0.36128610836E+03  0.36656091523E+03  0.00000000000E+00 0. -1.
         13    1    3    3    0    0 -0.14449717335E+02  0.29847587618E+02  0.17739875978E+03  0.18047158444E+03  0.00000000000E+00 0.  1.
          2    1    1    2  501    0  0.30889263111E+02 -0.28240047296E+02 -0.90169165994E+01  0.42812984383E+02  0.00000000000E+00 0. -1.
<scales pt_clust_5="13000.00000" pt_clust_6="13000.00000" pt_clust_7="13000.00000" pt_clust_8="13000.00000" pt_clust_9="13000.00000"></scales>
<clustering>
<clus scale="   89.132">  7  8 -1 -1</clus>
<clus scale="   92.887">  5  6 -1 -1</clus>
<clus scale="   41.853">  5  9 -1 -1</clus>
<clus scale="   95.201">  1  7  2 -1</clus>
<clus scale="  167.047">  2  5  1 -1</clus>
</clustering>
</event>
<event>
 9    1  0.3312826E-006  0.1572304E+03  0.7546771E-02  0.1213971E+00
         21   -1    0    0  501  502  0.00000000000E+00  0.00000000000E+00  0.11699798250E+03  0.11699798250E+03  0.00000000000E+00 0. -1.
         -1   -1    0    0    0  501 -0.00000000000E+00 -0.00000000000E+00 -0.15387077044E+03  0.15387077044E+03  0.00000000000E+00 0.  1.
         23    2    1    2    0    0 -0.12217710076E+02  0.29548440703E+02 -0.56072019258E+02  0.11247050058E+03  0.92104068144E+02 0.  0.
         23    2    1    2    0    0 -0.15521964319E+02  0.24551107898E+02  0.20256258087E+01  0.95222438795E+02  0.90661576287E+02 0.  0.
        -11    1    4    4    0    0 -0.42359268832E+02  0.15651053164E+02 -0.28668893836E+02  0.53489892455E+02  0.00000000000E+00 0.  1.
         11    1    4    4    0    0  0.26837304512E+02  0.89000547347E+01  0.30694519645E+02  0.41732546340E+02  0.00000000000E+00 0. -1.
        -13    1    3    3    0    0 -0.44516991491E+02  0.43487327435E+02 -0.38064768161E+02  0.72950920172E+02  0.00000000000E+00 0.  1.
         13    1    3    3    0    0  0.32299281415E+02 -0.13938886732E+02 -0.18007251097E+02  0.39519580404E+02  0.00000000000E+00 0. -1.
         -1    1    1    2    0  502  0.27739674395E+02 -0.54099548602E+02  0.17173605503E+02  0.63175813572E+02  0.00000000000E+00 0.  1.
<scales pt_clust_5="13000.00000" pt_clust_6="13000.00000" pt_clust_7="13000.00000" pt_clust_8="13000.00000" pt_clust_9="13000.00000"></scales>
<clustering>
<clus scale="   90.662">  5  6 -1 -1</clus>
<clus scale="   60.797">  5  9 -1 -1</clus>
<clus scale="   92.104">  7  8 -1 -1</clus>
<clus scale="   97.496">  2  7  1 -1</clus>
<clus scale="  157.230">  1  5  2 -1</clus>
</clustering>
</event>
<event>
 9    1  0.3312826E-006  0.2241346E+03  0.7546771E-02  0.1156062E+00
         21   -1    0    0  501  502  0.00000000000E+00  0.00000000000E+00  0.27530837151E+03  0.27530837151E+03  0.00000000000E+00 0. -1.
         -1   -1    0    0    0  501 -0.00000000000E+00 -0.00000000000E+00 -0.13724701107E+03  0.13724701107E+03  0.00000000000E+00 0.  1.
         23    2    1    2    0    0 -0.10804253282E+02  0.83469559311E+02 -0.37292208305E+02  0.12797643548E+03  0.88900843745E+02 0.  0.
         23    2    1    2    0    0  0.16330389552E+02 -0.12666630927E+03  0.17953828857E+03  0.24082955545E+03  0.97230870553E+02 0.  0.
        -11    1    3    3    0    0  0.27160492308E+02  0.78051337601E+02 -0.34407691381E+02  0.89518673302E+02  0.00000000000E+00 0.  1.
         11    1    3    3    0    0 -0.37964745590E+02  0.54182217101E+01 -0.28845169242E+01  0.38457762182E+02  0.00000000000E+00 0. -1.
        -13    1    4    4    0    0 -0.25946528810E+02 -0.41167264968E+00  0.18455388888E+02  0.31843260051E+02  0.00000000000E+00 0.  1.
         13    1    4    4    0    0  0.42276918362E+02 -0.12625463662E+03  0.16108289968E+03  0.20898629540E+03  0.00000000000E+00 0. -1.
         -1    1    1    2    0  502 -0.55261362701E+01  0.43196749963E+02 -0.41847198146E+01  0.43749391645E+02  0.00000000000E+00 0.  1.
<scales pt_clust_5="13000.00000" pt_clust_6="13000.00000" pt_clust_7="13000.00000" pt_clust_8="13000.00000" pt_clust_9="13000.00000"></scales>
<clustering>
<clus scale="   88.901">  5  6 -1 -1</clus>
<clus scale="   97.231">  7  8 -1 -1</clus>
<clus scale="   43.549">  7  9 -1 -1</clus>
<clus scale="  122.422">  2  5  1 -1</clus>
<clus scale="  224.135">  1  5  2 -1</clus>
</clustering>
</event>
<event>
 9    1  0.3312826E-006  0.1958704E+03  0.7546771E-02  0.1161858E+00
         21   -1    0    0  501  502  0.00000000000E+00  0.00000000000E+00  0.27545506834E+03  0.27545506834E+03  0.00000000000E+00 0. -1.
          2   -1    0    0  502    0 -0.00000000000E+00 -0.00000000000E+00 -0.24448865828E+03  0.24448865828E+03  0.00000000000E+00 0. -1.
         23    2    1    2    0    0  0.83016805450E+02  0.10345844361E+03 -0.17392584827E+03  0.23648995896E+03  0.89899168235E+02 0.  0.
         23    2    1    2    0    0 -0.40608560963E+02 -0.73438101196E+02  0.72493279657E+02  0.14122448196E+03  0.87446376588E+02 0.  0.
        -11    1    3    3    0    0  0.60444370730E+02  0.12566335162E+02 -0.98463884704E+02  0.11621777542E+03  0.00000000000E+00 0. -1.
         11    1    3    3    0    0  0.22572434719E+02  0.90892108452E+02 -0.75461963569E+02  0.12027218354E+03  0.00000000000E+00 0.  1.
        -11    1    4    4    0    0  0.15619616887E+02 -0.59373099285E+02  0.49525358431E+02  0.78879011645E+02  0.00000000000E+00 0.  1.
         11    1    4    4    0    0 -0.56228177851E+02 -0.14065001910E+02  0.22967921227E+02  0.62345470314E+02  0.00000000000E+00 0. -1.
          2    1    1    2  501    0 -0.42408244486E+02 -0.30020342418E+02  0.13239897868E+03  0.14222928571E+03  0.00000000000E+00 0. -1.
<scales pt_clust_5="13000.00000" pt_clust_6="13000.00000" pt_clust_7="13000.00000" pt_clust_8="13000.00000" pt_clust_9="13000.00000"></scales>
<clustering>
<clus scale="   87.446">  7  8 -1 -1</clus>
<clus scale="   51.958">  7  9 -1 -1</clus>
<clus scale="   89.899">  5  6 -1 -1</clus>
<clus scale="  160.241">  2  5  1 -1</clus>
<clus scale="  195.870">  1  5  2 -1</clus>
</clustering>
</event>
<event>
 9    1  0.3312826E-006  0.6023421E+03  0.7546771E-02  0.1051807E+00
         -1   -1    0    0    0  501 -0.00000000000E+00  0.00000000000E+00  0.44156159195E+03  0.44156159195E+03  0.00000000000E+00 0.  1.
         21   -1    0    0  501  502  0.00000000000E+00 -0.00000000000E+00 -0.27386537270E+03  0.27386537270E+03  0.00000000000E+00 0.  1.
         23    2    1    2    0    0  0.16770272928E+02  0.17100963067E+02  0.26181882560E+02  0.96684425858E+02  0.89937212750E+02 0.  0.
         23    2    1    2    0    0  0.17968798043E+02 -0.16595662520E+03  0.32846684174E+03  0.37725537486E+03  0.81035008388E+02 0.  0.
        -11    1    4    4    0    0  0.30500773633E+02 -0.17570200170E+02  0.82915042211E+02  0.90077263230E+02  0.00000000000E+00 0. -1.
         11    1    4    4    0    0 -0.12531975590E+02 -0.14838642503E+03  0.24555179953E+03  0.28717811163E+03  0.00000000000E+00 0.  1.
        -11    1    3    3    0    0  0.36122252071E+02 -0.25070016092E+02  0.24321333385E+02  0.50247886116E+02  0.00000000000E+00 0.  1.
         11    1    3    3    0    0 -0.19351979142E+02  0.42170979160E+02  0.18605491755E+01  0.46436539742E+02  0.00000000000E+00 0. -1.
         -1    1    1    2    0  502 -0.34739070971E+02  0.14885566213E+03 -0.18695250505E+03  0.24148716394E+03  0.00000000000E+00 0.  1.
<scales pt_clust_5="13000.00000" pt_clust_6="13000.00000" pt_clust_7="13000.00000" pt_clust_8="13000.00000" pt_clust_9="13000.00000"></scales>
<clustering>
<clus scale="   81.035">  5  6 -1 -1</clus>
<clus scale="   89.937">  7  8 -1 -1</clus>
<clus scale="   93.072">  1  7  2 -1</clus>
<clus scale="  153.784">  5  9 -1 -1</clus>
<clus scale="  602.342">  2  5  1 -1</clus>
</clustering>
</event>
<event>
 9    1  0.3312826E-006  0.3023071E+03  0.7546771E-02  0.1106875E+00
         -1   -1    0    0    0  501 -0.00000000000E+00  0.00000000000E+00  0.27998722108E+03  0.27998722108E+03  0.00000000000E+00 0.  1.
         21   -1    0    0  501  502  0.00000000000E+00 -0.00000000000E+00 -0.23647680262E+03  0.23647680262E+03  0.00000000000E+00 0.  1.
         23    2    1    2    0    0  0.14045352553E+03  0.66819110284E+00  0.11922334426E+03  0.20481996492E+03  0.89495099858E+02 0.  0.
         23    2    1    2    0    0  0.36697056748E+02 -0.59595042358E+02 -0.39290571409E+02  0.12143025670E+03  0.91122528464E+02 0.  0.
        -11    1    3    3    0    0  0.13453669419E+03  0.22097805759E+02  0.12130400913E+03  0.18249136345E+03  0.00000000000E+00 0.  1.
         11    1    3    3    0    0  0.59168313477E+01 -0.21429614657E+02 -0.20806648656E+01  0.22328601475E+02  0.00000000000E+00 0. -1.
        -13    1    4    4    0    0  0.46437223891E+02 -0.25516781945E+02 -0.60265310337E+02  0.80246056312E+02  0.00000000000E+00 0.  1.
         13    1    4    4    0    0 -0.97401671428E+01 -0.34078260413E+02  0.20974738928E+02  0.41184200391E+02  0.00000000000E+00 0. -1.
         -1    1    1    2    0  502 -0.17715058228E+03  0.58926851255E+02 -0.36422354397E+02  0.19021380208E+03  0.00000000000E+00 0.  1.
<scales pt_clust_5="13000.00000" pt_clust_6="13000.00000" pt_clust_7="13000.00000" pt_clust_8="13000.00000" pt_clust_9="13000.00000"></scales>
<clustering>
<clus scale="   89.495">  5  6 -1 -1</clus>
<clus scale="   91.123">  7  8 -1 -1</clus>
<clus scale="  166.544">  1  5  2 -1</clus>
<clus scale="  104.166">  7  9 -1 -1</clus>
<clus scale="  302.307">  2  5  1 -1</clus>
</clustering>
</event>
<event>
 9    1  0.3312826E-006  0.1472852E+03  0.7546771E-02  0.1215711E+00
         21   -1    0    0  501  502  0.00000000000E+00  0.00000000000E+00  0.49895744582E+02  0.49895744582E+02  0.00000000000E+00 0.  1.
         -3   -1    0    0    0  501 -0.00000000000E+00 -0.00000000000E+00 -0.40572575970E+03  0.40572575970E+03  0.00000000000E+00 0.  1.
         23    2    1    2    0    0  0.25116199921E+02 -0.54537226989E+02 -0.24801139861E+03  0.27308989588E+03  0.97279518738E+02 0.  0.
         23    2    1    2    0    0  0.92455823053E+01  0.21964419141E+02 -0.93525263450E+02  0.13307435584E+03  0.91618190217E+02 0.  0.
        -11    1    3    3    0    0 -0.29234507567E+02 -0.30419235005E+02 -0.45592525044E+02  0.62118150575E+02  0.00000000000E+00 0. -1.
         11    1    3    3    0    0  0.54350707488E+02 -0.24117991984E+02 -0.20241887357E+03  0.21097174531E+03  0.00000000000E+00 0.  1.
        -13    1    4    4    0    0  0.27001789943E+02 -0.29598067418E+02 -0.37119784325E+02  0.54617036201E+02  0.00000000000E+00 0.  1.
         13    1    4    4    0    0 -0.17756207637E+02  0.51562486559E+02 -0.56405479125E+02  0.78457319640E+02  0.00000000000E+00 0. -1.
         -3    1    1    2    0  502 -0.34361782226E+02  0.32572807848E+02 -0.14293353052E+02  0.49457252556E+02  0.00000000000E+00 0.  1.
<scales pt_clust_5="13000.00000" pt_clust_6="13000.00000" pt_clust_7="13000.00000" pt_clust_8="13000.00000" pt_clust_9="13000.00000"></scales>
<clustering>
<clus scale="   91.618">  7  8 -1 -1</clus>
<clus scale="   47.347">  7  9 -1 -1</clus>
<clus scale="   97.280">  5  6 -1 -1</clus>
<clus scale="  114.317">  2  5  1 -1</clus>
<clus scale="  147.285">  1  5  2 -1</clus>
</clustering>
</event>
<event>
 9    1  0.3312826E-006  0.2486065E+03  0.7546771E-02  0.1153442E+00
         21   -1    0    0  501  502  0.00000000000E+00  0.00000000000E+00  0.18580108002E+03  0.18580108002E+03  0.00000000000E+00 0. -1.
          1   -1    0    0  502    0 -0.00000000000E+00 -0.00000000000E+00 -0.16896423991E+03  0.16896423991E+03  0.00000000000E+00 0. -1.
         23    2    1    2    0    0 -0.62749625332E+01 -0.25285709722E+02 -0.33490673731E+02  0.10111587376E+03  0.91782636854E+02 0.  0.
         23    2    1    2    0    0 -0.55105833701E+02  0.51502028115E+02 -0.54723086488E+02  0.12918850400E+03  0.89475927288E+02 0.  0.
        -13    1    4    4    0    0 -0.19819099563E+02 -0.11840571188E+02  0.15851272455E+02  0.28004618761E+02  0.00000000000E+00 0.  1.
         13    1    4    4    0    0 -0.35286734139E+02  0.63342599302E+02 -0.70574358942E+02  0.10118388524E+03  0.00000000000E+00 0. -1.
        -13    1    3    3    0    0  0.55526163465E+01 -0.59035657551E+02 -0.25053190462E+02  0.64371599040E+02  0.00000000000E+00 0.  1.
         13    1    3    3    0    0 -0.11827578880E+02  0.33749947828E+02 -0.84374832695E+01  0.36744274717E+02  0.00000000000E+00 0. -1.
          1    1    1    2  501    0  0.61380796234E+02 -0.26216318392E+02  0.10505060033E+03  0.12446094217E+03  0.00000000000E+00 0. -1.
<scales pt_clust_5="13000.00000" pt_clust_6="13000.00000" pt_clust_7="13000.00000" pt_clust_8="13000.00000" pt_clust_9="13000.00000"></scales>
<clustering>
<clus scale="   89.476">  5  6 -1 -1</clus>
<clus scale="   66.745">  5  9 -1 -1</clus>
<clus scale="   91.783">  7  8 -1 -1</clus>
<clus scale="   95.409">  2  7  1 -1</clus>
<clus scale="  248.606">  1  5  2 -1</clus>
</clustering>
</event>
<event>
 9    1  0.3312826E-006  0.3079779E+03  0.7546771E-02  0.1104686E+00
         21   -1    0    0  501  502  0.00000000000E+00  0.00000000000E+00  0.27907231217E+03  0.27907231217E+03  0.00000000000E+00 0.  1.
         -1   -1    0    0    0  501 -0.00000000000E+00 -0.00000000000E+00 -0.20369544745E+03  0.20369544745E+03  0.00000000000E+00 0.  1.
         23    2    1    2    0    0 -0.89887725948E+02 -0.10706472479E+03  0.48939408159E+02  0.17365720223E+03  0.90659250195E+02 0.  0.
         23    2    1    2    0    0  0.80961232534E+02 -0.33814522851E+02 -0.67343680864E+02  0.13963623356E+03  0.85234753714E+02 0.  0.
        -13    1    3    3    0    0 -0.60488064520E+02 -0.32897005871E+02  0.62189472532E+02  0.92782268987E+02  0.00000000000E+00 0.  1.
         13    1    3    3    0    0 -0.29399661428E+02 -0.74167718917E+02 -0.13250064372E+02  0.80874933245E+02  0.00000000000E+00 0. -1.
        -13    1    4    4    0    0  0.52324649208E+02 -0.46553052612E+02 -0.54358620519E+01  0.70246738134E+02  0.00000000000E+00 0.  1.
         13    1    4    4    0    0  0.28636583325E+02  0.12738529761E+02 -0.61907818812E+02  0.69389495423E+02  0.00000000000E+00 0. -1.
         -1    1    1    2    0  502  0.89264934143E+01  0.14087924764E+03  0.93781137422E+02  0.16947432383E+03  0.00000000000E+00 0.  1.
<scales pt_clust_5="13000.00000" pt_clust_6="13000.00000" pt_clust_7="13000.00000" pt_clust_8="13000.00000" pt_clust_9="13000.00000"></scales>
<clustering>
<clus scale="   85.235">  7  8 -1 -1</clus>
<clus scale="   90.659">  5  6 -1 -1</clus>
<clus scale="  141.162">  7  9 -1 -1</clus>
<clus scale="  166.619">  2  5  1 -1</clus>
<clus scale="  307.978">  1  5  2 -1</clus>
</clustering>
</event>
<event>
 9    1  0.3312826E-006  0.1937854E+03  0.7546771E-02  0.1180262E+00
          1   -1    0    0  502    0 -0.00000000000E+00  0.00000000000E+00  0.87612690418E+03  0.87612690418E+03  0.00000000000E+00 0. -1.
         21   -1    0    0  501  502  0.00000000000E+00 -0.00000000000E+00 -0.28880534217E+02  0.28880534217E+02  0.00000000000E+00 0.  1.
         23    2    1    2    0    0 -0.47576207414E+01 -0.57151402865E+02  0.45098860752E+03  0.46390312926E+03  0.92338894421E+02 0.  0.
         23    2    1    2    0    0  0.28692912087E+02  0.42414496854E+01  0.35979698821E+03  0.37253500569E+03  0.92125917296E+02 0.  0.
        -11    1    4    4    0    0  0.29085611248E+02 -0.41549899330E+02  0.19626744773E+03  0.20271476994E+03  0.00000000000E+00 0.  1.
         11    1    4    4    0    0 -0.39269916094E+00  0.45791349015E+02  0.16352954048E+03  0.16982023574E+03  0.00000000000E+00 0. -1.
        -13    1    3    3    0    0 -0.19143913223E+02 -0.78331234634E+02  0.37937701392E+03  0.38785202129E+03  0.00000000000E+00 0.  1.
         13    1    3    3    0    0  0.14386292481E+02  0.21179831769E+02  0.71611593604E+02  0.76051107971E+02  0.00000000000E+00 0. -1.
          1    1    1    2  501    0 -0.23935291346E+02  0.52909953180E+02  0.36460774231E+02  0.68569303444E+02  0.00000000000E+00 0. -1.
<scales pt_clust_5="13000.00000" pt_clust_6="13000.00000" pt_clust_7="13000.00000" pt_clust_8="13000.00000" pt_clust_9="13000.00000"></scales>
<clustering>
<clus scale="   92.126">  5  6 -1 -1</clus>
<clus scale="   58.072">  5  9 -1 -1</clus>
<clus scale="   92.339">  7  8 -1 -1</clus>
<clus scale="  108.699">  1  7  2 -1</clus>
<clus scale="  193.785">  2  5  1 -1</clus>
</clustering>
</event>
<event>
 9    1  0.3312826E-006  0.1956897E+03  0.7546771E-02  0.1183991E+00
          2   -1    0    0  502    0 -0.00000000000E+00  0.00000000000E+00  0.21112472361E+03  0.21112472361E+03  0.00000000000E+00 0. -1.
         21   -1    0    0  501  502  0.00000000000E+00 -0.00000000000E+00 -0.10246777555E+03  0.10246777555E+03  0.00000000000E+00 0. -1.
         23    2    1    2    0    0 -0.89491937811E+01  0.35869539468E+02  0.50490819732E+02  0.10944122957E+03  0.89785009453E+02 0.  0.
         23    2    1    2    0    0 -0.15704615663E+01  0.38065421413E+02  0.79713641881E+02  0.12642523194E+03  0.90430259931E+02 0.  0.
        -11    1    4    4    0    0 -0.11486581763E+02 -0.28541185369E+02  0.26224960210E+02  0.40426344886E+02  0.00000000000E+00 0.  1.
         11    1    4    4    0    0  0.99161201963E+01  0.66606606782E+02  0.53488681671E+02  0.85998887049E+02  0.00000000000E+00 0. -1.
        -13    1    3    3    0    0 -0.43569940515E+02  0.35206014013E+00  0.83654332033E+01  0.44367151537E+02  0.00000000000E+00 0.  1.
         13    1    3    3    0    0  0.34620746734E+02  0.35517479328E+02  0.42125386529E+02  0.65074078037E+02  0.00000000000E+00 0. -1.
          2    1    1    2  501    0  0.10519655347E+02 -0.73934960880E+02 -0.21547513558E+02  0.77726037655E+02  0.00000000000E+00 0. -1.
<scales pt_clust_5="13000.00000" pt_clust_6="13000.00000" pt_clust_7="13000.00000" pt_clust_8="13000.00000" pt_clust_9="13000.00000"></scales>
<clustering>
<clus scale="   89.785">  7  8 -1 -1</clus>
<clus scale="   90.430">  5  6 -1 -1</clus>
<clus scale="   74.680">  5  9 -1 -1</clus>
<clus scale="   97.098">  1  7  2 -1</clus>
<clus scale="  195.690">  2  5  1 -1</clus>
</clustering>
</event>
<event>
 9    1  0.3312826E-006  0.2449522E+03  0.7546771E-02  0.1157209E+00
         21   -1    0    0  501  502  0.00000000000E+00  0.00000000000E+00  0.24070705175E+03  0.24070705175E+03  0.00000000000E+00 0. -1.
          3   -1    0    0  502    0 -0.00000000000E+00 -0.00000000000E+00 -0.15180368289E+03  0.15180368289E+03  0.00000000000E+00 0. -1.
         23    2    1    2    0    0  0.17497393928E+02  0.64892870954E+01 -0.56773370873E+02  0.10751372557E+03  0.89374022542E+02 0.  0.
         23    2    1    2    0    0  0.33358013502E+02 -0.16927684360E+02 -0.31157980801E+02  0.10069901399E+03  0.88148556930E+02 0.  0.
        -11    1    3    3    0    0  0.10935908123E+02  0.47924063282E+02 -0.27125414443E+02  0.56143548486E+02  0.00000000000E+00 0. -1.
         11    1    3    3    0    0  0.65614858044E+01 -0.41434776186E+02 -0.29647956430E+02  0.51370177088E+02  0.00000000000E+00 0.  1.
        -13    1    4    4    0    0 -0.53090796344E+01  0.32515464111E+02 -0.12175380432E+02  0.35123804202E+02  0.00000000000E+00 0. -1.
         13    1    4    4    0    0  0.38667093136E+02 -0.49443148471E+02 -0.18982600369E+02  0.65575209790E+02  0.00000000000E+00 0.  1.
          3    1    1    2  501    0 -0.50855407429E+02  0.10438397264E+02  0.17683472053E+03  0.18429799507E+03  0.00000000000E+00 0. -1.
<scales pt_clust_5="13000.00000" pt_clust_6="13000.00000" pt_clust_7="13000.00000" pt_clust_8="13000.00000" pt_clust_9="13000.00000"></scales>
<clustering>
<clus scale="   88.149">  7  8 -1 -1</clus>
<clus scale="   51.916">  7  9 -1 -1</clus>
<clus scale="   89.374">  5  6 -1 -1</clus>
<clus scale="   91.302">  2  5  1 -1</clus>
<clus scale="  244.952">  1  5  2 -1</clus>
</clustering>
</event>
<event>
 9    1  0.3312826E-006  0.2768512E+03  0.7546771E-02  0.1116590E+00
         -3   -1    0    0    0  501 -0.00000000000E+00  0.00000000000E+00  0.80917328755E+03  0.80917328755E+03  0.00000000000E+00 0.  1.
         21   -1    0    0  501  502  0.00000000000E+00 -0.00000000000E+00 -0.13241329705E+03  0.13241329705E+03  0.00000000000E+00 0.  1.
         23    2    1    2    0    0 -0.13156173658E+03  0.54641740429E+02  0.64030687052E+03  0.66234575895E+03  0.91732249686E+02 0.  0.
         23    2    1    2    0    0  0.15374829412E+03 -0.11456417087E+03  0.33074439651E+02  0.21525366689E+03  0.92069187892E+02 0.  0.
        -11    1    4    4    0    0  0.96019183657E+02 -0.31142715353E+02 -0.16595497175E+02  0.10229840114E+03  0.00000000000E+00 0. -1.
         11    1    4    4    0    0  0.57729110461E+02 -0.83421455520E+02  0.49669936826E+02  0.11295526575E+03  0.00000000000E+00 0.  1.
        -13    1    3    3    0    0 -0.55043801018E+02 -0.11951371008E+02  0.12435251708E+03  0.13651448203E+03  0.00000000000E+00 0.  1.
         13    1    3    3    0    0 -0.76517935565E+02  0.66593111437E+02  0.51595435344E+03  0.52583127692E+03  0.00000000000E+00 0. -1.
         -3    1    1    2    0  502 -0.22186557535E+02  0.59922430443E+02  0.33786803249E+01  0.63987158760E+02  0.00000000000E+00 0.  1.
<scales pt_clust_5="13000.00000" pt_clust_6="13000.00000" pt_clust_7="13000.00000" pt_clust_8="13000.00000" pt_clust_9="13000.00000"></scales>
<clustering>
<clus scale="   91.732">  7  8 -1 -1</clus>
<clus scale="   92.069">  5  6 -1 -1</clus>
<clus scale="   63.898">  5  9 -1 -1</clus>
<clus scale="  169.437">  1  7  2 -1</clus>
<clus scale="  276.851">  2  5  1 -1</clus>
</clustering>
</event>
<event>
 9    1  0.3312826E-006  0.4231545E+03  0.7546771E-02  0.1078307E+00
          2   -1    0    0  502    0 -0.00000000000E+00  0.00000000000E+00  0.71540423373E+03  0.71540423373E+03  0.00000000000E+00 0. -1.
         21   -1    0    0  501  502  0.00000000000E+00 -0.00000000000E+00 -0.10654742832E+03  0.10654742832E+03  0.00000000000E+00 0. -1.
         23    2    1    2    0    0  0.49238555973E+02 -0.73066308967E+02  0.15258751639E+03  0.19966444387E+03  0.93913891873E+02 0.  0.
         23    2    1    2    0    0 -0.14147504108E+02 -0.16156478901E+03  0.18159128824E+03  0.25933937320E+03  0.89320667287E+02 0.  0.
        -11    1    3    3    0    0  0.30321793103E+02 -0.58534618390E+02  0.16131431562E+03  0.17426422786E+03  0.00000000000E+00 0. -1.
         11    1    3    3    0    0  0.18916762869E+02 -0.14531690577E+02 -0.87267992314E+01  0.25400216009E+02  0.00000000000E+00 0.  1.
        -13    1    4    4    0    0 -0.30563619748E+02 -0.91527233260E+02  0.15512660815E+03  0.18268999381E+03  0.00000000000E+00 0.  1.
         13    1    4    4    0    0  0.16416115640E+02 -0.70037555754E+02  0.26464680083E+02  0.76649379388E+02  0.00000000000E+00 0. -1.
          2    1    1    2  501    0 -0.35091051865E+02  0.23463109798E+03  0.27467800080E+03  0.36294784499E+03  0.00000000000E+00 0. -1.
<scales pt_clust_5="13000.00000" pt_clust_6="13000.00000" pt_clust_7="13000.00000" pt_clust_8="13000.00000" pt_clust_9="13000.00000"></scales>
<clustering>
<clus scale="   89.321">  7  8 -1 -1</clus>
<clus scale="   93.914">  5  6 -1 -1</clus>
<clus scale="  128.775">  1  5  2 -1</clus>
<clus scale="  191.529">  7  9 -1 -1</clus>
<clus scale="  423.154">  2  5  1 -1</clus>
</clustering>
</event>
<event>
 9    1  0.3312826E-006  0.2358364E+03  0.7546771E-02  0.1162342E+00
         -2   -1    0    0    0  501 -0.00000000000E+00  0.00000000000E+00  0.15340213165E+03  0.15340213165E+03  0.00000000000E+00 0.  1.
         21   -1    0    0  501  502  0.00000000000E+00 -0.00000000000E+00 -0.19565897984E+03  0.19565897984E+03  0.00000000000E+00 0.  1.
         23    2    1    2    0    0 -0.99886082806E+01 -0.92371892594E+01  0.40126071714E+02  0.99249643341E+02  0.89751279163E+02 0.  0.
         23    2    1    2    0    0  0.16116648306E+02 -0.58959173714E+02  0.33218139011E+02  0.11545410282E+03  0.92142685988E+02 0.  0.
        -11    1    3    3    0    0  0.39086187320E+02 -0.13599393628E+02  0.20904466986E+02  0.46364536946E+02  0.00000000000E+00 0.  1.
         11    1    3    3    0    0 -0.49074795600E+02  0.43622043681E+01  0.19221604727E+02  0.52885106395E+02  0.00000000000E+00 0. -1.
        -11    1    4    4    0    0  0.33817604037E+02 -0.74891215182E+02  0.38984159439E+02  0.90951026060E+02  0.00000000000E+00 0.  1.
         11    1    4    4    0    0 -0.17700955731E+02  0.15932041468E+02 -0.57660204282E+01  0.24503076760E+02  0.00000000000E+00 0. -1.
         -2    1    1    2    0  502 -0.61280400250E+01  0.68196362974E+02 -0.11560105891E+03  0.13435736533E+03  0.00000000000E+00 0.  1.
<scales pt_clust_5="13000.00000" pt_clust_6="13000.00000" pt_clust_7="13000.00000" pt_clust_8="13000.00000" pt_clust_9="13000.00000"></scales>
<clustering>
<clus scale="   89.751">  5  6 -1 -1</clus>
<clus scale="   90.777">  1  5  2 -1</clus>
<clus scale="   92.143">  7  8 -1 -1</clus>
<clus scale="   67.551">  7  9 -1 -1</clus>
<clus scale="  235.836">  2  5  1 -1</clus>
</clustering>
</event>
<event>
 9    1  0.3312826E-006  0.2535883E+03  0.7546771E-02  0.1148248E+00
         21   -1    0    0  501  502  0.00000000000E+00  0.00000000000E+00  0.11371218434E+03  0.11371218434E+03  0.00000000000E+00 0. -1.
          1   -1    0    0  502    0 -0.00000000000E+00 -0.00000000000E+00 -0.28444955514E+03  0.28444955514E+03  0.00000000000E+00 0. -1.
         23    2    1    2    0    0  0.24830805870E+01 -0.44463393875E+02 -0.21430318412E+02  0.10388361140E+03  0.91374980638E+02 0.  0.
         23    2    1    2    0    0  0.63956629200E+02 -0.38116177307E+02 -0.14730478186E+03  0.18827044109E+03  0.90574647882E+02 0.  0.
        -11    1    3    3    0    0 -0.38416378439E+02 -0.82922210129E+01  0.10438589207E+02  0.40663782490E+02  0.00000000000E+00 0.  1.
         11    1    3    3    0    0  0.40899459026E+02 -0.36171172862E+02 -0.31868907619E+02  0.63219828912E+02  0.00000000000E+00 0. -1.
        -11    1    4    4    0    0  0.69102721707E+02 -0.61315172398E+02 -0.12679069221E+03  0.15687771079E+03  0.00000000000E+00 0. -1.
         11    1    4    4    0    0 -0.51460925070E+01  0.23198995091E+02 -0.20514089655E+02  0.31392730300E+02  0.00000000000E+00 0.  1.
          1    1    1    2  501    0 -0.66439709787E+02  0.82579571182E+02 -0.20022705301E+01  0.10600768699E+03  0.00000000000E+00 0. -1.
<scales pt_clust_5="13000.00000" pt_clust_6="13000.00000" pt_clust_7="13000.00000" pt_clust_8="13000.00000" pt_clust_9="13000.00000"></scales>
<clustering>
<clus scale="   90.575">  7  8 -1 -1</clus>
<clus scale="   91.375">  5  6 -1 -1</clus>
<clus scale="  101.649">  2  5  1 -1</clus>
<clus scale="   97.380">  7  9 -1 -1</clus>
<clus scale="  253.588">  1  5  2 -1</clus>
</clustering>
</event>
<event>
 9    1  0.3312826E-006  0.4779985E+03  0.7546771E-02  0.1024577E+00
         21   -1    0    0  501  502  0.00000000000E+00  0.00000000000E+00  0.23869137826E+03  0.23869137826E+03  0.00000000000E+00 0.  1.
         -1   -1    0    0    0  501 -0.00000000000E+00 -0.00000000000E+00 -0.84557738497E+03  0.84557738497E+03  0.00000000000E+00 0.  1.
         23    2    1    2    0    0  0.61561564256E+02 -0.39754080503E+03 -0.35360852752E+03  0.54331401935E+03  0.91228367446E+02 0.  0.
         23    2    1    2    0    0  0.18849702974E+02  0.12592247419E+03 -0.19724243756E+03  0.25219460911E+03  0.92118189725E+02 0.  0.
        -13    1    3    3    0    0  0.36525312907E+02 -0.26871999858E+03 -0.29145391105E+03  0.39810792304E+03  0.00000000000E+00 0.  1.
         13    1    3    3    0    0  0.25036251349E+02 -0.12882080646E+03 -0.62154616468E+02  0.14520609631E+03  0.00000000000E+00 0. -1.
        -13    1    4    4    0    0 -0.18130582853E+02  0.10733400736E+03 -0.17249773644E+03  0.20397248895E+03  0.00000000000E+00 0.  1.
         13    1    4    4    0    0  0.36980285827E+02  0.18588466829E+02 -0.24744701123E+02  0.48222120158E+02  0.00000000000E+00 0. -1.
         -1    1    1    2    0  502 -0.80411267230E+02  0.27161833084E+03 -0.56035041626E+02  0.28876013478E+03  0.00000000000E+00 0.  1.
<scales pt_clust_5="13000.00000" pt_clust_6="13000.00000" pt_clust_7="13000.00000" pt_clust_8="13000.00000" pt_clust_9="13000.00000"></scales>
<clustering>
<clus scale="   91.228">  5  6 -1 -1</clus>
<clus scale="   92.118">  7  8 -1 -1</clus>
<clus scale="  283.271">  7  9 -1 -1</clus>
<clus scale="  412.494">  2  5  1 -1</clus>
<clus scale="  477.998">  1  5  2 -1</clus>
</clustering>
</event>
<event>
 9    1  0.3312826E-006  0.4329278E+03  0.7546771E-02  0.1067707E+00
          2   -1    0    0  502    0 -0.00000000000E+00  0.00000000000E+00  0.10730616796E+04  0.10730616796E+04  0.00000000000E+00 0. -1.
         21   -1    0    0  501  502  0.00000000000E+00 -0.00000000000E+00 -0.87427039640E+02  0.87427039640E+02  0.00000000000E+00 0. -1.
         23    2    1    2    0    0  0.12961374766E+03 -0.28034057375E+02  0.15192333895E+03  0.22107347110E+03  0.90593304133E+02 0.  0.
         23    2    1    2    0    0  0.31239713431E+02 -0.81191060443E+02  0.68028418579E+03  0.69173835783E+03  0.90263360609E+02 0.  0.
        -11    1    3    3    0    0  0.13598734466E+03 -0.87600817780E+01  0.11240950203E+03  0.17664991675E+03  0.00000000000E+00 0. -1.
         11    1    3    3    0    0 -0.63735969969E+01 -0.19273975597E+02  0.39513836915E+02  0.44423554357E+02  0.00000000000E+00 0.  1.
        -13    1    4    4    0    0 -0.22666786739E+02 -0.64242480497E+02  0.40855950366E+03  0.41420012983E+03  0.00000000000E+00 0. -1.
         13    1    4    4    0    0  0.53906500170E+02 -0.16948579946E+02  0.27172468214E+03  0.27753822801E+03  0.00000000000E+00 0.  1.
          2    1    1    2  501    0 -0.16085346109E+03  0.10922511782E+03  0.15342711523E+03  0.24767689031E+03  0.00000000000E+00 0. -1.
<scales pt_clust_5="13000.00000" pt_clust_6="13000.00000" pt_clust_7="13000.00000" pt_clust_8="13000.00000" pt_clust_9="13000.00000"></scales>
<clustering>
<clus scale="   90.263">  7  8 -1 -1</clus>
<clus scale="   90.593">  5  6 -1 -1</clus>
<clus scale="  160.601">  1  5  2 -1</clus>
<clus scale="  166.991">  7  9 -1 -1</clus>
<clus scale="  432.928">  2  5  1 -1</clus>
</clustering>
</event>
<event>
 9    1  0.3312826E-006  0.2768369E+03  0.7546771E-02  0.1123743E+00
         21   -1    0    0  501  502  0.00000000000E+00  0.00000000000E+00  0.67871405065E+03  0.67871405065E+03  0.00000000000E+00 0. -1.
         -4   -1    0    0    0  501 -0.00000000000E+00 -0.00000000000E+00 -0.66984585337E+02  0.66984585337E+02  0.00000000000E+00 0.  1.
         23    2    1    2    0    0 -0.46732572700E+02  0.10424607722E+03  0.27846834775E+03  0.31245315229E+03  0.83852094231E+02 0.  0.
         23    2    1    2    0    0  0.42076434302E+02  0.85886682205E+01  0.38443379397E+02  0.11753856560E+03  0.10243646537E+03 0.  0.
        -13    1    4    4    0    0  0.73079939303E+02 -0.54942410973E+00  0.86719109360E+01  0.73594710643E+02  0.00000000000E+00 0.  1.
         13    1    4    4    0    0 -0.31003505001E+02  0.91380923302E+01  0.29771468461E+02  0.43943854953E+02  0.00000000000E+00 0. -1.
        -13    1    3    3    0    0 -0.18397846469E+02  0.75095743165E+02  0.25283893777E+03  0.26439625536E+03  0.00000000000E+00 0. -1.
         13    1    3    3    0    0 -0.28334726231E+02  0.29150334055E+02  0.25629409984E+02  0.48056896927E+02  0.00000000000E+00 0.  1.
         -4    1    1    2    0  502  0.46561383982E+01 -0.11283474544E+03  0.29481773817E+03  0.31570691811E+03  0.00000000000E+00 0.  1.
<scales pt_clust_5="13000.00000" pt_clust_6="13000.00000" pt_clust_7="13000.00000" pt_clust_8="13000.00000" pt_clust_9="13000.00000"></scales>
<clustering>
<clus scale="   83.852">  7  8 -1 -1</clus>
<clus scale="  102.436">  5  6 -1 -1</clus>
<clus scale="  112.931">  5  9 -1 -1</clus>
<clus scale="  141.712">  2  7  1 -1</clus>
<clus scale="  276.837">  1  5  2 -1</clus>
</clustering>
</event>
<event>
 9    1  0.3312826E-006  0.1890168E+03  0.7546771E-02  0.1185870E+00
         21   -1    0    0  501  502  0.00000000000E+00  0.00000000000E+00  0.87826591333E+02  0.87826591333E+02  0.00000000000E+00 0. -1.
         -1   -1    0    0    0  501 -0.00000000000E+00 -0.00000000000E+00 -0.31885425562E+03  0.31885425562E+03  0.00000000000E+00 0.  1.
         23    2    1    2    0    0 -0.31234683898E+02  0.39188975087E+02 -0.18537474968E+03  0.21222891544E+03  0.90365554737E+02 0.  0.
         23    2    1    2    0    0 -0.29561533325E+01  0.14947999219E+02 -0.79213472407E+02  0.12215990998E+03  0.91739238461E+02 0.  0.
        -11    1    3    3    0    0 -0.28407784880E+02  0.63602738492E+02 -0.16873713098E+03  0.18255007520E+03  0.00000000000E+00 0.  1.
         11    1    3    3    0    0 -0.28268990178E+01 -0.24413763405E+02 -0.16637618698E+02  0.29678840234E+02  0.00000000000E+00 0. -1.
        -13    1    4    4    0    0  0.18994777388E+02 -0.25825709297E+02 -0.66991307488E+02  0.74267113231E+02  0.00000000000E+00 0. -1.
         13    1    4    4    0    0 -0.21950930720E+02  0.40773708515E+02 -0.12222164919E+02  0.47892796754E+02  0.00000000000E+00 0.  1.
         -1    1    1    2    0  502  0.34190837230E+02 -0.54136974305E+02  0.33560557798E+02  0.72292021532E+02  0.00000000000E+00 0.  1.
<scales pt_clust_5="13000.00000" pt_clust_6="13000.00000" pt_clust_7="13000.00000" pt_clust_8="13000.00000" pt_clust_9="13000.00000"></scales>
<clustering>
<clus scale="   90.366">  5  6 -1 -1</clus>
<clus scale="   91.739">  7  8 -1 -1</clus>
<clus scale="   64.030">  7  9 -1 -1</clus>
<clus scale="  103.331">  2  5  1 -1</clus>
<clus scale="  189.017">  1  5  2 -1</clus>
</clustering>
</event>
<event>
 9    1  0.3312826E-006  0.3116677E+03  0.7546771E-02  0.1114335E+00
         21   -1    0    0  501  502  0.00000000000E+00  0.00000000000E+00  0.95678117865E+02  0.95678117865E+02  0.00000000000E+00 0. -1.
          1   -1    0    0  502    0 -0.00000000000E+00 -0.00000000000E+00 -0.79205187438E+03  0.79205187438E+03  0.00000000000E+00 0. -1.
         23    2    1    2    0    0 -0.72002032306E+02 -0.51345514928E+02 -0.50851792588E+03  0.52382535340E+03  0.89341285897E+02 0.  0.
         23    2    1    2    0    0 -0.44815270229E+01  0.11256868499E+03 -0.22070837376E+03  0.26057361258E+03  0.80589257356E+02 0.  0.
        -11    1    3    3    0    0 -0.83638015733E+02 -0.27967576684E+02 -0.46321165122E+03  0.47153211646E+03  0.00000000000E+00 0.  1.
         11    1    3    3    0    0  0.11635983428E+02 -0.23377938243E+02 -0.45306274652E+02  0.52293236941E+02  0.00000000000E+00 0. -1.
        -11    1    4    4    0    0 -0.25596089268E+02  0.45413568002E+01 -0.63934494816E+02  0.69017413272E+02  0.00000000000E+00 0. -1.
         11    1    4    4    0    0  0.21114562245E+02  0.10802732819E+03 -0.15677387894E+03  0.19155619931E+03  0.00000000000E+00 0.  1.
          1    1    1    2  501    0  0.76483559329E+02 -0.61223170064E+02  0.32852543118E+02  0.10333102627E+03  0.00000000000E+00 0. -1.
<scales pt_clust_5="13000.00000" pt_clust_6="13000.00000" pt_clust_7="13000.00000" pt_clust_8="13000.00000" pt_clust_9="13000.00000"></scales>
<clustering>
<clus scale="   80.589">  7  8 -1 -1</clus>
<clus scale="   89.341">  5  6 -1 -1</clus>
<clus scale="   97.969">  7  9 -1 -1</clus>
<clus scale="  125.708">  2  5  1 -1</clus>
<clus scale="  311.668">  1  5  2 -1</clus>
</clustering>
</event>
<event>
 9    1  0.3312826E-006  0.3429430E+03  0.7546771E-02  0.1112279E+00
         21   -1    0    0  501  502  0.00000000000E+00  0.00000000000E+00  0.34356726643E+02  0.34356726643E+02  0.00000000000E+00 0. -1.
          2   -1    0    0  502    0 -0.00000000000E+00 -0.00000000000E+00 -0.14565402157E+04  0.14565402157E+04  0.00000000000E+00 0. -1.
         23    2    1    2    0    0  0.73814386245E+01  0.38328189745E+02 -0.42215647598E+03  0.43370069514E+03  0.91414807246E+02 0.  0.
         23    2    1    2    0    0 -0.81556502405E+02  0.73551522093E+02 -0.19998007704E+03  0.24596624907E+03  0.91902529802E+02 0.  0.
        -11    1    4    4    0    0 -0.26215497794E+02  0.24729298966E+01  0.32859498289E+00  0.26333926436E+02  0.00000000000E+00 0. -1.
         11    1    4    4    0    0 -0.55341004611E+02  0.71078592196E+02 -0.20030867202E+03  0.21963232264E+03  0.00000000000E+00 0.  1.
        -13    1    3    3    0    0 -0.25418259316E+02 -0.19951358326E+02 -0.15106547931E+03  0.15448276165E+03  0.00000000000E+00 0. -1.
         13    1    3    3    0    0  0.32799697940E+02  0.58279548070E+02 -0.27109099667E+03  0.27921793349E+03  0.00000000000E+00 0.  1.
          2    1    1    2  501    0  0.74175063780E+02 -0.11187971184E+03 -0.80004693603E+03  0.81122999812E+03  0.00000000000E+00 0. -1.
<scales pt_clust_5="13000.00000" pt_clust_6="13000.00000" pt_clust_7="13000.00000" pt_clust_8="13000.00000" pt_clust_9="13000.00000"></scales>
<clustering>
<clus scale="   91.415">  7  8 -1 -1</clus>
<clus scale="   91.903">  5  6 -1 -1</clus>
<clus scale="   99.399">  2  7  1 -1</clus>
<clus scale="  114.429">  5  9 -1 -1</clus>
<clus scale="  342.943">  1  5  2 -1</clus>
</clustering>
</event>
<event>
 9    1  0.3312826E-006  0.1284839E+03  0.7546771E-02  0.1235587E+00
          1   -1    0    0  502    0 -0.00000000000E+00  0.00000000000E+00  0.24809387481E+03  0.24809387481E+03  0.00000000000E+00 0. -1.
         21   -1    0    0  501  502  0.00000000000E+00 -0.00000000000E+00 -0.61864210223E+02  0.61864210223E+02  0.00000000000E+00 0. -1.
         23    2    1    2    0    0  0.59642757200E+02  0.33545269380E+02  0.11987438915E+03  0.16535127200E+03  0.91041915587E+02 0.  0.
         23    2    1    2    0    0 -0.20258811595E+02 -0.28226189932E+02  0.48022425304E+02  0.10084060265E+03  0.81581471944E+02 0.  0.
        -13    1    4    4    0    0 -0.38995877736E+02  0.10584567840E+02  0.40278813828E+02  0.57053434604E+02  0.00000000000E+00 0.  1.
         13    1    4    4    0    0  0.18737066142E+02 -0.38810757771E+02  0.77436114767E+01  0.43787168041E+02  0.00000000000E+00 0. -1.
        -13    1    3    3    0    0  0.73882037815E+02  0.51681310621E+02  0.10227616087E+03  0.13634488059E+03  0.00000000000E+00 0. -1.
         13    1    3    3    0    0 -0.14239280615E+02 -0.18136041241E+02  0.17598228276E+02  0.29006391413E+02  0.00000000000E+00 0.  1.
          1    1    1    2  501    0 -0.39383945605E+02 -0.53190794486E+01  0.18332850131E+02  0.43766210386E+02  0.00000000000E+00 0. -1.
<scales pt_clust_5="13000.00000" pt_clust_6="13000.00000" pt_clust_7="13000.00000" pt_clust_8="13000.00000" pt_clust_9="13000.00000"></scales>
<clustering>
<clus scale="   81.581">  5  6 -1 -1</clus>
<clus scale="   39.742">  5  9 -1 -1</clus>
<clus scale="   91.042">  7  8 -1 -1</clus>
<clus scale="  113.891">  1  7  2 -1</clus>
<clus scale="  128.484">  2  5  1 -1</clus>
</clustering>
</event>
<event>
 9    1  0.3312826E-006  0.2684465E+03  0.7546771E-02  0.1135112E+00
         21   -1    0    0  501  502  0.00000000000E+00  0.00000000000E+00  0.83974205189E+02  0.83974205189E+02  0.00000000000E+00 0. -1.
          1   -1    0    0  502    0 -0.00000000000E+00 -0.00000000000E+00 -0.44437198286E+03  0.44437198286E+03  0.00000000000E+00 0. -1.
         23    2    1    2    0    0 -0.64784119841E+02 -0.36424447901E+02 -0.12061934623E+03  0.16840559045E+03  0.91036770710E+02 0.  0.
         23    2    1    2    0    0  0.98086528652E+02  0.97321217539E+02 -0.24317800225E+03  0.29044941783E+03  0.78313070781E+02 0.  0.
        -13    1    3    3    0    0 -0.36436540854E+02 -0.66716203776E+02 -0.76644747112E+02  0.10794948178E+03  0.00000000000E+00 0.  1.
         13    1    3    3    0    0 -0.28347578988E+02  0.30291755875E+02 -0.43974599117E+02  0.60456108674E+02  0.00000000000E+00 0. -1.
        -13    1    4    4    0    0  0.46419414452E+02  0.66435474451E+02 -0.69940499723E+02  0.10705189305E+03  0.00000000000E+00 0.  1.
         13    1    4    4    0    0  0.51667114199E+02  0.30885743088E+02 -0.17323750252E+03  0.18339752478E+03  0.00000000000E+00 0. -1.
          1    1    1    2  501    0 -0.33302408810E+02 -0.60896769638E+02  0.33995707989E+01  0.69491179775E+02  0.00000000000E+00 0. -1.
<scales pt_clust_5="13000.00000" pt_clust_6="13000.00000" pt_clust_7="13000.00000" pt_clust_8="13000.00000" pt_clust_9="13000.00000"></scales>
<clustering>
<clus scale="   78.313">  7  8 -1 -1</clus>
<clus scale="   69.408">  7  9 -1 -1</clus>
<clus scale="   91.037">  5  6 -1 -1</clus>
<clus scale="  117.522">  2  5  1 -1</clus>
<clus scale="  268.447">  1  5  2 -1</clus>
</clustering>
</event>
<event>
 9    1  0.3312826E-006  0.2557558E+03  0.7546771E-02  0.1124365E+00
         21   -1    0    0  501  502  0.00000000000E+00  0.00000000000E+00  0.24014803123E+03  0.24014803123E+03  0.00000000000E+00 0.  1.
          2   -1    0    0  502    0 -0.00000000000E+00 -0.00000000000E+00 -0.19502021208E+03  0.19502021208E+03  0.00000000000E+00 0. -1.
         23    2    1    2    0    0  0.39111271554E+02  0.14648987629E+03  0.23006923689E+02  0.17845757226E+03  0.91262320506E+02 0.  0.
         23    2    1    2    0    0  0.86273797718E+01 -0.15224902742E+03 -0.35661684500E+02  0.18153771581E+03  0.91814968757E+02 0.  0.
        -13    1    4    4    0    0  0.40186974702E+02 -0.44584330787E+02 -0.34714793604E+02  0.69338823054E+02  0.00000000000E+00 0. -1.
         13    1    4    4    0    0 -0.31559594931E+02 -0.10766469663E+03 -0.94689089568E+00  0.11219889276E+03  0.00000000000E+00 0.  1.
        -13    1    3    3    0    0  0.28119083718E+02 -0.70591735685E+00 -0.39707524495E+01  0.28406831282E+02  0.00000000000E+00 0.  1.
         13    1    3    3    0    0  0.10992187835E+02  0.14719579364E+03  0.26977676139E+02  0.15005074098E+03  0.00000000000E+00 0. -1.
          2    1    1    2  501    0 -0.47738651325E+02  0.57591511351E+01  0.57782579963E+02  0.75172955239E+02  0.00000000000E+00 0. -1.
<scales pt_clust_5="13000.00000" pt_clust_6="13000.00000" pt_clust_7="13000.00000" pt_clust_8="13000.00000" pt_clust_9="13000.00000"></scales>
<clustering>
<clus scale="   91.262">  7  8 -1 -1</clus>
<clus scale="   91.815">  5  6 -1 -1</clus>
<clus scale="   48.085">  5  9 -1 -1</clus>
<clus scale="  176.968">  2  7  1 -1</clus>
<clus scale="  255.756">  1  5  2 -1</clus>
</clustering>
</event>
<event>
 9    1  0.3312826E-006  0.2559204E+03  0.7546771E-02  0.1159293E+00
         21   -1    0    0  501  502  0.00000000000E+00  0.00000000000E+00  0.72960002545E+03  0.72960002545E+03  0.00000000000E+00 0.  1.
          3   -1    0    0  502    0 -0.00000000000E+00 -0.00000000000E+00 -0.54414049809E+02  0.54414049809E+02  0.00000000000E+00 0. -1.
         23    2    1    2    0    0  0.12730316106E+02 -0.90510142827E+01  0.17427516661E+02  0.78222721677E+02  0.74639761802E+02 0.  0.
         23    2    1    2    0    0  0.82643427194E+02 -0.16961732161E+02  0.18566310358E+03  0.22345657515E+03  0.91347777932E+02 0.  0.
        -13    1    3    3    0    0 -0.16675690112E+02  0.18663586057E+02  0.26875657414E+02  0.36724774290E+02  0.00000000000E+00 0.  1.
         13    1    3    3    0    0  0.29406006218E+02 -0.27714600339E+02 -0.94481407530E+01  0.41497947387E+02  0.00000000000E+00 0. -1.
        -13    1    4    4    0    0  0.10677810225E+02  0.34138740145E+02  0.60936210640E+02  0.70658976620E+02  0.00000000000E+00 0.  1.
         13    1    4    4    0    0  0.71965616969E+02 -0.51100472306E+02  0.12472689294E+03  0.15279759853E+03  0.00000000000E+00 0. -1.
          3    1    1    2  501    0 -0.95373743300E+02  0.26012746444E+02  0.47209535540E+03  0.48233477843E+03  0.00000000000E+00 0. -1.
<scales pt_clust_5="13000.00000" pt_clust_6="13000.00000" pt_clust_7="13000.00000" pt_clust_8="13000.00000" pt_clust_9="13000.00000"></scales>
<clustering>
<clus scale="   74.640">  5  6 -1 -1</clus>
<clus scale="   76.257">  2  5  1 -1</clus>
<clus scale="   91.348">  7  8 -1 -1</clus>
<clus scale="   95.739">  7  9 -1 -1</clus>
<clus scale="  255.920">  1  5  2 -1</clus>
</clustering>
</event>
<event>
 9    1  0.3312826E-006  0.2288084E+03  0.7546771E-02  0.1160017E+00
         21   -1    0    0  501  502  0.00000000000E+00  0.00000000000E+00  0.77631512223E+02  0.77631512223E+02  0.00000000000E+00 0. -1.
         -3   -1    0    0    0  501 -0.00000000000E+00 -0.00000000000E+00 -0.35938622315E+03  0.35938622315E+03  0.00000000000E+00 0.  1.
         23    2    1    2    0    0 -0.13538034702E+02 -0.50131172862E+02 -0.97797429645E+02  0.14343034956E+03  0.91167510947E+02 0.  0.
         23    2    1    2    0    0  0.31507225194E+02  0.10481004221E+03 -0.18884598912E+03  0.23582433514E+03  0.89288628898E+02 0.  0.
        -11    1    4    4    0    0 -0.94955876122E+01  0.96341722511E+02 -0.10985986624E+03  0.14642774290E+03  0.00000000000E+00 0.  1.
         11    1    4    4    0    0  0.41002812806E+02  0.84683196968E+01 -0.78986122880E+02  0.89396592240E+02  0.00000000000E+00 0. -1.
        -11    1    3    3    0    0  0.13515663861E+02 -0.58304001503E+02 -0.24135949325E+02  0.64533509208E+02  0.00000000000E+00 0. -1.
         11    1    3    3    0    0 -0.27053698563E+02  0.81728286403E+01 -0.73661480320E+02  0.78896840347E+02  0.00000000000E+00 0.  1.
         -3    1    1    2    0  502 -0.17969190492E+02 -0.54678869345E+02  0.48887078335E+01  0.57763050682E+02  0.00000000000E+00 0.  1.
<scales pt_clust_5="13000.00000" pt_clust_6="13000.00000" pt_clust_7="13000.00000" pt_clust_8="13000.00000" pt_clust_9="13000.00000"></scales>
<clustering>
<clus scale="   89.289">  5  6 -1 -1</clus>
<clus scale="   57.556">  5  9 -1 -1</clus>
<clus scale="   91.168">  7  8 -1 -1</clus>
<clus scale="  104.919">  2  7  1 -1</clus>
<clus scale="  228.808">  1  5  2 -1</clus>
</clustering>
</event>
<event>
 9    1  0.3312826E-006  0.2492191E+03  0.7546771E-02  0.1140135E+00
          4   -1    0    0  502    0 -0.00000000000E+00  0.00000000000E+00  0.90927871243E+02  0.90927871243E+02  0.00000000000E+00 0. -1.
         21   -1    0    0  501  502  0.00000000000E+00 -0.00000000000E+00 -0.63502139680E+03  0.63502139680E+03  0.00000000000E+00 0. -1.
         23    2    1    2    0    0 -0.62338065183E+02  0.67588991532E+02 -0.43477652466E+03  0.45380896460E+03  0.91965448996E+02 0.  0.
         23    2    1    2    0    0  0.10169595196E+03  0.16972289100E+02 -0.14112492866E+02  0.13886032827E+03  0.91939670817E+02 0.  0.
        -13    1    4    4    0    0 -0.36873633330E+01  0.31502638405E+02 -0.17811882230E+01  0.31767680216E+02  0.00000000000E+00 0.  1.
         13    1    4    4    0    0  0.10538331529E+03 -0.14530349305E+02 -0.12331304643E+02  0.10709264805E+03  0.00000000000E+00 0. -1.
        -13    1    3    3    0    0 -0.18676009828E+02  0.72170034473E+02 -0.35507485050E+03  0.36281600940E+03  0.00000000000E+00 0. -1.
         13    1    3    3    0    0 -0.43662055355E+02 -0.45810429414E+01 -0.79701674161E+02  0.90992955202E+02  0.00000000000E+00 0.  1.
          4    1    1    2  501    0 -0.39357886774E+02 -0.84561280632E+02 -0.95204508030E+02  0.13327997517E+03  0.00000000000E+00 0. -1.
<scales pt_clust_5="13000.00000" pt_clust_6="13000.00000" pt_clust_7="13000.00000" pt_clust_8="13000.00000" pt_clust_9="13000.00000"></scales>
<clustering>
<clus scale="   91.940">  5  6 -1 -1</clus>
<clus scale="   91.965">  7  8 -1 -1</clus>
<clus scale="   93.272">  5  9 -1 -1</clus>
<clus scale="  130.046">  1  7  2 -1</clus>
<clus scale="  249.219">  2  5  1 -1</clus>
</clustering>
</event>
<event>
 9    1  0.3312826E-006  0.2046639E+03  0.7546771E-02  0.1169273E+00
         -1   -1    0    0    0  501 -0.00000000000E+00  0.00000000000E+00  0.60129634706E+03  0.60129634706E+03  0.00000000000E+00 0.  1.
         21   -1    0    0  501  502  0.00000000000E+00 -0.00000000000E+00 -0.43410764810E+02  0.43410764810E+02  0.00000000000E+00 0.  1.
         23    2    1    2    0    0  0.71386621148E+02  0.19629251188E+02  0.21091886458E+03  0.24187562960E+03  0.92388828220E+02 0.  0.
         23    2    1    2    0    0 -0.92695948162E+02 -0.68072394783E+02  0.28786250184E+03  0.32349590444E+03  0.92511569497E+02 0.  0.
        -11    1    4    4    0    0 -0.11177599839E+03 -0.56022289691E+02  0.24352872045E+03  0.27374917067E+03  0.00000000000E+00 0.  1.
         11    1    4    4    0    0  0.19080050224E+02 -0.12050105092E+02  0.44333781384E+02  0.49746733773E+02  0.00000000000E+00 0. -1.
        -13    1    3    3    0    0 -0.95568999782E+01 -0.19625973443E+02  0.15584763823E+02  0.26821596414E+02  0.00000000000E+00 0.  1.
         13    1    3    3    0    0  0.80943521126E+02  0.39255224631E+02  0.19533410076E+03  0.21505403319E+03  0.00000000000E+00 0. -1.
         -1    1    1    2    0  502  0.21309327014E+02  0.48443143594E+02  0.59104215833E+02  0.79335577822E+02  0.00000000000E+00 0.  1.
<scales pt_clust_5="13000.00000" pt_clust_6="13000.00000" pt_clust_7="13000.00000" pt_clust_8="13000.00000" pt_clust_9="13000.00000"></scales>
<clustering>
<clus scale="   92.389">  7  8 -1 -1</clus>
<clus scale="   92.512">  5  6 -1 -1</clus>
<clus scale="   52.923">  5  9 -1 -1</clus>
<clus scale="  118.394">  1  7  2 -1</clus>
<clus scale="  204.664">  2  5  1 -1</clus>
</clustering>
</event>
<event>
 9    1  0.3312826E-006  0.4150717E+03  0.7546771E-02  0.1077367E+00
          1   -1    0    0  502    0 -0.00000000000E+00  0.00000000000E+00  0.35118208927E+03  0.35118208927E+03  0.00000000000E+00 0. -1.
         21   -1    0    0  501  502  0.00000000000E+00 -0.00000000000E+00 -0.27688720329E+03  0.27688720329E+03  0.00000000000E+00 0. -1.
         23    2    1    2    0    0  0.94330413278E+02 -0.26639051099E+02  0.15108917989E+03  0.20595329291E+03  0.99904717942E+02 0.  0.
         23    2    1    2    0    0  0.92605265658E+02  0.13721867713E+03  0.37067740131E+01  0.19048434445E+03  0.94158614718E+02 0.  0.
        -11    1    4    4    0    0  0.33101297005E+02  0.75401884514E+02 -0.42887929422E+02  0.92846726069E+02  0.00000000000E+00 0.  1.
         11    1    4    4    0    0  0.59503968653E+02  0.61816792620E+02  0.46594703435E+02  0.97637618383E+02  0.00000000000E+00 0. -1.
        -13    1    3    3    0    0  0.10132969350E+03 -0.51579209859E+02  0.12851829381E+03  0.17159566870E+03  0.00000000000E+00 0. -1.
         13    1    3    3    0    0 -0.69992802182E+01  0.24940158760E+02  0.22570886080E+02  0.34357624205E+02  0.00000000000E+00 0.  1.
          1    1    1    2  501    0 -0.18693567894E+03 -0.11057962603E+03 -0.80501067932E+02  0.23163165520E+03  0.00000000000E+00 0. -1.
<scales pt_clust_5="13000.00000" pt_clust_6="13000.00000" pt_clust_7="13000.00000" pt_clust_8="13000.00000" pt_clust_9="13000.00000"></scales>
<clustering>
<clus scale="   94.159">  5  6 -1 -1</clus>
<clus scale="   99.905">  7  8 -1 -1</clus>
<clus scale="  139.960">  1  7  2 -1</clus>
<clus scale="  190.149">  5  9 -1 -1</clus>
<clus scale="  415.072">  2  5  1 -1</clus>
</clustering>
</event>
<event>
 9    1  0.3312826E-006  0.3155249E+03  0.7546771E-02  0.1108307E+00
         21   -1    0    0  501  502  0.00000000000E+00  0.00000000000E+00  0.18161577053E+03  0.18161577053E+03  0.00000000000E+00 0.  1.
         -3   -1    0    0    0  501 -0.00000000000E+00 -0.00000000000E+00 -0.43880449725E+03  0.43880449725E+03  0.00000000000E+00 0.  1.
         23    2    1    2    0    0  0.92581420429E+02  0.52425660013E+02 -0.26993306537E+03  0.30463814057E+03  0.92848089223E+02 0.  0.
         23    2    1    2    0    0 -0.68769919268E+02  0.91645426833E+02 -0.44500063341E+02  0.15893702142E+03  0.10075978903E+03 0.  0.
        -13    1    4    4    0    0 -0.35127360892E+02  0.17382109227E+02 -0.64057145677E+02  0.75095852859E+02  0.00000000000E+00 0. -1.
         13    1    4    4    0    0 -0.33642558376E+02  0.74263317606E+02  0.19557082336E+02  0.83841168559E+02  0.00000000000E+00 0.  1.
        -13    1    3    3    0    0  0.31858178098E+02 -0.24402072647E+02 -0.51751754853E+02  0.65487775894E+02  0.00000000000E+00 0. -1.
         13    1    3    3    0    0  0.60723242331E+02  0.76827732660E+02 -0.21818131052E+03  0.23915036467E+03  0.00000000000E+00 0.  1.
         -3    1    1    2    0  502 -0.23811501161E+02 -0.14407108685E+03  0.57244401991E+02  0.15684510579E+03  0.00000000000E+00 0.  1.
<scales pt_clust_5="13000.00000" pt_clust_6="13000.00000" pt_clust_7="13000.00000" pt_clust_8="13000.00000" pt_clust_9="13000.00000"></scales>
<clustering>
<clus scale="   92.848">  7  8 -1 -1</clus>
<clus scale="  100.760">  5  6 -1 -1</clus>
<clus scale="  141.211">  2  7  1 -1</clus>
<clus scale="  127.013">  5  9 -1 -1</clus>
<clus scale="  315.525">  1  5  2 -1</clus>
</clustering>
</event>
<event>
 9    1  0.3312826E-006  0.1670784E+03  0.7546771E-02  0.1203428E+00
         -2   -1    0    0    0  501 -0.00000000000E+00  0.00000000000E+00  0.49956872835E+02  0.49956872835E+02  0.00000000000E+00 0.  1.
         21   -1    0    0  501  502  0.00000000000E+00 -0.00000000000E+00 -0.61829090701E+03  0.61829090701E+03  0.00000000000E+00 0. -1.
         23    2    1    2    0    0  0.39819765445E+02 -0.19499266539E+02 -0.32360012508E+02  0.10683585308E+03  0.91656390818E+02 0.  0.
         23    2    1    2    0    0  0.36349532291E+01 -0.33630936225E+02 -0.33812195221E+03  0.35199231830E+03  0.91803512033E+02 0.  0.
        -11    1    4    4    0    0 -0.40205929829E+02  0.16418848252E+01 -0.11322010730E+03  0.12015825097E+03  0.00000000000E+00 0.  1.
         11    1    4    4    0    0  0.43840883058E+02 -0.35272821050E+02 -0.22490184490E+03  0.23183406733E+03  0.00000000000E+00 0. -1.
        -13    1    3    3    0    0 -0.57888921241E+00  0.34416328607E+02 -0.98416614048E+01  0.35800517967E+02  0.00000000000E+00 0.  1.
         13    1    3    3    0    0  0.40398654658E+02 -0.53915595145E+02 -0.22518351103E+02  0.71035335112E+02  0.00000000000E+00 0. -1.
         -2    1    1    2    0  502 -0.43454718674E+02  0.53130202763E+02 -0.19785206946E+03  0.20941960847E+03  0.00000000000E+00 0.  1.
<scales pt_clust_5="13000.00000" pt_clust_6="13000.00000" pt_clust_7="13000.00000" pt_clust_8="13000.00000" pt_clust_9="13000.00000"></scales>
<clustering>
<clus scale="   91.656">  7  8 -1 -1</clus>
<clus scale="   91.804">  5  6 -1 -1</clus>
<clus scale="   68.638">  5  9 -1 -1</clus>
<clus scale="  101.817">  1  7  2 -1</clus>
<clus scale="  167.078">  2  5  1 -1</clus>
</clustering>
</event>
<event>
 9    1  0.3312826E-006  0.4802076E+03  0.7546771E-02  0.1051839E+00
          2   -1    0    0  502    0 -0.00000000000E+00  0.00000000000E+00  0.52316302081E+03  0.52316302081E+03  0.00000000000E+00 0. -1.
         21   -1    0    0  501  502  0.00000000000E+00 -0.00000000000E+00 -0.32621848204E+03  0.32621848204E+03  0.00000000000E+00 0. -1.
         23    2    1    2    0    0 -0.14061100308E+03  0.75215717796E+02  0.30612715869E+03  0.35691807193E+03  0.90817478456E+02 0.  0.
         23    2    1    2    0    0 -0.88626261828E+02  0.57253824339E+01  0.10828845271E+03  0.16628119235E+03  0.89641796330E+02 0.  0.
        -13    1    3    3    0    0 -0.83743177455E+01  0.47367619364E+02  0.89139006706E+02  0.10128960005E+03  0.00000000000E+00 0.  1.
         13    1    3    3    0    0 -0.13223668534E+03  0.27848098432E+02  0.21698815198E+03  0.25562847188E+03  0.00000000000E+00 0. -1.
        -13    1    4    4    0    0 -0.59515260133E+02 -0.19329781405E+02  0.13511928455E+02  0.64017801028E+02  0.00000000000E+00 0. -1.
         13    1    4    4    0    0 -0.29111001694E+02  0.25055163839E+02  0.94776524254E+02  0.10226339132E+03  0.00000000000E+00 0.  1.
          2    1    1    2  501    0  0.22923726491E+03 -0.80941100230E+02 -0.21747107262E+03  0.32618223857E+03  0.00000000000E+00 0. -1.
<scales pt_clust_5="13000.00000" pt_clust_6="13000.00000" pt_clust_7="13000.00000" pt_clust_8="13000.00000" pt_clust_9="13000.00000"></scales>
<clustering>
<clus scale="   89.642">  7  8 -1 -1</clus>
<clus scale="   90.817">  5  6 -1 -1</clus>
<clus scale="  183.512">  1  5  2 -1</clus>
<clus scale="  198.516">  7  9 -1 -1</clus>
<clus scale="  480.208">  2  5  1 -1</clus>
</clustering>
</event>
<event>
 9    1  0.3312826E-006  0.2584170E+03  0.7546771E-02  0.1118750E+00
          3   -1    0    0  502    0 -0.00000000000E+00  0.00000000000E+00  0.28819418764E+03  0.28819418764E+03  0.00000000000E+00 0. -1.
         21   -1    0    0  501  502  0.00000000000E+00 -0.00000000000E+00 -0.18209266292E+03  0.18209266292E+03  0.00000000000E+00 0. -1.
         23    2    1    2    0    0  0.17721525040E+03  0.61914366361E+01  0.22176692953E+02  0.19858345968E+03  0.86602574355E+02 0.  0.
         23    2    1    2    0    0 -0.65063220179E+02 -0.61076908155E+02  0.50933739612E+02  0.14255655574E+03  0.98815557602E+02 0.  0.
        -11    1    3    3    0    0  0.77586316931E+02  0.43241017565E+02  0.24924148750E+02  0.92253104911E+02  0.00000000000E+00 0.  1.
         11    1    3    3    0    0  0.99628933468E+02 -0.37049580928E+02 -0.27474557968E+01  0.10633035476E+03  0.00000000000E+00 0. -1.
        -13    1    4    4    0    0  0.21666416729E+02 -0.37363151786E+02  0.14834164031E+02  0.45667178014E+02  0.00000000000E+00 0.  1.
         13    1    4    4    0    0 -0.86729636908E+02 -0.23713756369E+02  0.36099575581E+02  0.96889377728E+02  0.00000000000E+00 0. -1.
          3    1    1    2  501    0 -0.11215203022E+03  0.54885471519E+02  0.32991092148E+02  0.12914683514E+03  0.00000000000E+00 0. -1.
<scales pt_clust_5="13000.00000" pt_clust_6="13000.00000" pt_clust_7="13000.00000" pt_clust_8="13000.00000" pt_clust_9="13000.00000"></scales>
<clustering>
<clus scale="   86.603">  5  6 -1 -1</clus>
<clus scale="   98.816">  7  8 -1 -1</clus>
<clus scale="  124.862">  7  9 -1 -1</clus>
<clus scale="  197.341">  1  5  2 -1</clus>
<clus scale="  258.417">  2  5  1 -1</clus>
</clustering>
</event>
<event>
 9    1  0.3312826E-006  0.2924994E+03  0.7546771E-02  0.1107820E+00
         -1   -1    0    0    0  501 -0.00000000000E+00  0.00000000000E+00  0.92153153880E+03  0.92153153880E+03  0.00000000000E+00 0.  1.
         21   -1    0    0  501  502  0.00000000000E+00 -0.00000000000E+00 -0.73283022541E+02  0.73283022541E+02  0.00000000000E+00 0.  1.
         23    2    1    2    0    0 -0.18336532339E+02 -0.15348497080E+03  0.54368699312E+03  0.57254257816E+03  0.91189871357E+02 0.  0.
         23    2    1    2    0    0  0.21438054272E+02 -0.33027636815E+02  0.62642614301E+02  0.11678658142E+03  0.90358140245E+02 0.  0.
        -13    1    4    4    0    0 -0.18617055121E+02 -0.51251903315E+02  0.36101186767E+02  0.65396085668E+02  0.00000000000E+00 0.  1.
         13    1    4    4    0    0  0.40055109393E+02  0.18224266500E+02  0.26541427533E+02  0.51390495750E+02  0.00000000000E+00 0. -1.
        -13    1    3    3    0    0 -0.41247181727E+02 -0.54534749689E+02  0.31467260393E+03  0.32201586388E+03  0.00000000000E+00 0.  1.
         13    1    3    3    0    0  0.22910649388E+02 -0.98950221111E+02  0.22901438918E+03  0.25052671428E+03  0.00000000000E+00 0. -1.
         -1    1    1    2    0  502 -0.31015219327E+01  0.18651260762E+03  0.24191890885E+03  0.30548540177E+03  0.00000000000E+00 0.  1.
<scales pt_clust_5="13000.00000" pt_clust_6="13000.00000" pt_clust_7="13000.00000" pt_clust_8="13000.00000" pt_clust_9="13000.00000"></scales>
<clustering>
<clus scale="   90.358">  5  6 -1 -1</clus>
<clus scale="   91.190">  7  8 -1 -1</clus>
<clus scale="  179.470">  1  7  2 -1</clus>
<clus scale="   72.906">  5  9 -1 -1</clus>
<clus scale="  292.499">  2  5  1 -1</clus>
</clustering>
</event>
<event>
 9    1  0.3312826E-006  0.1482170E+03  0.7546771E-02  0.1210296E+00
         21   -1    0    0  501  502  0.00000000000E+00  0.00000000000E+00  0.54526629284E+02  0.54526629284E+02  0.00000000000E+00 0. -1.
          2   -1    0    0  502    0 -0.00000000000E+00 -0.00000000000E+00 -0.36650757619E+03  0.36650757619E+03  0.00000000000E+00 0. -1.
         23    2    1    2    0    0 -0.43371757216E+02  0.63844553987E+02 -0.19558146883E+03  0.23257438530E+03  0.99405720898E+02 0.  0.
         23    2    1    2    0    0  0.43962533307E+02 -0.18130057767E+02 -0.82598099500E+02  0.13160300551E+03  0.90749664948E+02 0.  0.
        -11    1    3    3    0    0  0.29911181892E+02  0.29006158156E+02 -0.43720648749E+02  0.60394793982E+02  0.00000000000E+00 0.  1.
         11    1    3    3    0    0 -0.73282939108E+02  0.34838395831E+02 -0.15186082008E+03  0.17217959131E+03  0.00000000000E+00 0. -1.
        -13    1    4    4    0    0 -0.26382509716E+02 -0.11035826055E+02 -0.39621569437E+02  0.48864046499E+02  0.00000000000E+00 0.  1.
         13    1    4    4    0    0  0.70345043023E+02 -0.70942317115E+01 -0.42976530063E+02  0.82738959008E+02  0.00000000000E+00 0. -1.
          2    1    1    2  501    0 -0.59077609115E+00 -0.45714496220E+02 -0.33801378576E+02  0.56856814672E+02  0.00000000000E+00 0. -1.
<scales pt_clust_5="13000.00000" pt_clust_6="13000.00000" pt_clust_7="13000.00000" pt_clust_8="13000.00000" pt_clust_9="13000.00000"></scales>
<clustering>
<clus scale="   90.750">  7  8 -1 -1</clus>
<clus scale="   45.718">  7  9 -1 -1</clus>
<clus scale="   99.406">  5  6 -1 -1</clus>
<clus scale="  125.852">  2  5  1 -1</clus>
<clus scale="  148.217">  1  5  2 -1</clus>
</clustering>
</event>
<event>
 9    1  0.3312826E-006  0.2994449E+03  0.7546771E-02  0.1111510E+00
          1   -1    0    0  502    0 -0.00000000000E+00  0.00000000000E+00  0.20714281549E+03  0.20714281549E+03  0.00000000000E+00 0. -1.
         21   -1    0    0  501  502  0.00000000000E+00 -0.00000000000E+00 -0.26946235645E+03  0.26946235645E+03  0.00000000000E+00 0. -1.
         23    2    1    2    0    0  0.10794548307E+02 -0.12009039975E+03  0.44583208923E+02  0.15865008654E+03  0.92972904961E+02 0.  0.
         23    2    1    2    0    0 -0.60260401177E+02  0.18694466370E+03 -0.77015432845E+02  0.22958305968E+03  0.90539390106E+02 0.  0.
        -11    1    3    3    0    0 -0.55645264580E+01 -0.76405318434E+02  0.71502888129E+02  0.10479217361E+03  0.00000000000E+00 0. -1.
         11    1    3    3    0    0  0.16359074765E+02 -0.43685081311E+02 -0.26919679205E+02  0.53857912927E+02  0.00000000000E+00 0.  1.
        -13    1    4    4    0    0  0.21131541078E+02  0.19567971255E+02 -0.18459508754E+01  0.28859228368E+02  0.00000000000E+00 0.  1.
         13    1    4    4    0    0 -0.81391942254E+02  0.16737669245E+03 -0.75169481970E+02  0.20072383131E+03  0.00000000000E+00 0. -1.
          1    1    1    2  501    0  0.49465852870E+02 -0.66854263955E+02 -0.29887317037E+02  0.88372025714E+02  0.00000000000E+00 0. -1.
<scales pt_clust_5="13000.00000" pt_clust_6="13000.00000" pt_clust_7="13000.00000" pt_clust_8="13000.00000" pt_clust_9="13000.00000"></scales>
<clustering>
<clus scale="   90.539">  7  8 -1 -1</clus>
<clus scale="   83.165">  7  9 -1 -1</clus>
<clus scale="   92.973">  5  6 -1 -1</clus>
<clus scale="  152.257">  1  5  2 -1</clus>
<clus scale="  299.445">  2  5  1 -1</clus>
</clustering>
</event>
<event>
 9    1  0.3312826E-006  0.2780875E+03  0.7546771E-02  0.1124977E+00
         21   -1    0    0  501  502  0.00000000000E+00  0.00000000000E+00  0.25810773903E+03  0.25810773903E+03  0.00000000000E+00 0. -1.
          3   -1    0    0  502    0 -0.00000000000E+00 -0.00000000000E+00 -0.31820239049E+03  0.31820239049E+03  0.00000000000E+00 0. -1.
         23    2    1    2    0    0 -0.99342562643E+02 -0.24759063640E+02 -0.21784300120E+03  0.25659589900E+03  0.88904028204E+02 0.  0.
         23    2    1    2    0    0  0.64765616196E+02  0.41497583270E+02 -0.33290882665E+02  0.12485086406E+03  0.92535511724E+02 0.  0.
        -11    1    4    4    0    0 -0.67548627578E+01  0.47725897725E+02 -0.17975654266E+02  0.51444276949E+02  0.00000000000E+00 0. -1.
         11    1    4    4    0    0  0.71520478954E+02 -0.62283144554E+01 -0.15315228399E+02  0.73406587113E+02  0.00000000000E+00 0.  1.
        -13    1    3    3    0    0 -0.10507880602E+03 -0.50267312876E+01 -0.20947754737E+03  0.23440918573E+03  0.00000000000E+00 0. -1.
         13    1    3    3    0    0  0.57362433798E+01 -0.19732332352E+02 -0.83654538252E+01  0.22186713273E+02  0.00000000000E+00 0.  1.
          3    1    1    2  501    0  0.34576946447E+02 -0.16738519630E+02  0.19103923241E+03  0.19486336645E+03  0.00000000000E+00 0. -1.
<scales pt_clust_5="13000.00000" pt_clust_6="13000.00000" pt_clust_7="13000.00000" pt_clust_8="13000.00000" pt_clust_9="13000.00000"></scales>
<clustering>
<clus scale="   88.904">  7  8 -1 -1</clus>
<clus scale="   92.536">  5  6 -1 -1</clus>
<clus scale="   38.415">  5  9 -1 -1</clus>
<clus scale="  135.595">  2  7  1 -1</clus>
<clus scale="  278.087">  1  5  2 -1</clus>
</clustering>
</event>
<event>
 9    1  0.3312826E-006  0.2744063E+03  0.7546771E-02  0.1134196E+00
          1   -1    0    0  502    0 -0.00000000000E+00  0.00000000000E+00  0.58332080852E+03  0.58332080852E+03  0.00000000000E+00 0. -1.
         21   -1    0    0  501  502  0.00000000000E+00 -0.00000000000E+00 -0.96863095410E+02  0.96863095410E+02  0.00000000000E+00 0. -1.
         23    2    1    2    0    0 -0.56843934377E+02 -0.32501418070E+02  0.36161392389E+03  0.37871282872E+03  0.91494271051E+02 0.  0.
         23    2    1    2    0    0 -0.41756599761E+02  0.28663332649E+02  0.16222861761E+03  0.19595130632E+03  0.97537632813E+02 0.  0.
        -11    1    4    4    0    0 -0.50075237535E+02 -0.23879303676E+02  0.97386590830E+02  0.11207987612E+03  0.00000000000E+00 0. -1.
         11    1    4    4    0    0  0.83186377740E+01  0.52542636325E+02  0.64842026782E+02  0.83871430198E+02  0.00000000000E+00 0.  1.
        -11    1    3    3    0    0 -0.40712069742E+02 -0.63178431243E+02  0.28274376682E+03  0.29256285560E+03  0.00000000000E+00 0. -1.
         11    1    3    3    0    0 -0.16131864636E+02  0.30677013173E+02  0.78870157065E+02  0.86149973124E+02  0.00000000000E+00 0.  1.
          1    1    1    2  501    0  0.98600534139E+02  0.38380854214E+01 -0.37384828391E+02  0.10551976889E+03  0.00000000000E+00 0. -1.
<scales pt_clust_5="13000.00000" pt_clust_6="13000.00000" pt_clust_7="13000.00000" pt_clust_8="13000.00000" pt_clust_9="13000.00000"></scales>
<clustering>
<clus scale="   91.494">  7  8 -1 -1</clus>
<clus scale="   97.538">  5  6 -1 -1</clus>
<clus scale="   98.675">  5  9 -1 -1</clus>
<clus scale="  112.511">  1  7  2 -1</clus>
<clus scale="  274.406">  2  5  1 -1</clus>
</clustering>
</event>
<event>
 9    1  0.3312826E-006  0.4002668E+03  0.7546771E-02  0.1076509E+00
         21   -1    0    0  501  502  0.00000000000E+00  0.00000000000E+00  0.10375199575E+03  0.10375199575E+03  0.00000000000E+00 0. -1.
          1   -1    0    0  502    0 -0.00000000000E+00 -0.00000000000E+00 -0.78553111901E+03  0.78553111901E+03  0.00000000000E+00 0. -1.
         23    2    1    2    0    0  0.77280642300E+02  0.10666334847E+03 -0.12141345576E+03  0.20064448051E+03  0.90374845712E+02 0.  0.
         23    2    1    2    0    0 -0.73037034225E+02  0.78595740148E+02 -0.45283980503E+03  0.47439403287E+03  0.92054932856E+02 0.  0.
        -13    1    4    4    0    0 -0.93991895074E+02  0.70771729421E+02 -0.40170692543E+03  0.41858280897E+03  0.00000000000E+00 0. -1.
         13    1    4    4    0    0  0.20954860849E+02  0.78240107273E+01 -0.51132879604E+02  0.55811223904E+02  0.00000000000E+00 0.  1.
        -13    1    3    3    0    0  0.23950108588E+02  0.10005431849E+02  0.11050235032E+02  0.28210353811E+02  0.00000000000E+00 0.  1.
         13    1    3    3    0    0  0.53330533712E+02  0.96657916620E+02 -0.13246369080E+03  0.17243412670E+03  0.00000000000E+00 0. -1.
          1    1    1    2  501    0 -0.42436080745E+01 -0.18525908862E+03 -0.10752586246E+03  0.21424460139E+03  0.00000000000E+00 0. -1.
<scales pt_clust_5="13000.00000" pt_clust_6="13000.00000" pt_clust_7="13000.00000" pt_clust_8="13000.00000" pt_clust_9="13000.00000"></scales>
<clustering>
<clus scale="   90.375">  7  8 -1 -1</clus>
<clus scale="   92.055">  5  6 -1 -1</clus>
<clus scale="  159.740">  2  7  1 -1</clus>
<clus scale="  158.556">  5  9 -1 -1</clus>
<clus scale="  400.267">  1  5  2 -1</clus>
</clustering>
</event>
<event>
 9    1  0.3312826E-006  0.1858119E+03  0.7546771E-02  0.1192762E+00
          1   -1    0    0  502    0 -0.00000000000E+00  0.00000000000E+00  0.48868830340E+02  0.48868830340E+02  0.00000000000E+00 0. -1.
         21   -1    0    0  501  502  0.00000000000E+00 -0.00000000000E+00 -0.39964052558E+03  0.39964052558E+03  0.00000000000E+00 0. -1.
         23    2    1    2    0    0 -0.17571277978E+02 -0.16912029055E+02 -0.12720982891E+03  0.15781028018E+03  0.90149749991E+02 0.  0.
         23    2    1    2    0    0 -0.15825502497E+02  0.33227483410E+02 -0.42311403111E+02  0.10567672732E+03  0.89570104838E+02 0.  0.
        -11    1    4    4    0    0 -0.41179700189E+02  0.30823704259E+02 -0.56594156395E+02  0.76477231840E+02  0.00000000000E+00 0. -1.
         11    1    4    4    0    0  0.25354197692E+02  0.24037791511E+01  0.14282753284E+02  0.29199495479E+02  0.00000000000E+00 0.  1.
        -11    1    3    3    0    0 -0.10249918268E+02  0.36858289679E+02 -0.42235472105E+02  0.56986221549E+02  0.00000000000E+00 0. -1.
         11    1    3    3    0    0 -0.73213597096E+01 -0.53770318735E+02 -0.84974356801E+02  0.10082405863E+03  0.00000000000E+00 0.  1.
          1    1    1    2  501    0  0.33396780475E+02 -0.16315454355E+02 -0.18125046322E+03  0.18502234842E+03  0.00000000000E+00 0. -1.
<scales pt_clust_5="13000.00000" pt_clust_6="13000.00000" pt_clust_7="13000.00000" pt_clust_8="13000.00000" pt_clust_9="13000.00000"></scales>
<clustering>
<clus scale="   89.570">  5  6 -1 -1</clus>
<clus scale="   37.169">  5  9 -1 -1</clus>
<clus scale="   90.150">  7  8 -1 -1</clus>
<clus scale="   93.390">  1  7  2 -1</clus>
<clus scale="  185.812">  2  5  1 -1</clus>
</clustering>
</event>
<event>
 9    1  0.3312826E-006  0.1825236E+03  0.7546771E-02  0.1193857E+00
         21   -1    0    0  501  502  0.00000000000E+00  0.00000000000E+00  0.50178527067E+02  0.50178527067E+02  0.00000000000E+00 0. -1.
          1   -1    0    0  502    0 -0.00000000000E+00 -0.00000000000E+00 -0.45244347557E+03  0.45244347557E+03  0.00000000000E+00 0. -1.
         23    2    1    2    0    0  0.29922557334E+02 -0.16330334125E+01 -0.23939860717E+03  0.25799920645E+03  0.91399514091E+02 0.  0.
         23    2    1    2    0    0 -0.20535894036E+02 -0.43435539730E+02 -0.16924992107E+03  0.19814661064E+03  0.91149187982E+02 0.  0.
        -11    1    4    4    0    0 -0.47217946351E+02 -0.49484533936E+02 -0.14950079455E+03  0.16440420046E+03  0.00000000000E+00 0.  1.
         11    1    4    4    0    0  0.26682052314E+02  0.60489942058E+01 -0.19749126518E+02  0.33742410181E+02  0.00000000000E+00 0. -1.
        -13    1    3    3    0    0 -0.66638905060E+01 -0.31814600838E+02 -0.33380844247E+02  0.46592456748E+02  0.00000000000E+00 0.  1.
         13    1    3    3    0    0  0.36586447840E+02  0.30181567426E+02 -0.20601776293E+03  0.21140674970E+03  0.00000000000E+00 0. -1.
          1    1    1    2  501    0 -0.93866632971E+01  0.45068573143E+02  0.63835797404E+01  0.46476185550E+02  0.00000000000E+00 0. -1.
<scales pt_clust_5="13000.00000" pt_clust_6="13000.00000" pt_clust_7="13000.00000" pt_clust_8="13000.00000" pt_clust_9="13000.00000"></scales>
<clustering>
<clus scale="   91.149">  5  6 -1 -1</clus>
<clus scale="   46.036">  5  9 -1 -1</clus>
<clus scale="   91.400">  7  8 -1 -1</clus>
<clus scale="   96.187">  2  7  1 -1</clus>
<clus scale="  182.524">  1  5  2 -1</clus>
</clustering>
</event>
<event>
 9    1  0.3312826E-006  0.1674329E+03  0.7546771E-02  0.1207752E+00
          2   -1    0    0  502    0 -0.00000000000E+00  0.00000000000E+00  0.84140386852E+03  0.84140386852E+03  0.00000000000E+00 0. -1.
         21   -1    0    0  501  502  0.00000000000E+00 -0.00000000000E+00 -0.20520359103E+02  0.20520359103E+02  0.00000000000E+00 0. -1.
         23    2    1    2    0    0  0.17895334281E+02 -0.10906612093E+02  0.35839543404E+03  0.37006145652E+03  0.89771918156E+02 0.  0.
         23    2    1    2    0    0  0.15209041469E+02 -0.37885548032E+02  0.35964065007E+03  0.37331249705E+03  0.91401277790E+02 0.  0.
        -11    1    3    3    0    0 -0.11223267210E+02  0.32542643502E+02  0.84968143077E+02  0.91676445781E+02  0.00000000000E+00 0.  1.
         11    1    3    3    0    0  0.29118601492E+02 -0.43449255595E+02  0.27342729096E+03  0.27838501074E+03  0.00000000000E+00 0. -1.
        -13    1    4    4    0    0 -0.37519350406E+02 -0.47364523822E+01  0.13751948300E+03  0.14262448542E+03  0.00000000000E+00 0.  1.
         13    1    4    4    0    0  0.52728391875E+02 -0.33149095650E+02  0.22212116707E+03  0.23068801164E+03  0.00000000000E+00 0. -1.
          2    1    1    2  501    0 -0.33104375750E+02  0.48792160125E+02  0.10284742531E+03  0.11855027405E+03  0.00000000000E+00 0. -1.
<scales pt_clust_5="13000.00000" pt_clust_6="13000.00000" pt_clust_7="13000.00000" pt_clust_8="13000.00000" pt_clust_9="13000.00000"></scales>
<clustering>
<clus scale="   89.772">  5  6 -1 -1</clus>
<clus scale="   91.401">  7  8 -1 -1</clus>
<clus scale="   58.963">  7  9 -1 -1</clus>
<clus scale="   92.186">  1  5  2 -1</clus>
<clus scale="  167.433">  2  5  1 -1</clus>
</clustering>
</event>
<event>
 9    1  0.3312826E-006  0.2973157E+03  0.7546771E-02  0.1096401E+00
          1   -1    0    0  502    0 -0.00000000000E+00  0.00000000000E+00  0.67956345236E+03  0.67956345236E+03  0.00000000000E+00 0. -1.
         21   -1    0    0  501  502  0.00000000000E+00 -0.00000000000E+00 -0.11237397293E+03  0.11237397293E+03  0.00000000000E+00 0.  1.
         23    2    1    2    0    0 -0.15047947094E+03  0.14747761151E+03  0.13175621293E+03  0.26468157836E+03  0.91120366599E+02 0.  0.
         23    2    1    2    0    0  0.45365406404E-01 -0.35984169389E+02  0.68840106055E+02  0.11561066837E+03  0.85627121489E+02 0.  0.
        -11    1    3    3    0    0 -0.15431111801E+03  0.12091372901E+03  0.13443800080E+03  0.23770912280E+03  0.00000000000E+00 0.  1.
         11    1    3    3    0    0  0.38316470720E+01  0.26563882500E+02 -0.26817878721E+01  0.26972455560E+02  0.00000000000E+00 0. -1.
        -13    1    4    4    0    0 -0.41238372444E+02 -0.29010961045E+02  0.44056372253E+02  0.66956726015E+02  0.00000000000E+00 0.  1.
         13    1    4    4    0    0  0.41283737850E+02 -0.69732083441E+01  0.24783733803E+02  0.48653942355E+02  0.00000000000E+00 0. -1.
          1    1    1    2  501    0  0.15043410553E+03 -0.11149344212E+03  0.36659316044E+03  0.41164517855E+03  0.00000000000E+00 0. -1.
<scales pt_clust_5="13000.00000" pt_clust_6="13000.00000" pt_clust_7="13000.00000" pt_clust_8="13000.00000" pt_clust_9="13000.00000"></scales>
<clustering>
<clus scale="   85.627">  7  8 -1 -1</clus>
<clus scale="   91.120">  5  6 -1 -1</clus>
<clus scale="  187.246">  7  9 -1 -1</clus>
<clus scale="  229.558">  1  5  2 -1</clus>
<clus scale="  297.316">  2  5  1 -1</clus>
</clustering>
</event>
<event>
 9    1  0.3312826E-006  0.2471861E+03  0.7546771E-02  0.1144495E+00
         21   -1    0    0  501  502  0.00000000000E+00  0.00000000000E+00  0.21836512840E+03  0.21836512840E+03  0.00000000000E+00 0. -1.
         -2   -1    0    0    0  501 -0.00000000000E+00 -0.00000000000E+00 -0.23320739049E+03  0.23320739049E+03  0.00000000000E+00 0.  1.
         23    2    1    2    0    0 -0.35989098423E+02 -0.67976954573E+02 -0.13167070273E+03  0.17816834205E+03  0.92145008514E+02 0.  0.
         23    2    1    2    0    0 -0.46133554614E+02 -0.37148361611E+02  0.57590501755E+02  0.12744323807E+03  0.97040236011E+02 0.  0.
        -11    1    4    4    0    0 -0.17689218438E+02  0.31239217762E+02  0.42123764231E+01  0.36146110309E+02  0.00000000000E+00 0.  1.
         11    1    4    4    0    0 -0.28444336176E+02 -0.68387579373E+02  0.53378125332E+02  0.91297127759E+02  0.00000000000E+00 0. -1.
        -13    1    3    3    0    0  0.27484620894E+02 -0.20736977719E+01 -0.21502150332E+02  0.34957789933E+02  0.00000000000E+00 0.  1.
         13    1    3    3    0    0 -0.63473719317E+02 -0.65903256802E+02 -0.11016855240E+03  0.14321055212E+03  0.00000000000E+00 0. -1.
         -2    1    1    2    0  502  0.82122653037E+02  0.10512531618E+03  0.59237938888E+02  0.14596093878E+03  0.00000000000E+00 0.  1.
<scales pt_clust_5="13000.00000" pt_clust_6="13000.00000" pt_clust_7="13000.00000" pt_clust_8="13000.00000" pt_clust_9="13000.00000"></scales>
<clustering>
<clus scale="   92.145">  7  8 -1 -1</clus>
<clus scale="   97.040">  5  6 -1 -1</clus>
<clus scale="  120.028">  2  7  1 -1</clus>
<clus scale="   91.763">  5  9 -1 -1</clus>
<clus scale="  247.186">  1  5  2 -1</clus>
</clustering>
</event>
<event>
 9    1  0.3312826E-006  0.1399518E+03  0.7546771E-02  0.1228757E+00
         21   -1    0    0  501  502  0.00000000000E+00  0.00000000000E+00  0.17618469231E+02  0.17618469231E+02  0.00000000000E+00 0. -1.
          2   -1    0    0  502    0 -0.00000000000E+00 -0.00000000000E+00 -0.83446333737E+03  0.83446333737E+03  0.00000000000E+00 0. -1.
         23    2    1    2    0    0  0.13438330694E+02  0.46005415116E+02 -0.30327316283E+03  0.31978262766E+03  0.89382496673E+02 0.  0.
         23    2    1    2    0    0  0.32502695848E+01 -0.15701983201E+02 -0.45288539072E+03  0.46244478650E+03  0.92156860297E+02 0.  0.
        -11    1    3    3    0    0 -0.30913194495E+02  0.16635720822E+01 -0.49571912909E+02  0.58444568742E+02  0.00000000000E+00 0.  1.
         11    1    3    3    0    0  0.44351525189E+02  0.44341843034E+02 -0.25370124992E+03  0.26133805892E+03  0.00000000000E+00 0. -1.
        -11    1    4    4    0    0 -0.40308326362E+02 -0.26994920056E+02 -0.24079987717E+03  0.24563808281E+03  0.00000000000E+00 0.  1.
         11    1    4    4    0    0  0.43558595947E+02  0.11292936855E+02 -0.21208551356E+03  0.21680670369E+03  0.00000000000E+00 0. -1.
          2    1    1    2  501    0 -0.16688600278E+02 -0.30303431915E+02 -0.60686314588E+02  0.69854392441E+02  0.00000000000E+00 0. -1.
<scales pt_clust_5="13000.00000" pt_clust_6="13000.00000" pt_clust_7="13000.00000" pt_clust_8="13000.00000" pt_clust_9="13000.00000"></scales>
<clustering>
<clus scale="   89.382">  5  6 -1 -1</clus>
<clus scale="   92.157">  7  8 -1 -1</clus>
<clus scale="   34.595">  7  9 -1 -1</clus>
<clus scale="  101.422">  2  5  1 -1</clus>
<clus scale="  139.952">  1  5  2 -1</clus>
</clustering>
</event>
<event>
 9    1  0.3312826E-006  0.3387349E+03  0.7546771E-02  0.1088176E+00
          2   -1    0    0  502    0 -0.00000000000E+00  0.00000000000E+00  0.37740409103E+03  0.37740409103E+03  0.00000000000E+00 0. -1.
         21   -1    0    0  501  502  0.00000000000E+00 -0.00000000000E+00 -0.20201847237E+03  0.20201847237E+03  0.00000000000E+00 0.  1.
         23    2    1    2    0    0  0.14612013186E+03  0.83055603843E+02  0.14126282855E+03  0.23897332930E+03  0.94359626554E+02 0.  0.
         23    2    1    2    0    0 -0.55921160750E+02  0.63768230230E+02 -0.53370739420E+02  0.14719238337E+03  0.10781279372E+03 0.  0.
        -13    1    3    3    0    0  0.26677285267E+02  0.43915122671E+02  0.20651711118E+01  0.51424512444E+02  0.00000000000E+00 0.  1.
         13    1    3    3    0    0  0.11944284659E+03  0.39140481172E+02  0.13919765744E+03  0.18754881686E+03  0.00000000000E+00 0. -1.
        -13    1    4    4    0    0  0.25864462755E+01  0.67044698623E+02  0.12187418181E+01  0.67105637985E+02  0.00000000000E+00 0.  1.
         13    1    4    4    0    0 -0.58507607025E+02 -0.32764683928E+01 -0.54589481238E+02  0.80086745388E+02  0.00000000000E+00 0. -1.
          2    1    1    2  501    0 -0.90198971109E+02 -0.14682383407E+03  0.87493529533E+02  0.19325685072E+03  0.00000000000E+00 0. -1.
<scales pt_clust_5="13000.00000" pt_clust_6="13000.00000" pt_clust_7="13000.00000" pt_clust_8="13000.00000" pt_clust_9="13000.00000"></scales>
<clustering>
<clus scale="   94.360">  5  6 -1 -1</clus>
<clus scale="  107.813">  7  8 -1 -1</clus>
<clus scale="  172.317">  7  9 -1 -1</clus>
<clus scale="  192.751">  1  5  2 -1</clus>
<clus scale="  338.735">  2  5  1 -1</clus>
</clustering>
</event>
<event>
 9    1  0.3312826E-006  0.4127071E+03  0.7546771E-02  0.1089054E+00
          2   -1    0    0  502    0 -0.00000000000E+00  0.00000000000E+00  0.31957074704E+03  0.31957074704E+03  0.00000000000E+00 0. -1.
         21   -1    0    0  501  502  0.00000000000E+00 -0.00000000000E+00 -0.33433050237E+03  0.33433050237E+03  0.00000000000E+00 0. -1.
         23    2    1    2    0    0  0.41652723242E+02 -0.19758809480E+02  0.17187675851E+03  0.20095499588E+03  0.93359147087E+02 0.  0.
         23    2    1    2    0    0 -0.15113879051E+03  0.12824388630E+03 -0.86993751671E+01  0.21753632141E+03  0.89201701964E+02 0.  0.
        -11    1    4    4    0    0  0.85338103192E+01  0.26953401761E+02 -0.11109337229E+01  0.28293920880E+02  0.00000000000E+00 0.  1.
         11    1    4    4    0    0 -0.15967260083E+03  0.10129048454E+03 -0.75884414441E+01  0.18924240053E+03  0.00000000000E+00 0. -1.
        -13    1    3    3    0    0 -0.16595615013E+02 -0.38566180167E+02  0.57065888598E+02  0.70846879478E+02  0.00000000000E+00 0.  1.
         13    1    3    3    0    0  0.58248338256E+02  0.18807370687E+02  0.11481086992E+03  0.13010811640E+03  0.00000000000E+00 0. -1.
          2    1    1    2  501    0  0.10948606727E+03 -0.10848507682E+03 -0.17793713868E+03  0.23540993212E+03  0.00000000000E+00 0. -1.
<scales pt_clust_5="13000.00000" pt_clust_6="13000.00000" pt_clust_7="13000.00000" pt_clust_8="13000.00000" pt_clust_9="13000.00000"></scales>
<clustering>
<clus scale="   89.202">  5  6 -1 -1</clus>
<clus scale="   93.359">  7  8 -1 -1</clus>
<clus scale="  104.122">  1  7  2 -1</clus>
<clus scale="  163.551">  5  9 -1 -1</clus>
<clus scale="  412.707">  2  5  1 -1</clus>
</clustering>
</event>
<event>
 9    1  0.3312826E-006  0.2142743E+03  0.7546771E-02  0.1162845E+00
         -1   -1    0    0    0  501 -0.00000000000E+00  0.00000000000E+00  0.91807254567E+02  0.91807254567E+02  0.00000000000E+00 0.  1.
         21   -1    0    0  501  502  0.00000000000E+00 -0.00000000000E+00 -0.37259643431E+03  0.37259643431E+03  0.00000000000E+00 0.  1.
         23    2    1    2    0    0  0.72306839235E+02  0.23291414570E+02 -0.11373442472E+02  0.12016784339E+03  0.92413128925E+02 0.  0.
         23    2    1    2    0    0 -0.10245989228E+02 -0.14367687810E+02 -0.31583223966E+02  0.98277543358E+02  0.91375952767E+02 0.  0.
        -11    1    3    3    0    0  0.55394456801E+02  0.40297263518E+01  0.36082004345E+02  0.66232134016E+02  0.00000000000E+00 0.  1.
         11    1    3    3    0    0  0.16912382434E+02  0.19261688218E+02 -0.47455446818E+02  0.53935709370E+02  0.00000000000E+00 0. -1.
        -13    1    4    4    0    0  0.28225098165E+02 -0.34495680962E+02 -0.31979908712E+02  0.54857294252E+02  0.00000000000E+00 0. -1.
         13    1    4    4    0    0 -0.38471087394E+02  0.20127993152E+02  0.39668474582E+00  0.43420249105E+02  0.00000000000E+00 0.  1.
         -1    1    1    2    0  502 -0.62060850007E+02 -0.89237267605E+01 -0.23783251330E+03  0.24595830213E+03  0.00000000000E+00 0.  1.
<scales pt_clust_5="13000.00000" pt_clust_6="13000.00000" pt_clust_7="13000.00000" pt_clust_8="13000.00000" pt_clust_9="13000.00000"></scales>
<clustering>
<clus scale="   91.376">  7  8 -1 -1</clus>
<clus scale="   62.699">  7  9 -1 -1</clus>
<clus scale="   92.413">  5  6 -1 -1</clus>
<clus scale="  119.628">  1  5  2 -1</clus>
<clus scale="  214.274">  2  5  1 -1</clus>
</clustering>
</event>
<event>
 9    1  0.3312826E-006  0.2127136E+03  0.7546771E-02  0.1177334E+00
         21   -1    0    0  501  502  0.00000000000E+00  0.00000000000E+00  0.38634596471E+02  0.38634596471E+02  0.00000000000E+00 0.  1.
          1   -1    0    0  502    0 -0.00000000000E+00 -0.00000000000E+00 -0.58498780447E+03  0.58498780447E+03  0.00000000000E+00 0. -1.
         23    2    1    2    0    0  0.70096744087E+01 -0.93183418043E+01 -0.16917643064E+03  0.19059883067E+03  0.87013117059E+02 0.  0.
         23    2    1    2    0    0  0.18713631625E+02  0.87473835157E+02 -0.19595477157E+03  0.23399747902E+03  0.91403915902E+02 0.  0.
        -11    1    3    3    0    0  0.41654846798E+02 -0.21659316319E+02 -0.12240184442E+03  0.13109715391E+03  0.00000000000E+00 0.  1.
         11    1    3    3    0    0 -0.34645172389E+02  0.12340974515E+02 -0.46774586221E+02  0.59501676766E+02  0.00000000000E+00 0. -1.
        -13    1    4    4    0    0  0.18589647445E+02  0.53137690965E+02 -0.28575847933E+02  0.63132941309E+02  0.00000000000E+00 0.  1.
         13    1    4    4    0    0  0.12398417999E+00  0.34336144191E+02 -0.16737892364E+03  0.17086453771E+03  0.00000000000E+00 0. -1.
          1    1    1    2  501    0 -0.25723306034E+02 -0.78155493352E+02 -0.18122200579E+03  0.19902609125E+03  0.00000000000E+00 0. -1.
<scales pt_clust_5="13000.00000" pt_clust_6="13000.00000" pt_clust_7="13000.00000" pt_clust_8="13000.00000" pt_clust_9="13000.00000"></scales>
<clustering>
<clus scale="   87.013">  5  6 -1 -1</clus>
<clus scale="   87.791">  2  5  1 -1</clus>
<clus scale="   91.404">  7  8 -1 -1</clus>
<clus scale="   85.524">  7  9 -1 -1</clus>
<clus scale="  212.714">  1  5  2 -1</clus>
</clustering>
</event>
<event>
 9    1  0.3312826E-006  0.2640867E+03  0.7546771E-02  0.1141881E+00
         21   -1    0    0  501  502  0.00000000000E+00  0.00000000000E+00  0.37887489230E+03  0.37887489230E+03  0.00000000000E+00 0.  1.
          3   -1    0    0  502    0 -0.00000000000E+00 -0.00000000000E+00 -0.30347500780E+03  0.30347500780E+03  0.00000000000E+00 0. -1.
         23    2    1    2    0    0 -0.40724474125E+02  0.34112112425E+02 -0.24539601604E+03  0.26683603405E+03  0.90333522992E+02 0.  0.
         23    2    1    2    0    0  0.75149740976E+02  0.81547667807E+02  0.18245975726E+03  0.23194052295E+03  0.90594356729E+02 0.  0.
        -11    1    3    3    0    0 -0.17667903647E+01  0.42201205565E+02 -0.41930661540E+02  0.59516751226E+02  0.00000000000E+00 0.  1.
         11    1    3    3    0    0 -0.38957683761E+02 -0.80890931404E+01 -0.20346535450E+03  0.20731928283E+03  0.00000000000E+00 0. -1.
        -13    1    4    4    0    0 -0.11596700298E+01  0.43623552203E+02  0.18985962610E+02  0.47590187199E+02  0.00000000000E+00 0. -1.
         13    1    4    4    0    0  0.76309411006E+02  0.37924115604E+02  0.16347379465E+03  0.18435033575E+03  0.00000000000E+00 0.  1.
          3    1    1    2  501    0 -0.34425266850E+02 -0.11565978023E+03  0.13833614327E+03  0.18357334310E+03  0.00000000000E+00 0. -1.
<scales pt_clust_5="13000.00000" pt_clust_6="13000.00000" pt_clust_7="13000.00000" pt_clust_8="13000.00000" pt_clust_9="13000.00000"></scales>
<clustering>
<clus scale="   90.334">  5  6 -1 -1</clus>
<clus scale="   90.594">  7  8 -1 -1</clus>
<clus scale="  104.796">  2  5  1 -1</clus>
<clus scale="  113.033">  7  9 -1 -1</clus>
<clus scale="  264.087">  1  5  2 -1</clus>
</clustering>
</event>
<event>
 9    1  0.3312826E-006  0.1358969E+03  0.7546771E-02  0.1228524E+00
         -3   -1    0    0    0  501 -0.00000000000E+00  0.00000000000E+00  0.74192373963E+03  0.74192373963E+03  0.00000000000E+00 0.  1.
         21   -1    0    0  501  502  0.00000000000E+00 -0.00000000000E+00 -0.21472343309E+02  0.21472343309E+02  0.00000000000E+00 0. -1.
         23    2    1    2    0    0 -0.30462989081E+02 -0.63496377085E+02  0.24895897390E+03  0.27270975711E+03  0.86198940434E+02 0.  0.
         23    2    1    2    0    0  0.11251252663E+02  0.57120130579E+02  0.44056356147E+03  0.45372226523E+03  0.91533285043E+02 0.  0.
        -11    1    4    4    0    0 -0.22642062879E+02  0.68796110310E+02  0.28131487565E+03  0.29048860058E+03  0.00000000000E+00 0. -1.
         11    1    4    4    0    0  0.33893315542E+02 -0.11675979730E+02  0.15924868582E+03  0.16323366466E+03  0.00000000000E+00 0.  1.
        -13    1    3    3    0    0  0.33758013198E+01 -0.61729071741E+02  0.21873699663E+03  0.22730540694E+03  0.00000000000E+00 0.  1.
         13    1    3    3    0    0 -0.33838790401E+02 -0.17673053448E+01  0.30221977277E+02  0.45404350172E+02  0.00000000000E+00 0. -1.
         -3    1    1    2    0  502  0.19211736418E+02  0.63762465061E+01  0.30928860946E+02  0.36964060588E+02  0.00000000000E+00 0.  1.
<scales pt_clust_5="13000.00000" pt_clust_6="13000.00000" pt_clust_7="13000.00000" pt_clust_8="13000.00000" pt_clust_9="13000.00000"></scales>
<clustering>
<clus scale="   86.199">  7  8 -1 -1</clus>
<clus scale="   91.533">  5  6 -1 -1</clus>
<clus scale="   20.242">  5  9 -1 -1</clus>
<clus scale="  111.311">  1  7  2 -1</clus>
<clus scale="  135.897">  2  5  1 -1</clus>
</clustering>
</event>
<event>
 9    1  0.3312826E-006  0.1701182E+03  0.7546771E-02  0.1207719E+00
          1   -1    0    0  502    0 -0.00000000000E+00  0.00000000000E+00  0.43551570062E+03  0.43551570062E+03  0.00000000000E+00 0. -1.
         21   -1    0    0  501  502  0.00000000000E+00 -0.00000000000E+00 -0.53136832924E+02  0.53136832924E+02  0.00000000000E+00 0. -1.
         23    2    1    2    0    0 -0.16041758447E+02  0.10894611308E+01  0.22792434052E+02  0.90855330264E+02  0.86467745708E+02 0.  0.
         23    2    1    2    0    0  0.14940772830E+01  0.59560287321E+02  0.23443928324E+03  0.25796932241E+03  0.89647831456E+02 0.  0.
        -11    1    4    4    0    0  0.38932565246E+02  0.32910535992E+01  0.10321893410E+03  0.11036631745E+03  0.00000000000E+00 0. -1.
         11    1    4    4    0    0 -0.37438487963E+02  0.56269233722E+02  0.13122034914E+03  0.14760300496E+03  0.00000000000E+00 0.  1.
        -13    1    3    3    0    0  0.29514196059E+02 -0.17402025454E+02 -0.46060720482E+01  0.34570712440E+02  0.00000000000E+00 0.  1.
         13    1    3    3    0    0 -0.45555954506E+02  0.18491486585E+02  0.27398506100E+02  0.56284617824E+02  0.00000000000E+00 0. -1.
          1    1    1    2  501    0  0.14547681164E+02 -0.60649748452E+02  0.12514715040E+03  0.13982788087E+03  0.00000000000E+00 0. -1.
<scales pt_clust_5="13000.00000" pt_clust_6="13000.00000" pt_clust_7="13000.00000" pt_clust_8="13000.00000" pt_clust_9="13000.00000"></scales>
<clustering>
<clus scale="   86.468">  7  8 -1 -1</clus>
<clus scale="   87.950">  1  7  2 -1</clus>
<clus scale="   89.648">  5  6 -1 -1</clus>
<clus scale="   60.927">  5  9 -1 -1</clus>
<clus scale="  170.118">  2  5  1 -1</clus>
</clustering>
</event>
<event>
 9    1  0.3312826E-006  0.2129465E+03  0.7546771E-02  0.1162087E+00
         -2   -1    0    0    0  501 -0.00000000000E+00  0.00000000000E+00  0.11700453776E+03  0.11700453776E+03  0.00000000000E+00 0.  1.
         21   -1    0    0  501  502  0.00000000000E+00 -0.00000000000E+00 -0.24321470069E+03  0.24321470069E+03  0.00000000000E+00 0. -1.
         23    2    1    2    0    0  0.81164443331E+02 -0.36497655474E+02 -0.38072710173E+02  0.12975360960E+03  0.86410197477E+02 0.  0.
         23    2    1    2    0    0 -0.53339348039E+02  0.62452699195E+02 -0.12697924459E+03  0.17609114020E+03  0.90216048550E+02 0.  0.
        -11    1    4    4    0    0 -0.24567954746E+02  0.77241006855E+02 -0.11681734855E+03  0.14218315816E+03  0.00000000000E+00 0. -1.
         11    1    4    4    0    0 -0.28771393293E+02 -0.14788307661E+02 -0.10161896036E+02  0.33907982047E+02  0.00000000000E+00 0.  1.
        -11    1    3    3    0    0  0.58259388552E+02 -0.36691164082E+02 -0.64803594968E+02  0.94551064494E+02  0.00000000000E+00 0. -1.
         11    1    3    3    0    0  0.22905054779E+02  0.19350860800E+00  0.26730884795E+02  0.35202545106E+02  0.00000000000E+00 0.  1.
         -2    1    1    2    0  502 -0.27825095292E+02 -0.25955043721E+02  0.38841791835E+02  0.54374488646E+02  0.00000000000E+00 0.  1.
<scales pt_clust_5="13000.00000" pt_clust_6="13000.00000" pt_clust_7="13000.00000" pt_clust_8="13000.00000" pt_clust_9="13000.00000"></scales>
<clustering>
<clus scale="   86.410">  7  8 -1 -1</clus>
<clus scale="   90.216">  5  6 -1 -1</clus>
<clus scale="   38.051">  5  9 -1 -1</clus>
<clus scale="  124.042">  1  7  2 -1</clus>
<clus scale="  212.946">  2  5  1 -1</clus>
</clustering>
</event>
<event>
 9    1  0.3312826E-006  0.2937176E+03  0.7546771E-02  0.1098742E+00
         -1   -1    0    0    0  501 -0.00000000000E+00  0.00000000000E+00  0.56551083082E+03  0.56551083082E+03  0.00000000000E+00 0.  1.
         21   -1    0    0  501  502  0.00000000000E+00 -0.00000000000E+00 -0.14224536646E+03  0.14224536646E+03  0.00000000000E+00 0.  1.
         23    2    1    2    0    0 -0.22133874039E+02  0.20328926860E+03  0.33140367360E+03  0.40000857035E+03  0.91444116110E+02 0.  0.
         23    2    1    2    0    0  0.45556931706E+02 -0.15847135035E+02  0.39381678261E+02  0.11169315675E+03  0.92724748409E+02 0.  0.
        -13    1    3    3    0    0 -0.24045902538E+02  0.37245218625E+02  0.23487306733E+02  0.50170362934E+02  0.00000000000E+00 0. -1.
         13    1    3    3    0    0  0.19120284990E+01  0.16604404998E+03  0.30791636687E+03  0.34983820742E+03  0.00000000000E+00 0.  1.
        -13    1    4    4    0    0  0.65959958249E+02 -0.17581731443E+02  0.53576869107E+02  0.86777383436E+02  0.00000000000E+00 0. -1.
         13    1    4    4    0    0 -0.20403026543E+02  0.17345964081E+01 -0.14195190846E+02  0.24915773317E+02  0.00000000000E+00 0.  1.
         -1    1    1    2    0  502 -0.23423057666E+02 -0.18744213357E+03  0.52480112501E+02  0.19605447018E+03  0.00000000000E+00 0.  1.
<scales pt_clust_5="13000.00000" pt_clust_6="13000.00000" pt_clust_7="13000.00000" pt_clust_8="13000.00000" pt_clust_9="13000.00000"></scales>
<clustering>
<clus scale="   91.444">  5  6 -1 -1</clus>
<clus scale="   92.725">  7  8 -1 -1</clus>
<clus scale="  188.900">  7  9 -1 -1</clus>
<clus scale="  224.005">  1  5  2 -1</clus>
<clus scale="  293.718">  2  5  1 -1</clus>
</clustering>
</event>
<event>
 9    1  0.3312826E-006  0.1972012E+03  0.7546771E-02  0.1184832E+00
         21   -1    0    0  501  502  0.00000000000E+00  0.00000000000E+00  0.20707773463E+03  0.20707773463E+03  0.00000000000E+00 0. -1.
          1   -1    0    0  502    0 -0.00000000000E+00 -0.00000000000E+00 -0.10285507243E+03  0.10285507243E+03  0.00000000000E+00 0. -1.
         23    2    1    2    0    0 -0.67673553358E+01 -0.20936830757E+01  0.18668814326E+02  0.94972911798E+02  0.92850141303E+02 0.  0.
         23    2    1    2    0    0 -0.40366823899E+02 -0.26318023549E+02 -0.10780089471E+02  0.10401358659E+03  0.91545054649E+02 0.  0.
        -11    1    3    3    0    0 -0.15227272222E+02  0.43073066259E+02  0.86893759899E+00  0.45693696599E+02  0.00000000000E+00 0.  1.
         11    1    3    3    0    0  0.84599168865E+01 -0.45166749335E+02  0.17799876727E+02  0.49279215200E+02  0.00000000000E+00 0. -1.
        -11    1    4    4    0    0 -0.65506751728E+02 -0.36886454610E+02 -0.14544760466E+01  0.75192157545E+02  0.00000000000E+00 0. -1.
         11    1    4    4    0    0  0.25139927829E+02  0.10568431062E+02 -0.93256134242E+01  0.28821429043E+02  0.00000000000E+00 0.  1.
          1    1    1    2  501    0  0.47134179235E+02  0.28411706624E+02  0.96333937346E+02  0.11094630868E+03  0.00000000000E+00 0. -1.
<scales pt_clust_5="13000.00000" pt_clust_6="13000.00000" pt_clust_7="13000.00000" pt_clust_8="13000.00000" pt_clust_9="13000.00000"></scales>
<clustering>
<clus scale="   91.545">  7  8 -1 -1</clus>
<clus scale="   55.035">  7  9 -1 -1</clus>
<clus scale="   92.850">  5  6 -1 -1</clus>
<clus scale="   93.120">  2  5  1 -1</clus>
<clus scale="  197.201">  1  5  2 -1</clus>
</clustering>
</event>
<event>
 9    1  0.3312826E-006  0.2190268E+03  0.7546771E-02  0.1150807E+00
          2   -1    0    0  502    0 -0.00000000000E+00  0.00000000000E+00  0.45092341147E+03  0.45092341147E+03  0.00000000000E+00 0. -1.
         21   -1    0    0  501  502  0.00000000000E+00 -0.00000000000E+00 -0.96798811000E+02  0.96798811000E+02  0.00000000000E+00 0. -1.
         23    2    1    2    0    0 -0.11560359827E+03 -0.13714226319E+02  0.27922296179E+03  0.31624218902E+03  0.92148726433E+02 0.  0.
         23    2    1    2    0    0  0.11719232226E+02 -0.26223813720E+02  0.76206210632E+02  0.12017544928E+03  0.88372638647E+02 0.  0.
        -13    1    4    4    0    0  0.40031995048E+02 -0.43103523769E+02  0.57571203442E+02  0.82309889166E+02  0.00000000000E+00 0.  1.
         13    1    4    4    0    0 -0.28312762821E+02  0.16879710049E+02  0.18635007190E+02  0.37865560116E+02  0.00000000000E+00 0. -1.
        -13    1    3    3    0    0 -0.98936819835E+02  0.27305748854E+02  0.21492455391E+03  0.23817359659E+03  0.00000000000E+00 0. -1.
         13    1    3    3    0    0 -0.16666778436E+02 -0.41019975174E+02  0.64298407883E+02  0.78068592423E+02  0.00000000000E+00 0.  1.
          2    1    1    2  501    0  0.10388436604E+03  0.39938040040E+02 -0.13045719535E+01  0.11130458418E+03  0.00000000000E+00 0. -1.
<scales pt_clust_5="13000.00000" pt_clust_6="13000.00000" pt_clust_7="13000.00000" pt_clust_8="13000.00000" pt_clust_9="13000.00000"></scales>
<clustering>
<clus scale="   88.373">  5  6 -1 -1</clus>
<clus scale="   92.149">  7  8 -1 -1</clus>
<clus scale="  111.297">  5  9 -1 -1</clus>
<clus scale="  148.471">  1  7  2 -1</clus>
<clus scale="  219.027">  2  5  1 -1</clus>
</clustering>
</event>
<event>
 9    1  0.3312826E-006  0.3405179E+03  0.7546771E-02  0.1096955E+00
         -3   -1    0    0    0  501 -0.00000000000E+00  0.00000000000E+00  0.28474088190E+03  0.28474088190E+03  0.00000000000E+00 0.  1.
         21   -1    0    0  501  502  0.00000000000E+00 -0.00000000000E+00 -0.21496262156E+03  0.21496262156E+03  0.00000000000E+00 0.  1.
         23    2    1    2    0    0  0.66786135120E+02 -0.98738956455E+02  0.49688857766E+02  0.15859349887E+03  0.92049692727E+02 0.  0.
         23    2    1    2    0    0 -0.13429212707E+02 -0.14127250501E+02  0.14003026306E+03  0.16798706603E+03  0.90726274154E+02 0.  0.
        -13    1    4    4    0    0 -0.28803213081E+01 -0.52455327188E+02  0.70905309160E+02  0.88246362352E+02  0.00000000000E+00 0.  1.
         13    1    4    4    0    0 -0.10548891399E+02  0.38328076687E+02  0.69124953897E+02  0.79740703681E+02  0.00000000000E+00 0. -1.
        -13    1    3    3    0    0 -0.12552695208E+02 -0.18828220180E+02 -0.16471411570E+02  0.27988916222E+02  0.00000000000E+00 0. -1.
         13    1    3    3    0    0  0.79338830328E+02 -0.79910736274E+02  0.66160269337E+02  0.13060458265E+03  0.00000000000E+00 0.  1.
         -3    1    1    2    0  502 -0.53356922413E+02  0.11286620696E+03 -0.11994086048E+03  0.17312293856E+03  0.00000000000E+00 0.  1.
<scales pt_clust_5="13000.00000" pt_clust_6="13000.00000" pt_clust_7="13000.00000" pt_clust_8="13000.00000" pt_clust_9="13000.00000"></scales>
<clustering>
<clus scale="   90.726">  5  6 -1 -1</clus>
<clus scale="   92.050">  7  8 -1 -1</clus>
<clus scale="  124.843">  5  9 -1 -1</clus>
<clus scale="  150.608">  1  7  2 -1</clus>
<clus scale="  340.518">  2  5  1 -1</clus>
</clustering>
</event>
<event>
 9    1  0.3312826E-006  0.2182580E+03  0.7546771E-02  0.1155293E+00
          1   -1    0    0  502    0 -0.00000000000E+00  0.00000000000E+00  0.33768750939E+03  0.33768750939E+03  0.00000000000E+00 0. -1.
         21   -1    0    0  501  502  0.00000000000E+00 -0.00000000000E+00 -0.12342877178E+03  0.12342877178E+03  0.00000000000E+00 0. -1.
         23    2    1    2    0    0 -0.98921614500E+02  0.16279939480E+02 -0.24972175788E+02  0.13728303712E+03  0.90401883130E+02 0.  0.
         23    2    1    2    0    0  0.77390460593E+02  0.61143377388E+01  0.26000657654E+03  0.28646049435E+03  0.91812452655E+02 0.  0.
        -11    1    4    4    0    0 -0.13157966876E+02 -0.20969637748E+02  0.69941310685E+02  0.74193293092E+02  0.00000000000E+00 0.  1.
         11    1    4    4    0    0  0.90548427469E+02  0.27083975487E+02  0.19006526586E+03  0.21226720126E+03  0.00000000000E+00 0. -1.
        -11    1    3    3    0    0 -0.22669385168E+02 -0.35948947533E+02 -0.99034952909E+01  0.43638366967E+02  0.00000000000E+00 0.  1.
         11    1    3    3    0    0 -0.76252229332E+02  0.52228887013E+02 -0.15068680497E+02  0.93644670156E+02  0.00000000000E+00 0. -1.
          1    1    1    2  501    0  0.21531153906E+02 -0.22394277219E+02 -0.20775663142E+02  0.37372749694E+02  0.00000000000E+00 0. -1.
<scales pt_clust_5="13000.00000" pt_clust_6="13000.00000" pt_clust_7="13000.00000" pt_clust_8="13000.00000" pt_clust_9="13000.00000"></scales>
<clustering>
<clus scale="   90.402">  7  8 -1 -1</clus>
<clus scale="   91.812">  5  6 -1 -1</clus>
<clus scale="   31.066">  5  9 -1 -1</clus>
<clus scale="  134.993">  1  7  2 -1</clus>
<clus scale="  218.258">  2  5  1 -1</clus>
</clustering>
</event>
<event>
 9    1  0.3312826E-006  0.2218971E+03  0.7546771E-02  0.1168366E+00
         21   -1    0    0  501  502  0.00000000000E+00  0.00000000000E+00  0.53911778048E+02  0.53911778048E+02  0.00000000000E+00 0. -1.
          2   -1    0    0  502    0 -0.00000000000E+00 -0.00000000000E+00 -0.47014484242E+03  0.47014484242E+03  0.00000000000E+00 0. -1.
         23    2    1    2    0    0 -0.26438989313E+02  0.13022380621E+02 -0.10096606588E+03  0.13852892847E+03  0.90152731578E+02 0.  0.
         23    2    1    2    0    0  0.60849194156E+01 -0.93657727450E+02 -0.21187519671E+03  0.25283929011E+03  0.10113264303E+03 0.  0.
        -11    1    3    3    0    0 -0.34828456214E+02 -0.32870648774E+02 -0.56678258013E+02  0.74201926150E+02  0.00000000000E+00 0. -1.
         11    1    3    3    0    0  0.83894669006E+01  0.45893029394E+02 -0.44287807866E+02  0.64327002319E+02  0.00000000000E+00 0.  1.
        -13    1    4    4    0    0 -0.60990438762E+01  0.21240202001E+02 -0.40817466021E+02  0.46415622905E+02  0.00000000000E+00 0.  1.
         13    1    4    4    0    0  0.12183963292E+02 -0.11489792945E+03 -0.17105773069E+03  0.20642366720E+03  0.00000000000E+00 0. -1.
          2    1    1    2  501    0  0.20354069898E+02  0.80635346830E+02 -0.10339180178E+03  0.13268840189E+03  0.00000000000E+00 0. -1.
<scales pt_clust_5="13000.00000" pt_clust_6="13000.00000" pt_clust_7="13000.00000" pt_clust_8="13000.00000" pt_clust_9="13000.00000"></scales>
<clustering>
<clus scale="   90.153">  5  6 -1 -1</clus>
<clus scale="   94.848">  2  5  1 -1</clus>
<clus scale="  101.133">  7  8 -1 -1</clus>
<clus scale="   85.789">  7  9 -1 -1</clus>
<clus scale="  221.897">  1  5  2 -1</clus>
</clustering>
</event>
<event>
 9    1  0.3312826E-006  0.1941828E+03  0.7546771E-02  0.1169799E+00
         -4   -1    0    0    0  501 -0.00000000000E+00  0.00000000000E+00  0.20870221201E+03  0.20870221201E+03  0.00000000000E+00 0.  1.
         21   -1    0    0  501  502  0.00000000000E+00 -0.00000000000E+00 -0.13140835408E+03  0.13140835408E+03  0.00000000000E+00 0.  1.
         23    2    1    2    0    0 -0.91048490594E+02 -0.47210338229E+02  0.35416962688E+02  0.14146358275E+03  0.90768608681E+02 0.  0.
         23    2    1    2    0    0  0.12488274416E+02  0.54325432768E+02 -0.53912207608E+01  0.10668717187E+03  0.90806815481E+02 0.  0.
        -11    1    3    3    0    0 -0.56190206504E+02  0.15155157993E+02 -0.66114585053E+01  0.58572429558E+02  0.00000000000E+00 0.  1.
         11    1    3    3    0    0 -0.34858284090E+02 -0.62365496222E+02  0.42028421193E+02  0.82891153187E+02  0.00000000000E+00 0. -1.
        -13    1    4    4    0    0 -0.30609525194E+02  0.42131048358E+02 -0.25031917907E+02  0.57780318297E+02  0.00000000000E+00 0.  1.
         13    1    4    4    0    0  0.43097799610E+02  0.12194384409E+02  0.19640697146E+02  0.48906853577E+02  0.00000000000E+00 0. -1.
         -4    1    1    2    0  502  0.78560216178E+02 -0.71150945384E+01  0.47268116003E+02  0.91959811476E+02  0.00000000000E+00 0.  1.
<scales pt_clust_5="13000.00000" pt_clust_6="13000.00000" pt_clust_7="13000.00000" pt_clust_8="13000.00000" pt_clust_9="13000.00000"></scales>
<clustering>
<clus scale="   90.769">  5  6 -1 -1</clus>
<clus scale="   90.807">  7  8 -1 -1</clus>
<clus scale="   78.882">  7  9 -1 -1</clus>
<clus scale="  136.958">  1  5  2 -1</clus>
<clus scale="  194.183">  2  5  1 -1</clus>
</clustering>
</event>
<event>
 9    1  0.3312826E-006  0.6312827E+03  0.7546771E-02  0.1028579E+00
          2   -1    0    0  502    0 -0.00000000000E+00  0.00000000000E+00  0.33033794984E+03  0.33033794984E+03  0.00000000000E+00 0. -1.
         21   -1    0    0  501  502  0.00000000000E+00 -0.00000000000E+00 -0.63335297367E+03  0.63335297367E+03  0.00000000000E+00 0. -1.
         23    2    1    2    0    0  0.50522847022E+02 -0.11992348127E+03  0.12400230018E+03  0.20154813688E+03  0.91164036747E+02 0.  0.
         23    2    1    2    0    0 -0.92505421950E+02 -0.13681283421E+02  0.12170847738E+03  0.19582770220E+03  0.12161868637E+03 0.  0.
        -13    1    4    4    0    0 -0.11987327545E+02  0.48952454698E+02  0.51045178263E+02  0.71733179677E+02  0.00000000000E+00 0.  1.
         13    1    4    4    0    0 -0.80518094405E+02 -0.62633738119E+02  0.70663299117E+02  0.12409452252E+03  0.00000000000E+00 0. -1.
        -13    1    3    3    0    0  0.43596700671E+02 -0.57659908175E+01  0.42091501765E+02  0.60873750339E+02  0.00000000000E+00 0.  1.
         13    1    3    3    0    0  0.69261463510E+01 -0.11415749046E+03  0.81910798416E+02  0.14067438654E+03  0.00000000000E+00 0. -1.
          2    1    1    2  501    0  0.41982574928E+02  0.13360476469E+03 -0.54872580139E+03  0.56631508443E+03  0.00000000000E+00 0. -1.
<scales pt_clust_5="13000.00000" pt_clust_6="13000.00000" pt_clust_7="13000.00000" pt_clust_8="13000.00000" pt_clust_9="13000.00000"></scales>
<clustering>
<clus scale="   91.164">  7  8 -1 -1</clus>
<clus scale="  121.619">  5  6 -1 -1</clus>
<clus scale="  140.046">  5  9 -1 -1</clus>
<clus scale="  158.887">  1  7  2 -1</clus>
<clus scale="  631.283">  2  5  1 -1</clus>
</clustering>
</event>
<event>
 9    1  0.3312826E-006  0.2263879E+03  0.7546771E-02  0.1150863E+00
         -3   -1    0    0    0  501 -0.00000000000E+00  0.00000000000E+00  0.30200225640E+03  0.30200225640E+03  0.00000000000E+00 0.  1.
         21   -1    0    0  501  502  0.00000000000E+00 -0.00000000000E+00 -0.10924346809E+03  0.10924346809E+03  0.00000000000E+00 0.  1.
         23    2    1    2    0    0  0.97781958974E+02 -0.12295405059E+02  0.48323382433E+02  0.14270693777E+03  0.91201054327E+02 0.  0.
         23    2    1    2    0    0 -0.17087404836E+02 -0.26949669983E+02  0.15000650392E+03  0.17863425894E+03  0.91596851108E+02 0.  0.
        -13    1    3    3    0    0  0.78458673817E+02  0.32421983141E+02  0.37488864919E+02  0.92802820436E+02  0.00000000000E+00 0.  1.
         13    1    3    3    0    0  0.19323285156E+02 -0.44717388200E+02  0.10834517513E+02  0.49904117329E+02  0.00000000000E+00 0. -1.
        -13    1    4    4    0    0 -0.54307768974E+02 -0.18765259195E+02  0.74781092903E+02  0.94306312511E+02  0.00000000000E+00 0. -1.
         13    1    4    4    0    0  0.37220364138E+02 -0.81844107878E+01  0.75225411015E+02  0.84327946429E+02  0.00000000000E+00 0.  1.
         -3    1    1    2    0  502 -0.80694554138E+02  0.39245075042E+02 -0.55710980360E+01  0.89904527783E+02  0.00000000000E+00 0.  1.
<scales pt_clust_5="13000.00000" pt_clust_6="13000.00000" pt_clust_7="13000.00000" pt_clust_8="13000.00000" pt_clust_9="13000.00000"></scales>
<clustering>
<clus scale="   91.201">  5  6 -1 -1</clus>
<clus scale="   91.597">  7  8 -1 -1</clus>
<clus scale="   89.732">  7  9 -1 -1</clus>
<clus scale="  134.276">  1  5  2 -1</clus>
<clus scale="  226.388">  2  5  1 -1</clus>
</clustering>
</event>
<event>
 9    1  0.3312826E-006  0.2719553E+03  0.7546771E-02  0.1137141E+00
         -2   -1    0    0    0  501 -0.00000000000E+00  0.00000000000E+00  0.48435414338E+02  0.48435414338E+02  0.00000000000E+00 0.  1.
         21   -1    0    0  501  502  0.00000000000E+00 -0.00000000000E+00 -0.80698846470E+03  0.80698846470E+03  0.00000000000E+00 0. -1.
         23    2    1    2    0    0  0.55935760046E+02  0.18671748827E+02 -0.33700170866E+03  0.35376143601E+03  0.89997547247E+02 0.  0.
         23    2    1    2    0    0 -0.13591308028E+03  0.84860170177E+01 -0.19242144021E+03  0.25746083011E+03  0.10351661950E+03 0.  0.
        -11    1    3    3    0    0 -0.13596743395E+02  0.33151023332E+02 -0.13335520115E+03  0.13808501531E+03  0.00000000000E+00 0. -1.
         11    1    3    3    0    0  0.69532503441E+02 -0.14479274504E+02 -0.20364650751E+03  0.21567642070E+03  0.00000000000E+00 0.  1.
        -13    1    4    4    0    0 -0.62444984025E+02 -0.43265537047E+02 -0.12009216667E+03  0.14210352290E+03  0.00000000000E+00 0. -1.
         13    1    4    4    0    0 -0.73468096252E+02  0.51751554065E+02 -0.72329273548E+02  0.11535730721E+03  0.00000000000E+00 0.  1.
         -2    1    1    2    0  502  0.79977320231E+02 -0.27157765845E+02 -0.22912990149E+03  0.24420161292E+03  0.00000000000E+00 0.  1.
<scales pt_clust_5="13000.00000" pt_clust_6="13000.00000" pt_clust_7="13000.00000" pt_clust_8="13000.00000" pt_clust_9="13000.00000"></scales>
<clustering>
<clus scale="   89.998">  5  6 -1 -1</clus>
<clus scale="  103.517">  7  8 -1 -1</clus>
<clus scale="   84.463">  7  9 -1 -1</clus>
<clus scale="  107.597">  1  5  2 -1</clus>
<clus scale="  271.955">  2  5  1 -1</clus>
</clustering>
</event>
<event>
 9    1  0.3312826E-006  0.2100857E+03  0.7546771E-02  0.1167462E+00
          3   -1    0    0  502    0 -0.00000000000E+00  0.00000000000E+00  0.36623444817E+03  0.36623444817E+03  0.00000000000E+00 0. -1.
         21   -1    0    0  501  502  0.00000000000E+00 -0.00000000000E+00 -0.10741131777E+03  0.10741131777E+03  0.00000000000E+00 0. -1.
         23    2    1    2    0    0  0.34234937067E+02 -0.72259523888E+02  0.23623563018E+03  0.26234933192E+03  0.81402882518E+02 0.  0.
         23    2    1    2    0    0  0.58003754343E+02  0.19017270901E+02  0.27320548312E+02  0.10468913858E+03  0.80543846857E+02 0.  0.
        -13    1    4    4    0    0  0.22329549693E+02 -0.31671589413E+02  0.64436212188E+01  0.39283821350E+02  0.00000000000E+00 0. -1.
         13    1    4    4    0    0  0.35674204650E+02  0.50688860314E+02  0.20876927093E+02  0.65405317232E+02  0.00000000000E+00 0.  1.
        -13    1    3    3    0    0 -0.22696174267E+02 -0.26541501065E+02  0.40716810980E+02  0.53641647080E+02  0.00000000000E+00 0.  1.
         13    1    3    3    0    0  0.56931111333E+02 -0.45718022823E+02  0.19551881920E+03  0.20870768484E+03  0.00000000000E+00 0. -1.
          3    1    1    2  501    0 -0.92238691410E+02  0.53242252987E+02 -0.47330480937E+01  0.10660729544E+03  0.00000000000E+00 0. -1.
<scales pt_clust_5="13000.00000" pt_clust_6="13000.00000" pt_clust_7="13000.00000" pt_clust_8="13000.00000" pt_clust_9="13000.00000"></scales>
<clustering>
<clus scale="   80.544">  5  6 -1 -1</clus>
<clus scale="   81.403">  7  8 -1 -1</clus>
<clus scale="  106.502">  5  9 -1 -1</clus>
<clus scale="  114.105">  1  7  2 -1</clus>
<clus scale="  210.086">  2  5  1 -1</clus>
</clustering>
</event>
<event>
 9    1  0.3312826E-006  0.4131148E+03  0.7546771E-02  0.1053472E+00
         -1   -1    0    0    0  501 -0.00000000000E+00  0.00000000000E+00  0.31776117125E+03  0.31776117125E+03  0.00000000000E+00 0.  1.
         21   -1    0    0  501  502  0.00000000000E+00 -0.00000000000E+00 -0.38328933634E+03  0.38328933634E+03  0.00000000000E+00 0.  1.
         23    2    1    2    0    0 -0.18252930981E+03  0.18393390561E+03 -0.83455453764E+02  0.28754692000E+03  0.92573148753E+02 0.  0.
         23    2    1    2    0    0  0.70702002383E+01 -0.55353410914E+02  0.13038010569E+03  0.16862713139E+03  0.91225816784E+02 0.  0.
        -11    1    4    4    0    0  0.75419617459E+01  0.21678819986E+02  0.60165880920E+02  0.64395540606E+02  0.00000000000E+00 0. -1.
         11    1    4    4    0    0 -0.47176150759E+00 -0.77032230900E+02  0.70214224772E+02  0.10423159078E+03  0.00000000000E+00 0.  1.
        -11    1    3    3    0    0 -0.12286497351E+03  0.15398054993E+03 -0.96760445445E+02  0.21947299441E+03  0.00000000000E+00 0.  1.
         11    1    3    3    0    0 -0.59664336298E+02  0.29953355677E+02  0.13304991681E+02  0.68073925594E+02  0.00000000000E+00 0. -1.
         -1    1    1    2    0  502  0.17545910957E+03 -0.12858049469E+03 -0.11245281702E+03  0.24487645620E+03  0.00000000000E+00 0.  1.
<scales pt_clust_5="13000.00000" pt_clust_6="13000.00000" pt_clust_7="13000.00000" pt_clust_8="13000.00000" pt_clust_9="13000.00000"></scales>
<clustering>
<clus scale="   91.226">  5  6 -1 -1</clus>
<clus scale="   92.573">  7  8 -1 -1</clus>
<clus scale="  217.529">  5  9 -1 -1</clus>
<clus scale="  275.170">  1  7  2 -1</clus>
<clus scale="  413.115">  2  5  1 -1</clus>
</clustering>
</event>
<event>
 9    1  0.3312826E-006  0.2722104E+03  0.7546771E-02  0.1143206E+00
         21   -1    0    0  501  502  0.00000000000E+00  0.00000000000E+00  0.47354432203E+03  0.47354432203E+03  0.00000000000E+00 0. -1.
          1   -1    0    0  502    0 -0.00000000000E+00 -0.00000000000E+00 -0.10772969697E+03  0.10772969697E+03  0.00000000000E+00 0. -1.
         23    2    1    2    0    0 -0.94355574038E+01 -0.19951690194E+02 -0.33018352625E+02  0.98401134563E+02  0.90030394801E+02 0.  0.
         23    2    1    2    0    0 -0.29698216339E+02 -0.56077090478E+02  0.47554467794E+02  0.12133669088E+03  0.91839757270E+02 0.  0.
        -11    1    4    4    0    0 -0.20691847757E+02  0.12525480503E+02 -0.14663760493E+02  0.28285439668E+02  0.00000000000E+00 0. -1.
         11    1    4    4    0    0 -0.90063685820E+01 -0.68602570981E+02  0.62218228287E+02  0.93051251208E+02  0.00000000000E+00 0.  1.
        -11    1    3    3    0    0  0.24416140174E+02  0.25615908354E+02 -0.75533278985E+01  0.36185292925E+02  0.00000000000E+00 0.  1.
         11    1    3    3    0    0 -0.33851697577E+02 -0.45567598548E+02 -0.25465024727E+02  0.62215841637E+02  0.00000000000E+00 0. -1.
          1    1    1    2  501    0  0.39133773743E+02  0.76028780672E+02  0.35127850990E+03  0.36153619356E+03  0.00000000000E+00 0. -1.
<scales pt_clust_5="13000.00000" pt_clust_6="13000.00000" pt_clust_7="13000.00000" pt_clust_8="13000.00000" pt_clust_9="13000.00000"></scales>
<clustering>
<clus scale="   90.030">  7  8 -1 -1</clus>
<clus scale="   91.840">  5  6 -1 -1</clus>
<clus scale="   85.509">  5  9 -1 -1</clus>
<clus scale="   92.696">  2  7  1 -1</clus>
<clus scale="  272.210">  1  5  2 -1</clus>
</clustering>
</event>
<event>
 9    1  0.3312826E-006  0.2361424E+03  0.7546771E-02  0.1158848E+00
         21   -1    0    0  501  502  0.00000000000E+00  0.00000000000E+00  0.34199729574E+03  0.34199729574E+03  0.00000000000E+00 0. -1.
          4   -1    0    0  502    0 -0.00000000000E+00 -0.00000000000E+00 -0.94673363204E+02  0.94673363204E+02  0.00000000000E+00 0. -1.
         23    2    1    2    0    0 -0.10431814287E+02 -0.16669316157E+02  0.48348456226E+01  0.98197368839E+02  0.96086724704E+02 0.  0.
         23    2    1    2    0    0 -0.80596375582E+02 -0.38185959686E+02  0.10863597246E+03  0.16755843151E+03  0.91214637995E+02 0.  0.
        -13    1    4    4    0    0 -0.56889318464E+02  0.15344985261E+02  0.87139602117E+02  0.10519112788E+03  0.00000000000E+00 0.  1.
         13    1    4    4    0    0 -0.23707057118E+02 -0.53530944947E+02  0.21496370340E+02  0.62367303629E+02  0.00000000000E+00 0. -1.
        -13    1    3    3    0    0  0.29455962417E+02  0.17899343335E+02  0.24046384858E+02  0.42027001302E+02  0.00000000000E+00 0.  1.
         13    1    3    3    0    0 -0.39887776703E+02 -0.34568659492E+02 -0.19211539236E+02  0.56170367537E+02  0.00000000000E+00 0. -1.
          4    1    1    2  501    0  0.91028189868E+02  0.54855275843E+02  0.13385311445E+03  0.17091485859E+03  0.00000000000E+00 0. -1.
<scales pt_clust_5="13000.00000" pt_clust_6="13000.00000" pt_clust_7="13000.00000" pt_clust_8="13000.00000" pt_clust_9="13000.00000"></scales>
<clustering>
<clus scale="   91.215">  5  6 -1 -1</clus>
<clus scale="   96.087">  7  8 -1 -1</clus>
<clus scale="   98.078">  2  7  1 -1</clus>
<clus scale="   99.566">  5  9 -1 -1</clus>
<clus scale="  236.142">  1  5  2 -1</clus>
</clustering>
</event>
<event>
 9    1  0.3312826E-006  0.2682987E+03  0.7546771E-02  0.1116217E+00
         21   -1    0    0  501  502  0.00000000000E+00  0.00000000000E+00  0.19594545517E+03  0.19594545517E+03  0.00000000000E+00 0.  1.
         -3   -1    0    0    0  501 -0.00000000000E+00 -0.00000000000E+00 -0.49501290408E+03  0.49501290408E+03  0.00000000000E+00 0.  1.
         23    2    1    2    0    0  0.12722754937E+03 -0.10195895380E+03 -0.36865114026E+03  0.41378318056E+03  0.93436501000E+02 0.  0.
         23    2    1    2    0    0 -0.84646542997E+01  0.11521656430E+03  0.19012983685E+02  0.14741468410E+03  0.89571694629E+02 0.  0.
        -13    1    4    4    0    0  0.34775555523E+01  0.90262415457E+02 -0.26515087972E+02  0.94140570037E+02  0.00000000000E+00 0.  1.
         13    1    4    4    0    0 -0.11942209852E+02  0.24954148844E+02  0.45528071657E+02  0.53274114065E+02  0.00000000000E+00 0. -1.
        -13    1    3    3    0    0  0.73220876857E+02 -0.42628127352E+02 -0.89122515410E+02  0.12296860088E+03  0.00000000000E+00 0.  1.
         13    1    3    3    0    0  0.54006672511E+02 -0.59330826447E+02 -0.27952862485E+03  0.29081457968E+03  0.00000000000E+00 0. -1.
         -3    1    1    2    0  502 -0.11876289507E+03 -0.13257610501E+02  0.50570707662E+02  0.12976049458E+03  0.00000000000E+00 0.  1.
<scales pt_clust_5="13000.00000" pt_clust_6="13000.00000" pt_clust_7="13000.00000" pt_clust_8="13000.00000" pt_clust_9="13000.00000"></scales>
<clustering>
<clus scale="   89.572">  5  6 -1 -1</clus>
<clus scale="   93.437">  7  8 -1 -1</clus>
<clus scale="  119.501">  5  9 -1 -1</clus>
<clus scale="  187.917">  2  7  1 -1</clus>
<clus scale="  268.299">  1  5  2 -1</clus>
</clustering>
</event>
<event>
 9    1  0.3312826E-006  0.1991388E+03  0.7546771E-02  0.1174887E+00
         -2   -1    0    0    0  501 -0.00000000000E+00  0.00000000000E+00  0.12675479735E+03  0.12675479735E+03  0.00000000000E+00 0.  1.
         21   -1    0    0  501  502  0.00000000000E+00 -0.00000000000E+00 -0.20021641963E+03  0.20021641963E+03  0.00000000000E+00 0. -1.
         23    2    1    2    0    0  0.33059182023E+02 -0.58365685008E+02 -0.58366250472E+02  0.12726109962E+03  0.91045623611E+02 0.  0.
         23    2    1    2    0    0 -0.49460175866E+02 -0.22169795314E+02  0.24234623247E+02  0.10859587753E+03  0.90928207017E+02 0.  0.
        -11    1    3    3    0    0 -0.96723438898E+01 -0.32247112922E+02 -0.68352330160E+02  0.76193645184E+02  0.00000000000E+00 0. -1.
         11    1    3    3    0    0  0.42731525913E+02 -0.26118572086E+02  0.99860796877E+01  0.51067454432E+02  0.00000000000E+00 0.  1.
        -11    1    4    4    0    0 -0.58429442409E+02 -0.48872169103E+02  0.93766852884E+01  0.76749012241E+02  0.00000000000E+00 0. -1.
         11    1    4    4    0    0  0.89692665426E+01  0.26702373789E+02  0.14857937958E+02  0.31846865287E+02  0.00000000000E+00 0.  1.
         -2    1    1    2    0  502  0.16400993843E+02  0.80535480322E+02 -0.39329995053E+02  0.91114239834E+02  0.00000000000E+00 0.  1.
<scales pt_clust_5="13000.00000" pt_clust_6="13000.00000" pt_clust_7="13000.00000" pt_clust_8="13000.00000" pt_clust_9="13000.00000"></scales>
<clustering>
<clus scale="   90.928">  7  8 -1 -1</clus>
<clus scale="   82.189">  7  9 -1 -1</clus>
<clus scale="   91.046">  5  6 -1 -1</clus>
<clus scale="  113.087">  1  5  2 -1</clus>
<clus scale="  199.139">  2  5  1 -1</clus>
</clustering>
</event>
<event>
 9    1  0.3312826E-006  0.3354381E+03  0.7546771E-02  0.1116120E+00
          4   -1    0    0  502    0 -0.00000000000E+00  0.00000000000E+00  0.58498079542E+03  0.58498079542E+03  0.00000000000E+00 0. -1.
         21   -1    0    0  501  502  0.00000000000E+00 -0.00000000000E+00 -0.20227510200E+03  0.20227510200E+03  0.00000000000E+00 0. -1.
         23    2    1    2    0    0 -0.18837383083E+02  0.28493985156E+02  0.43695342079E+03  0.44745958413E+03  0.90138966567E+02 0.  0.
         23    2    1    2    0    0  0.12016467591E+02  0.13286643166E+03 -0.71542576510E+02  0.17736841910E+03  0.92430144905E+02 0.  0.
        -11    1    4    4    0    0 -0.15570339988E+02  0.33660937115E+02  0.17711808889E+02  0.41099906921E+02  0.00000000000E+00 0.  1.
         11    1    4    4    0    0  0.27586807579E+02  0.99205494543E+02 -0.89254385399E+02  0.13626851218E+03  0.00000000000E+00 0. -1.
        -13    1    3    3    0    0  0.36185715249E+02  0.59530180496E+01  0.15099134727E+03  0.15538092342E+03  0.00000000000E+00 0.  1.
         13    1    3    3    0    0 -0.55023098332E+02  0.22540967107E+02  0.28596207353E+03  0.29207866071E+03  0.00000000000E+00 0. -1.
          4    1    1    2  501    0  0.68209154921E+01 -0.16136041681E+03  0.17294849133E+02  0.16242789418E+03  0.00000000000E+00 0. -1.
<scales pt_clust_5="13000.00000" pt_clust_6="13000.00000" pt_clust_7="13000.00000" pt_clust_8="13000.00000" pt_clust_9="13000.00000"></scales>
<clustering>
<clus scale="   90.139">  7  8 -1 -1</clus>
<clus scale="   92.430">  5  6 -1 -1</clus>
<clus scale="   96.394">  1  7  2 -1</clus>
<clus scale="  143.515">  5  9 -1 -1</clus>
<clus scale="  335.438">  2  5  1 -1</clus>
</clustering>
</event>
<event>
 9    1  0.3312826E-006  0.1937763E+03  0.7546771E-02  0.1183968E+00
          1   -1    0    0  502    0 -0.00000000000E+00  0.00000000000E+00  0.41526179464E+03  0.41526179464E+03  0.00000000000E+00 0. -1.
         21   -1    0    0  501  502  0.00000000000E+00 -0.00000000000E+00 -0.98997100380E+02  0.98997100380E+02  0.00000000000E+00 0. -1.
         23    2    1    2    0    0  0.10438108282E+02  0.38736566711E+02  0.30405922656E+03  0.32009859438E+03  0.91660357636E+02 0.  0.
         23    2    1    2    0    0 -0.20325538926E+02  0.42133610132E+02  0.33833255872E+02  0.10986612523E+03  0.93474636314E+02 0.  0.
        -13    1    3    3    0    0  0.13613140420E+02  0.67086658086E+02  0.24693091034E+03  0.25624365703E+03  0.00000000000E+00 0. -1.
         13    1    3    3    0    0 -0.31750321384E+01 -0.28350091375E+02  0.57128316214E+02  0.63854937347E+02  0.00000000000E+00 0.  1.
        -13    1    4    4    0    0 -0.49816116477E+02  0.43104981004E+02  0.12223552118E+01  0.65887624031E+02  0.00000000000E+00 0. -1.
         13    1    4    4    0    0  0.29490577550E+02 -0.97137087176E+00  0.32610900660E+02  0.43978501196E+02  0.00000000000E+00 0.  1.
          1    1    1    2  501    0  0.98874306444E+01 -0.80870176843E+02 -0.21627788173E+02  0.84294175413E+02  0.00000000000E+00 0. -1.
<scales pt_clust_5="13000.00000" pt_clust_6="13000.00000" pt_clust_7="13000.00000" pt_clust_8="13000.00000" pt_clust_9="13000.00000"></scales>
<clustering>
<clus scale="   91.660">  5  6 -1 -1</clus>
<clus scale="   93.475">  7  8 -1 -1</clus>
<clus scale="   81.472">  7  9 -1 -1</clus>
<clus scale="  100.055">  1  5  2 -1</clus>
<clus scale="  193.776">  2  5  1 -1</clus>
</clustering>
</event>
<event>
 9    1  0.3312826E-006  0.4697143E+03  0.7546771E-02  0.1042542E+00
         21   -1    0    0  501  502  0.00000000000E+00  0.00000000000E+00  0.11027563126E+03  0.11027563126E+03  0.00000000000E+00 0. -1.
          1   -1    0    0  502    0 -0.00000000000E+00 -0.00000000000E+00 -0.12721793729E+04  0.12721793729E+04  0.00000000000E+00 0. -1.
         23    2    1    2    0    0 -0.12924970208E+03  0.20139835794E+03 -0.25622074425E+03  0.36221325603E+03  0.91008730308E+02 0.  0.
         23    2    1    2    0    0  0.18210714350E+03  0.47371358474E+02 -0.48927962900E+03  0.53231547692E+03  0.92510292946E+02 0.  0.
        -11    1    4    4    0    0  0.43697480974E+02  0.10627294861E+02 -0.38054731064E+02  0.58911559103E+02  0.00000000000E+00 0.  1.
         11    1    4    4    0    0  0.13840966252E+03  0.36744063612E+02 -0.45122489793E+03  0.47340391782E+03  0.00000000000E+00 0. -1.
        -11    1    3    3    0    0 -0.12895549819E+03  0.17308149857E+03 -0.18048588532E+03  0.28135721150E+03  0.00000000000E+00 0. -1.
         11    1    3    3    0    0 -0.29420388551E+00  0.28316859367E+02 -0.75734858930E+02  0.80856044533E+02  0.00000000000E+00 0.  1.
          1    1    1    2  501    0 -0.52857441422E+02 -0.24876971641E+03 -0.41640336836E+03  0.48792627117E+03  0.00000000000E+00 0. -1.
<scales pt_clust_5="13000.00000" pt_clust_6="13000.00000" pt_clust_7="13000.00000" pt_clust_8="13000.00000" pt_clust_9="13000.00000"></scales>
<clustering>
<clus scale="   91.009">  7  8 -1 -1</clus>
<clus scale="   92.510">  5  6 -1 -1</clus>
<clus scale="  254.323">  5  9 -1 -1</clus>
<clus scale="  256.026">  2  7  1 -1</clus>
<clus scale="  469.714">  1  5  2 -1</clus>
</clustering>
</event>
<event>
 9    1  0.3312826E-006  0.6181319E+03  0.7546771E-02  0.1049246E+00
          1   -1    0    0  502    0 -0.00000000000E+00  0.00000000000E+00  0.49997284353E+03  0.49997284353E+03  0.00000000000E+00 0. -1.
         21   -1    0    0  501  502  0.00000000000E+00 -0.00000000000E+00 -0.52432898777E+03  0.52432898777E+03  0.00000000000E+00 0. -1.
         23    2    1    2    0    0  0.25060443458E+02 -0.69442430045E+01  0.30859625492E+03  0.32220186392E+03  0.88916501429E+02 0.  0.
         23    2    1    2    0    0  0.22101051120E+02 -0.95770850455E+02  0.15276746617E+03  0.20340328143E+03  0.91512206387E+02 0.  0.
        -13    1    3    3    0    0 -0.29626528183E+02  0.14910488022E+02  0.94401374112E+02  0.10005834927E+03  0.00000000000E+00 0.  1.
         13    1    3    3    0    0  0.54686971641E+02 -0.21854731026E+02  0.21419488081E+03  0.22214351465E+03  0.00000000000E+00 0. -1.
        -13    1    4    4    0    0  0.14830092671E+02  0.15275086460E+02  0.37898901775E+02  0.43469376240E+02  0.00000000000E+00 0.  1.
         13    1    4    4    0    0  0.72709584488E+01 -0.11104593691E+03  0.11486856440E+03  0.15993390519E+03  0.00000000000E+00 0. -1.
          1    1    1    2  501    0 -0.47161494577E+02  0.10271509346E+03 -0.48571986533E+03  0.49869668595E+03  0.00000000000E+00 0. -1.
<scales pt_clust_5="13000.00000" pt_clust_6="13000.00000" pt_clust_7="13000.00000" pt_clust_8="13000.00000" pt_clust_9="13000.00000"></scales>
<clustering>
<clus scale="   88.917">  5  6 -1 -1</clus>
<clus scale="   91.512">  7  8 -1 -1</clus>
<clus scale="   92.641">  1  5  2 -1</clus>
<clus scale="  112.438">  7  9 -1 -1</clus>
<clus scale="  618.132">  2  5  1 -1</clus>
</clustering>
</event>
<event>
 9    1  0.3312826E-006  0.2478490E+03  0.7546771E-02  0.1129480E+00
         21   -1    0    0  501  502  0.00000000000E+00  0.00000000000E+00  0.43953060519E+03  0.43953060519E+03  0.00000000000E+00 0.  1.
         -3   -1    0    0    0  501 -0.00000000000E+00 -0.00000000000E+00 -0.26754793458E+03  0.26754793458E+03  0.00000000000E+00 0.  1.
         23    2    1    2    0    0  0.10974330557E+03  0.90119199218E+02 -0.19792787597E+03  0.26181129794E+03  0.95940859164E+02 0.  0.
         23    2    1    2    0    0  0.13506790901E+02 -0.96229865996E+01  0.84980032417E+02  0.12455611882E+03  0.89540971370E+02 0.  0.
        -11    1    3    3    0    0  0.11299083421E+03  0.44560770116E+02 -0.16760505974E+03  0.20698803564E+03  0.00000000000E+00 0.  1.
         11    1    3    3    0    0 -0.32475286411E+01  0.45558429102E+02 -0.30322816227E+02  0.54823262293E+02  0.00000000000E+00 0. -1.
        -11    1    4    4    0    0  0.44817224479E+01  0.29703862770E+02 -0.48626639218E+00  0.30043996981E+02  0.00000000000E+00 0.  1.
         11    1    4    4    0    0  0.90250684534E+01 -0.39326849370E+02  0.85466298809E+02  0.94512121837E+02  0.00000000000E+00 0. -1.
         -3    1    1    2    0  502 -0.12325009647E+03 -0.80496212618E+02  0.28493051416E+03  0.32071112301E+03  0.00000000000E+00 0.  1.
<scales pt_clust_5="13000.00000" pt_clust_6="13000.00000" pt_clust_7="13000.00000" pt_clust_8="13000.00000" pt_clust_9="13000.00000"></scales>
<clustering>
<clus scale="   89.541">  7  8 -1 -1</clus>
<clus scale="   95.941">  5  6 -1 -1</clus>
<clus scale="  147.208">  7  9 -1 -1</clus>
<clus scale="  171.376">  2  5  1 -1</clus>
<clus scale="  247.849">  1  5  2 -1</clus>
</clustering>
</event>
<event>
 9    1  0.3312826E-006  0.1577018E+03  0.7546771E-02  0.1211375E+00
          2   -1    0    0  502    0 -0.00000000000E+00  0.00000000000E+00  0.68229208379E+02  0.68229208379E+02  0.00000000000E+00 0. -1.
         21   -1    0    0  501  502  0.00000000000E+00 -0.00000000000E+00 -0.30298136081E+03  0.30298136081E+03  0.00000000000E+00 0. -1.
         23    2    1    2    0    0 -0.39005680964E+02  0.24544003007E+02 -0.18824201173E+02  0.10382557034E+03  0.91112827174E+02 0.  0.
         23    2    1    2    0    0 -0.39232222160E+01 -0.41392483688E+02 -0.18915357513E+03  0.21405930855E+03  0.91178852877E+02 0.  0.
        -11    1    4    4    0    0 -0.31590108305E+02  0.13915922129E+01 -0.20037528750E+02  0.37434930614E+02  0.00000000000E+00 0.  1.
         11    1    4    4    0    0  0.27666886089E+02 -0.42784075901E+02 -0.16911604638E+03  0.17662437793E+03  0.00000000000E+00 0. -1.
        -11    1    3    3    0    0  0.24233979248E+02  0.29196959521E+02 -0.13164786204E+02  0.40162915622E+02  0.00000000000E+00 0.  1.
         11    1    3    3    0    0 -0.63239660211E+02 -0.46529565142E+01 -0.56594149689E+01  0.63662654718E+02  0.00000000000E+00 0. -1.
          2    1    1    2  501    0  0.42928903180E+02  0.16848480682E+02 -0.26774376130E+02  0.53325690306E+02  0.00000000000E+00 0. -1.
<scales pt_clust_5="13000.00000" pt_clust_6="13000.00000" pt_clust_7="13000.00000" pt_clust_8="13000.00000" pt_clust_9="13000.00000"></scales>
<clustering>
<clus scale="   91.113">  7  8 -1 -1</clus>
<clus scale="   91.179">  5  6 -1 -1</clus>
<clus scale="   46.117">  5  9 -1 -1</clus>
<clus scale="  102.105">  1  7  2 -1</clus>
<clus scale="  157.702">  2  5  1 -1</clus>
</clustering>
</event>
<event>
 9    1  0.3312826E-006  0.1688709E+03  0.7546771E-02  0.1201813E+00
         21   -1    0    0  501  502  0.00000000000E+00  0.00000000000E+00  0.15629760733E+03  0.15629760733E+03  0.00000000000E+00 0.  1.
          1   -1    0    0  502    0 -0.00000000000E+00 -0.00000000000E+00 -0.16040056911E+03  0.16040056911E+03  0.00000000000E+00 0. -1.
         23    2    1    2    0    0 -0.32539500682E+02  0.50308223905E+02 -0.81773713878E+02  0.13082157219E+03  0.82689823878E+02 0.  0.
         23    2    1    2    0    0  0.59075686652E+01  0.56801875285E+01  0.78227396241E+02  0.12387441178E+03  0.95698382810E+02 0.  0.
        -11    1    4    4    0    0  0.48451340811E+02  0.16082575641E+02  0.32295215760E+02  0.60408299318E+02  0.00000000000E+00 0.  1.
         11    1    4    4    0    0 -0.42543772145E+02 -0.10402388112E+02  0.45932180482E+02  0.63466112459E+02  0.00000000000E+00 0. -1.
        -13    1    3    3    0    0 -0.51001076797E+02  0.10849595278E+02 -0.66832290692E+02  0.84766612716E+02  0.00000000000E+00 0. -1.
         13    1    3    3    0    0  0.18461576115E+02  0.39458628627E+02 -0.14941423185E+02  0.46054959479E+02  0.00000000000E+00 0.  1.
          1    1    1    2  501    0  0.26631932016E+02 -0.55988411434E+02 -0.55664413722E+00  0.62002192465E+02  0.00000000000E+00 0. -1.
<scales pt_clust_5="13000.00000" pt_clust_6="13000.00000" pt_clust_7="13000.00000" pt_clust_8="13000.00000" pt_clust_9="13000.00000"></scales>
<clustering>
<clus scale="   82.690">  7  8 -1 -1</clus>
<clus scale="   95.698">  5  6 -1 -1</clus>
<clus scale="   62.000">  5  9 -1 -1</clus>
<clus scale="  102.114">  2  7  1 -1</clus>
<clus scale="  168.871">  1  5  2 -1</clus>
</clustering>
</event>
<event>
 9    1  0.3312826E-006  0.6824779E+03  0.7546771E-02  0.1004310E+00
         -3   -1    0    0    0  501 -0.00000000000E+00  0.00000000000E+00  0.10812571636E+04  0.10812571636E+04  0.00000000000E+00 0.  1.
         21   -1    0    0  501  502  0.00000000000E+00 -0.00000000000E+00 -0.20882692290E+03  0.20882692290E+03  0.00000000000E+00 0. -1.
         23    2    1    2    0    0 -0.21288636710E+03  0.13240436562E+03  0.18960330881E+03  0.32466773739E+03  0.81290858395E+02 0.  0.
         23    2    1    2    0    0  0.31592321245E+03 -0.31998842122E+03  0.53903800977E+03  0.70757992123E+03  0.88923017704E+02 0.  0.
        -13    1    4    4    0    0  0.29677405185E+03 -0.27458928335E+03  0.50834508125E+03  0.64952970218E+03  0.00000000000E+00 0. -1.
         13    1    4    4    0    0  0.19149160594E+02 -0.45399137870E+02  0.30692928517E+02  0.58050219050E+02  0.00000000000E+00 0.  1.
        -13    1    3    3    0    0 -0.15300955854E+03  0.53723232988E+02  0.13905610621E+03  0.21362282519E+03  0.00000000000E+00 0. -1.
         13    1    3    3    0    0 -0.59876808558E+02  0.78681132628E+02  0.50547202600E+02  0.11104491220E+03  0.00000000000E+00 0.  1.
         -3    1    1    2    0  502 -0.10303684535E+03  0.18758405560E+03  0.14378892213E+03  0.25783642788E+03  0.00000000000E+00 0.  1.
<scales pt_clust_5="13000.00000" pt_clust_6="13000.00000" pt_clust_7="13000.00000" pt_clust_8="13000.00000" pt_clust_9="13000.00000"></scales>
<clustering>
<clus scale="   81.291">  7  8 -1 -1</clus>
<clus scale="   88.923">  5  6 -1 -1</clus>
<clus scale="  214.020">  5  9 -1 -1</clus>
<clus scale="  263.552">  1  7  2 -1</clus>
<clus scale="  682.478">  2  5  1 -1</clus>
</clustering>
</event>
<event>
 9    1  0.3312826E-006  0.2579488E+03  0.7546771E-02  0.1129221E+00
         21   -1    0    0  501  502  0.00000000000E+00  0.00000000000E+00  0.44872314790E+03  0.44872314790E+03  0.00000000000E+00 0.  1.
          1   -1    0    0  502    0 -0.00000000000E+00 -0.00000000000E+00 -0.94126401555E+02  0.94126401555E+02  0.00000000000E+00 0. -1.
         23    2    1    2    0    0  0.75161331194E+02 -0.95975337556E+02  0.13746625349E+03  0.20568008694E+03  0.92449100530E+02 0.  0.
         23    2    1    2    0    0  0.17664102143E+02  0.12343229799E+03  0.95875392320E+02  0.18201391103E+03  0.91593778533E+02 0.  0.
        -13    1    3    3    0    0  0.70494407522E+02 -0.49983265369E+02  0.13383459702E+03  0.15930940860E+03  0.00000000000E+00 0.  1.
         13    1    3    3    0    0  0.46669236720E+01 -0.45992072188E+02  0.36316564659E+01  0.46370678336E+02  0.00000000000E+00 0. -1.
        -13    1    4    4    0    0  0.41915708154E+02  0.10010116918E+03  0.10066508335E+03  0.14802239583E+03  0.00000000000E+00 0.  1.
         13    1    4    4    0    0 -0.24251606011E+02  0.23331128810E+02 -0.47896910324E+01  0.33991515203E+02  0.00000000000E+00 0. -1.
          1    1    1    2  501    0 -0.92825433338E+02 -0.27456960430E+02  0.12125510054E+03  0.15515555148E+03  0.00000000000E+00 0. -1.
<scales pt_clust_5="13000.00000" pt_clust_6="13000.00000" pt_clust_7="13000.00000" pt_clust_8="13000.00000" pt_clust_9="13000.00000"></scales>
<clustering>
<clus scale="   91.594">  7  8 -1 -1</clus>
<clus scale="   92.449">  5  6 -1 -1</clus>
<clus scale="   96.801">  7  9 -1 -1</clus>
<clus scale="  152.995">  2  5  1 -1</clus>
<clus scale="  257.949">  1  5  2 -1</clus>
</clustering>
</event>
<event>
 9    1  0.3312826E-006  0.2053736E+03  0.7546771E-02  0.1170464E+00
         21   -1    0    0  501  502  0.00000000000E+00  0.00000000000E+00  0.25303526135E+03  0.25303526135E+03  0.00000000000E+00 0. -1.
          1   -1    0    0  502    0 -0.00000000000E+00 -0.00000000000E+00 -0.27539172578E+03  0.27539172578E+03  0.00000000000E+00 0. -1.
         23    2    1    2    0    0  0.60297417149E+02 -0.49905661348E+02 -0.21721543778E+03  0.24532217558E+03  0.82910010689E+02 0.  0.
         23    2    1    2    0    0  0.27541388966E+02  0.19002015591E+02  0.15285608729E+03  0.18095328871E+03  0.90881816491E+02 0.  0.
        -13    1    4    4    0    0 -0.12634044447E+02  0.24127329465E+02  0.50507498003E+01  0.27699407570E+02  0.00000000000E+00 0.  1.
         13    1    4    4    0    0  0.40175433413E+02 -0.51253138742E+01  0.14780533749E+03  0.15325388114E+03  0.00000000000E+00 0. -1.
        -13    1    3    3    0    0 -0.49791088775E+01 -0.40153440539E+02 -0.43094433466E+02  0.59111932028E+02  0.00000000000E+00 0.  1.
         13    1    3    3    0    0  0.65276526027E+02 -0.97522208092E+01 -0.17412100432E+03  0.18621024355E+03  0.00000000000E+00 0. -1.
          1    1    1    2  501    0 -0.87838806115E+02  0.30903645757E+02  0.42002886066E+02  0.10215152284E+03  0.00000000000E+00 0. -1.
<scales pt_clust_5="13000.00000" pt_clust_6="13000.00000" pt_clust_7="13000.00000" pt_clust_8="13000.00000" pt_clust_9="13000.00000"></scales>
<clustering>
<clus scale="   82.910">  7  8 -1 -1</clus>
<clus scale="   90.882">  5  6 -1 -1</clus>
<clus scale="   93.117">  5  9 -1 -1</clus>
<clus scale="  114.019">  2  7  1 -1</clus>
<clus scale="  205.374">  1  5  2 -1</clus>
</clustering>
</event>
<event>
 9    1  0.3312826E-006  0.2005019E+03  0.7546771E-02  0.1175706E+00
         21   -1    0    0  501  502  0.00000000000E+00  0.00000000000E+00  0.76267427438E+02  0.76267427438E+02  0.00000000000E+00 0. -1.
          1   -1    0    0  502    0 -0.00000000000E+00 -0.00000000000E+00 -0.35398946059E+03  0.35398946059E+03  0.00000000000E+00 0. -1.
         23    2    1    2    0    0 -0.51626017971E+02  0.22395771603E+02 -0.17223196938E+03  0.20369744298E+03  0.93069762459E+02 0.  0.
         23    2    1    2    0    0 -0.15761511335E+02  0.41515785866E+02 -0.85352080796E+02  0.13152626852E+03  0.89678291118E+02 0.  0.
        -11    1    3    3    0    0 -0.56135648111E+02 -0.12426061695E+02 -0.48940707237E+02  0.75503713967E+02  0.00000000000E+00 0. -1.
         11    1    3    3    0    0  0.45096301400E+01  0.34821833298E+02 -0.12329126214E+03  0.12819372901E+03  0.00000000000E+00 0.  1.
        -11    1    4    4    0    0 -0.23952289856E+02 -0.18805283250E+02 -0.56447438082E+02  0.64137852580E+02  0.00000000000E+00 0. -1.
         11    1    4    4    0    0  0.81907785216E+01  0.60321069115E+02 -0.28904642713E+02  0.67388415936E+02  0.00000000000E+00 0.  1.
          1    1    1    2  501    0  0.67387529305E+02 -0.63911557468E+02 -0.20137982983E+02  0.95033176536E+02  0.00000000000E+00 0. -1.
<scales pt_clust_5="13000.00000" pt_clust_6="13000.00000" pt_clust_7="13000.00000" pt_clust_8="13000.00000" pt_clust_9="13000.00000"></scales>
<clustering>
<clus scale="   89.678">  7  8 -1 -1</clus>
<clus scale="   92.875">  7  9 -1 -1</clus>
<clus scale="   93.070">  5  6 -1 -1</clus>
<clus scale="  108.760">  2  5  1 -1</clus>
<clus scale="  200.502">  1  5  2 -1</clus>
</clustering>
</event>
<event>
 9    1  0.3312826E-006  0.1577168E+03  0.7546771E-02  0.1213768E+00
          1   -1    0    0  502    0 -0.00000000000E+00  0.00000000000E+00  0.10410096121E+03  0.10410096121E+03  0.00000000000E+00 0. -1.
         21   -1    0    0  501  502  0.00000000000E+00 -0.00000000000E+00 -0.15679344394E+03  0.15679344394E+03  0.00000000000E+00 0.  1.
         23    2    1    2    0    0  0.21821012332E+02  0.24388291666E+02 -0.30048207601E+02  0.10156035040E+03  0.91327239330E+02 0.  0.
         23    2    1    2    0    0 -0.25230433155E+02 -0.50825270466E+02  0.21167721177E+02  0.10805024620E+03  0.89481844020E+02 0.  0.
        -11    1    4    4    0    0  0.14163074118E+02 -0.62897099719E+02  0.90534866362E+01  0.65104557765E+02  0.00000000000E+00 0. -1.
         11    1    4    4    0    0 -0.39393507273E+02  0.12071829253E+02  0.12114234541E+02  0.42945688436E+02  0.00000000000E+00 0.  1.
        -13    1    3    3    0    0  0.11002398119E+02 -0.25854816642E+02  0.16188505494E+02  0.32428259560E+02  0.00000000000E+00 0. -1.
         13    1    3    3    0    0  0.10818614214E+02  0.50243108308E+02 -0.46236713095E+02  0.69132090839E+02  0.00000000000E+00 0.  1.
          1    1    1    2  501    0  0.34094208223E+01  0.26436978800E+02 -0.43811996313E+02  0.51283808550E+02  0.00000000000E+00 0. -1.
<scales pt_clust_5="13000.00000" pt_clust_6="13000.00000" pt_clust_7="13000.00000" pt_clust_8="13000.00000" pt_clust_9="13000.00000"></scales>
<clustering>
<clus scale="   89.482">  5  6 -1 -1</clus>
<clus scale="   26.656">  5  9 -1 -1</clus>
<clus scale="   91.327">  7  8 -1 -1</clus>
<clus scale="   97.014">  1  7  2 -1</clus>
<clus scale="  157.717">  2  5  1 -1</clus>
</clustering>
</event>
<event>
 9    1  0.3312826E-006  0.1719578E+03  0.7546771E-02  0.1197767E+00
         21   -1    0    0  501  502  0.00000000000E+00  0.00000000000E+00  0.29922185195E+02  0.29922185195E+02  0.00000000000E+00 0. -1.
          2   -1    0    0  502    0 -0.00000000000E+00 -0.00000000000E+00 -0.79358936353E+03  0.79358936353E+03  0.00000000000E+00 0.  1.
         23    2    1    2    0    0 -0.50514442789E+02 -0.12929641542E+01 -0.48256886768E+03  0.49398803011E+03  0.92725838604E+02 0.  0.
         23    2    1    2    0    0  0.59751051558E+02  0.26778047609E+02 -0.28030707493E+03  0.30240469721E+03  0.92678436774E+02 0.  0.
        -11    1    4    4    0    0 -0.23430044756E+02 -0.54397012019E+01 -0.52151737747E+02  0.57431359870E+02  0.00000000000E+00 0. -1.
         11    1    4    4    0    0  0.83181096314E+02  0.32217748811E+02 -0.22815533719E+03  0.24497333734E+03  0.00000000000E+00 0.  1.
        -13    1    3    3    0    0 -0.72651042442E+01 -0.42293048969E+02 -0.14568486182E+03  0.15187350886E+03  0.00000000000E+00 0.  1.
         13    1    3    3    0    0 -0.43249338545E+02  0.41000084814E+02 -0.33688400587E+03  0.34211452125E+03  0.00000000000E+00 0. -1.
          2    1    1    2  501    0 -0.92366087692E+01 -0.25485083455E+02 -0.79123571480E+00  0.27118821402E+02  0.00000000000E+00 0.  1.
<scales pt_clust_5="13000.00000" pt_clust_6="13000.00000" pt_clust_7="13000.00000" pt_clust_8="13000.00000" pt_clust_9="13000.00000"></scales>
<clustering>
<clus scale="   92.678">  5  6 -1 -1</clus>
<clus scale="   27.107">  5  9 -1 -1</clus>
<clus scale="   92.726">  7  8 -1 -1</clus>
<clus scale="  105.600">  2  7  1 -1</clus>
<clus scale="  171.958">  1  5  2 -1</clus>
</clustering>
</event>
<event>
 9    1  0.3312826E-006  0.3525655E+03  0.7546771E-02  0.1105043E+00
         21   -1    0    0  501  502  0.00000000000E+00  0.00000000000E+00  0.10725662982E+04  0.10725662982E+04  0.00000000000E+00 0. -1.
         -1   -1    0    0    0  501 -0.00000000000E+00 -0.00000000000E+00 -0.58603971794E+02  0.58603971794E+02  0.00000000000E+00 0.  1.
         23    2    1    2    0    0 -0.41921110647E+02 -0.43870373550E+02  0.89787624080E+02  0.14202857508E+03  0.91805825024E+02 0.  0.
         23    2    1    2    0    0  0.73549226055E+02 -0.82193980668E+02  0.16360154981E+03  0.21754330235E+03  0.91620315341E+02 0.  0.
        -13    1    3    3    0    0 -0.46791605865E+02 -0.68412191961E+02  0.79901808890E+02  0.11512593736E+03  0.00000000000E+00 0.  1.
         13    1    3    3    0    0  0.48704952180E+01  0.24541818411E+02  0.98858151907E+01  0.26902637725E+02  0.00000000000E+00 0. -1.
        -13    1    4    4    0    0  0.10732527733E+02 -0.52399956889E+02  0.12948890784E+03  0.14010110595E+03  0.00000000000E+00 0. -1.
         13    1    4    4    0    0  0.62816698322E+02 -0.29794023779E+02  0.34112641974E+02  0.77442196402E+02  0.00000000000E+00 0.  1.
         -1    1    1    2    0  502 -0.31628115408E+02  0.12606435422E+03  0.76057315253E+03  0.77159839259E+03  0.00000000000E+00 0.  1.
<scales pt_clust_5="13000.00000" pt_clust_6="13000.00000" pt_clust_7="13000.00000" pt_clust_8="13000.00000" pt_clust_9="13000.00000"></scales>
<clustering>
<clus scale="   91.620">  7  8 -1 -1</clus>
<clus scale="   91.806">  5  6 -1 -1</clus>
<clus scale="  110.047">  2  5  1 -1</clus>
<clus scale="  124.786">  7  9 -1 -1</clus>
<clus scale="  352.565">  1  5  2 -1</clus>
</clustering>
</event>
<event>
 9    1  0.3312826E-006  0.1485969E+03  0.7546771E-02  0.1220285E+00
          2   -1    0    0  502    0 -0.00000000000E+00  0.00000000000E+00  0.30753407320E+03  0.30753407320E+03  0.00000000000E+00 0. -1.
         21   -1    0    0  501  502  0.00000000000E+00 -0.00000000000E+00 -0.71199082799E+02  0.71199082799E+02  0.00000000000E+00 0. -1.
         23    2    1    2    0    0 -0.41266831071E+02  0.72927447853E+00  0.18234852623E+01  0.10110628554E+03  0.92280402522E+02 0.  0.
         23    2    1    2    0    0  0.28499813382E+02  0.40055929973E+02  0.14056508121E+03  0.17441659862E+03  0.90806888127E+02 0.  0.
        -11    1    4    4    0    0  0.51059935066E+02  0.34119191394E+02  0.45230909230E+02  0.76269727547E+02  0.00000000000E+00 0.  1.
         11    1    4    4    0    0 -0.22560121684E+02  0.59367385787E+01  0.95334171978E+02  0.98146871076E+02  0.00000000000E+00 0. -1.
        -11    1    3    3    0    0 -0.66357145489E+02  0.21253636588E+01 -0.18351126875E+02  0.68880706920E+02  0.00000000000E+00 0. -1.
         11    1    3    3    0    0  0.25090314419E+02 -0.13960891803E+01  0.20174612137E+02  0.32225578622E+02  0.00000000000E+00 0.  1.
          2    1    1    2  501    0  0.12767017689E+02 -0.40785204451E+02  0.93946423932E+02  0.10321027184E+03  0.00000000000E+00 0. -1.
<scales pt_clust_5="13000.00000" pt_clust_6="13000.00000" pt_clust_7="13000.00000" pt_clust_8="13000.00000" pt_clust_9="13000.00000"></scales>
<clustering>
<clus scale="   90.807">  5  6 -1 -1</clus>
<clus scale="   42.737">  5  9 -1 -1</clus>
<clus scale="   92.280">  7  8 -1 -1</clus>
<clus scale="  101.090">  1  7  2 -1</clus>
<clus scale="  148.597">  2  5  1 -1</clus>
</clustering>
</event>
<event>
 9    1  0.3312826E-006  0.3227410E+03  0.7546771E-02  0.1107295E+00
         21   -1    0    0  501  502  0.00000000000E+00  0.00000000000E+00  0.74799753300E+02  0.74799753300E+02  0.00000000000E+00 0. -1.
         -1   -1    0    0    0  501 -0.00000000000E+00 -0.00000000000E+00 -0.10498197391E+04  0.10498197391E+04  0.00000000000E+00 0.  1.
         23    2    1    2    0    0 -0.98803979426E+02  0.24504938373E+02 -0.65955298839E+03  0.67330900631E+03  0.89286925833E+02 0.  0.
         23    2    1    2    0    0  0.15698575878E+03 -0.11327629012E+03 -0.23725262172E+03  0.31946602886E+03  0.91069702550E+02 0.  0.
        -13    1    3    3    0    0 -0.98178475052E+02 -0.11575073502E+02 -0.45750396005E+03  0.46806288974E+03  0.00000000000E+00 0.  1.
         13    1    3    3    0    0 -0.62550437317E+00  0.36080011876E+02 -0.20204902834E+03  0.20524611657E+03  0.00000000000E+00 0. -1.
        -13    1    4    4    0    0  0.11770022115E+03 -0.79479311808E+02 -0.10265880117E+03  0.17524021377E+03  0.00000000000E+00 0. -1.
         13    1    4    4    0    0  0.39285537627E+02 -0.33796978313E+02 -0.13459382055E+03  0.14422581509E+03  0.00000000000E+00 0.  1.
         -1    1    1    2    0  502 -0.58181779350E+02  0.88771351748E+02 -0.78214375706E+02  0.13184445725E+03  0.00000000000E+00 0.  1.
<scales pt_clust_5="13000.00000" pt_clust_6="13000.00000" pt_clust_7="13000.00000" pt_clust_8="13000.00000" pt_clust_9="13000.00000"></scales>
<clustering>
<clus scale="   89.287">  5  6 -1 -1</clus>
<clus scale="   91.070">  7  8 -1 -1</clus>
<clus scale="  106.139">  7  9 -1 -1</clus>
<clus scale="  135.406">  2  5  1 -1</clus>
<clus scale="  322.741">  1  5  2 -1</clus>
</clustering>
</event>
<event>
 9    1  0.3312826E-006  0.2307520E+03  0.7546771E-02  0.1153176E+00
          1   -1    0    0  502    0 -0.00000000000E+00  0.00000000000E+00  0.56865258956E+03  0.56865258956E+03  0.00000000000E+00 0. -1.
         21   -1    0    0  501  502  0.00000000000E+00 -0.00000000000E+00 -0.70616862452E+02  0.70616862452E+02  0.00000000000E+00 0. -1.
         23    2    1    2    0    0  0.47246938721E+02  0.61979404209E+02  0.33735937480E+03  0.35808734076E+03  0.91331681682E+02 0.  0.
         23    2    1    2    0    0 -0.63582897815E+02 -0.20308286779E+02  0.19448813020E+03  0.22508770947E+03  0.91562179741E+02 0.  0.
        -11    1    4    4    0    0 -0.66674681975E+02 -0.46440899948E+02  0.11107668476E+03  0.13762376358E+03  0.00000000000E+00 0.  1.
         11    1    4    4    0    0  0.30917841595E+01  0.26132613169E+02  0.83411445440E+02  0.87463945891E+02  0.00000000000E+00 0. -1.
        -13    1    3    3    0    0  0.62768537084E+02  0.25549550471E+02  0.28196572938E+03  0.28999541603E+03  0.00000000000E+00 0. -1.
         13    1    3    3    0    0 -0.15521598363E+02  0.36429853738E+02  0.55393645425E+02  0.68091924724E+02  0.00000000000E+00 0.  1.
          1    1    1    2  501    0  0.16335959094E+02 -0.41671117430E+02 -0.33811777893E+02  0.56094401786E+02  0.00000000000E+00 0. -1.
<scales pt_clust_5="13000.00000" pt_clust_6="13000.00000" pt_clust_7="13000.00000" pt_clust_8="13000.00000" pt_clust_9="13000.00000"></scales>
<clustering>
<clus scale="   91.332">  7  8 -1 -1</clus>
<clus scale="   91.562">  5  6 -1 -1</clus>
<clus scale="   44.759">  5  9 -1 -1</clus>
<clus scale="  120.063">  1  7  2 -1</clus>
<clus scale="  230.752">  2  5  1 -1</clus>
</clustering>
</event>
<event>
 9    1  0.3312826E-006  0.2137706E+03  0.7546771E-02  0.1165614E+00
          4   -1    0    0  502    0 -0.00000000000E+00  0.00000000000E+00  0.23921228676E+03  0.23921228676E+03  0.00000000000E+00 0. -1.
         21   -1    0    0  501  502  0.00000000000E+00 -0.00000000000E+00 -0.22171858655E+03  0.22171858655E+03  0.00000000000E+00 0. -1.
         23    2    1    2    0    0  0.49146449802E+02 -0.18929670440E+02 -0.15109410136E+03  0.18868151912E+03  0.99987910470E+02 0.  0.
         23    2    1    2    0    0 -0.42282279255E+02 -0.48911965178E+02  0.17031299726E+03  0.20403952601E+03  0.91899073237E+02 0.  0.
        -11    1    4    4    0    0  0.27919027412E+02 -0.23237296359E+02  0.70858728075E+02  0.79626649924E+02  0.00000000000E+00 0.  1.
         11    1    4    4    0    0 -0.70201306667E+02 -0.25674668819E+02  0.99454269187E+02  0.12441287609E+03  0.00000000000E+00 0. -1.
        -13    1    3    3    0    0  0.54917027805E+02 -0.51734959169E+02 -0.12644606965E+03  0.14724467553E+03  0.00000000000E+00 0. -1.
         13    1    3    3    0    0 -0.57705780026E+01  0.32805288729E+02 -0.24648031709E+02  0.41436843584E+02  0.00000000000E+00 0.  1.
          4    1    1    2  501    0 -0.68641705470E+01  0.67841635618E+02 -0.17251956972E+01  0.68209828184E+02  0.00000000000E+00 0. -1.
<scales pt_clust_5="13000.00000" pt_clust_6="13000.00000" pt_clust_7="13000.00000" pt_clust_8="13000.00000" pt_clust_9="13000.00000"></scales>
<clustering>
<clus scale="   91.899">  5  6 -1 -1</clus>
<clus scale="   68.188">  5  9 -1 -1</clus>
<clus scale="   99.988">  7  8 -1 -1</clus>
<clus scale="  113.010">  1  7  2 -1</clus>
<clus scale="  213.771">  2  5  1 -1</clus>
</clustering>
</event>
<event>
 9    1  0.3312826E-006  0.3493325E+03  0.7546771E-02  0.1102786E+00
          4   -1    0    0  502    0 -0.00000000000E+00  0.00000000000E+00  0.35714118935E+03  0.35714118935E+03  0.00000000000E+00 0. -1.
         21   -1    0    0  501  502  0.00000000000E+00 -0.00000000000E+00 -0.15445693097E+03  0.15445693097E+03  0.00000000000E+00 0.  1.
         23    2    1    2    0    0  0.72975610356E+02 -0.10527497798E+02  0.41588312443E+02  0.12690983131E+03  0.94552893310E+02 0.  0.
         23    2    1    2    0    0 -0.10157285435E+03 -0.84712354874E+01  0.25202723789E+03  0.28749130301E+03  0.93513176066E+02 0.  0.
        -13    1    3    3    0    0  0.31447380492E+01  0.31416576302E+02  0.31888175414E+02  0.44874785516E+02  0.00000000000E+00 0. -1.
         13    1    3    3    0    0  0.69830872307E+02 -0.41944074100E+02  0.97001370293E+01  0.82035045789E+02  0.00000000000E+00 0.  1.
        -13    1    4    4    0    0 -0.13604814098E+02 -0.35384248588E+02  0.34284466206E+02  0.51113213926E+02  0.00000000000E+00 0.  1.
         13    1    4    4    0    0 -0.87968040251E+02  0.26913013100E+02  0.21774277168E+03  0.23637808909E+03  0.00000000000E+00 0. -1.
          4    1    1    2  501    0  0.28597243993E+02  0.18998733286E+02 -0.90931291961E+02  0.97196986003E+02  0.00000000000E+00 0. -1.
<scales pt_clust_5="13000.00000" pt_clust_6="13000.00000" pt_clust_7="13000.00000" pt_clust_8="13000.00000" pt_clust_9="13000.00000"></scales>
<clustering>
<clus scale="   93.513">  7  8 -1 -1</clus>
<clus scale="   34.333">  7  9 -1 -1</clus>
<clus scale="   94.553">  5  6 -1 -1</clus>
<clus scale="  119.902">  1  5  2 -1</clus>
<clus scale="  349.332">  2  5  1 -1</clus>
</clustering>
</event>
<event>
 9    1  0.3705188E-006  0.7669751E+03  0.7546771E-02  0.1018784E+00
          1   -1    0    0  502    0 -0.00000000000E+00  0.00000000000E+00  0.42597259696E+03  0.42597259696E+03  0.00000000000E+00 0. -1.
         21   -1    0    0  501  502  0.00000000000E+00 -0.00000000000E+00 -0.61674788427E+03  0.61674788427E+03  0.00000000000E+00 0. -1.
         23    2    1    2    0    0  0.32725918531E+02  0.63446869990E+02  0.15998766560E+03  0.19934303075E+03  0.95105729111E+02 0.  0.
         23    2    1    2    0    0  0.44134481700E+02  0.65892777900E+02  0.22189311970E+03  0.25128688043E+03  0.87285904079E+02 0.  0.
        -11    1    4    4    0    0  0.26085536521E+02  0.84225377127E+02  0.14003823101E+03  0.16548436637E+03  0.00000000000E+00 0. -1.
         11    1    4    4    0    0  0.18048945179E+02 -0.18332599228E+02  0.81854888691E+02  0.85802514060E+02  0.00000000000E+00 0.  1.
        -11    1    3    3    0    0  0.53156218641E+02  0.54560355067E+02  0.15984046992E+03  0.17706324223E+03  0.00000000000E+00 0.  1.
         11    1    3    3    0    0 -0.20430300110E+02  0.88865149235E+01  0.14719568370E+00  0.22279788523E+02  0.00000000000E+00 0. -1.
          1    1    1    2  501    0 -0.76860400231E+02 -0.12933964789E+03 -0.57265607261E+03  0.59209057005E+03  0.00000000000E+00 0. -1.
<scales pt_clust_5="13000.00000" pt_clust_6="13000.00000" pt_clust_7="13000.00000" pt_clust_8="13000.00000" pt_clust_9="13000.00000"></scales>
<clustering>
<clus scale="   87.286">  5  6 -1 -1</clus>
<clus scale="   95.106">  7  8 -1 -1</clus>
<clus scale="  118.918">  1  7  2 -1</clus>
<clus scale="  147.642">  5  9 -1 -1</clus>
<clus scale="  766.975">  2  5  1 -1</clus>
</clustering>
</event>
<event>
 9    1  0.3312826E-006  0.1248067E+03  0.7546771E-02  0.1250490E+00
          1   -1    0    0  502    0 -0.00000000000E+00  0.00000000000E+00  0.10190783999E+03  0.10190783999E+03  0.00000000000E+00 0. -1.
         21   -1    0    0  501  502  0.00000000000E+00 -0.00000000000E+00 -0.15312775727E+03  0.15312775727E+03  0.00000000000E+00 0.  1.
         23    2    1    2    0    0  0.38674545424E+02 -0.23952122357E+02  0.40179566531E+02  0.10034044400E+03  0.79902331042E+02 0.  0.
         23    2    1    2    0    0 -0.37733335393E+02  0.27622825776E+01 -0.56345353293E+02  0.11372336720E+03  0.91251140297E+02 0.  0.
        -11    1    4    4    0    0 -0.17321803711E+02  0.41974430613E+02 -0.45614035554E+01  0.45636653158E+02  0.00000000000E+00 0. -1.
         11    1    4    4    0    0 -0.20411531681E+02 -0.39212148035E+02 -0.51783949738E+02  0.68086714046E+02  0.00000000000E+00 0.  1.
        -11    1    3    3    0    0  0.17884299666E+02  0.18510935580E+02  0.45992535765E+02  0.52704992711E+02  0.00000000000E+00 0. -1.
         11    1    3    3    0    0  0.20790245758E+02 -0.42463057937E+02 -0.58129692333E+01  0.47635451287E+02  0.00000000000E+00 0.  1.
          1    1    1    2  501    0 -0.94121003090E+00  0.21189839779E+02 -0.35054130517E+02  0.40971786054E+02  0.00000000000E+00 0. -1.
<scales pt_clust_5="13000.00000" pt_clust_6="13000.00000" pt_clust_7="13000.00000" pt_clust_8="13000.00000" pt_clust_9="13000.00000"></scales>
<clustering>
<clus scale="   79.902">  7  8 -1 -1</clus>
<clus scale="   91.251">  5  6 -1 -1</clus>
<clus scale="   21.211">  5  9 -1 -1</clus>
<clus scale="   91.945">  1  7  2 -1</clus>
<clus scale="  124.807">  2  5  1 -1</clus>
</clustering>
</event>
<event>
 9    1  0.3312826E-006  0.2250072E+03  0.7546771E-02  0.1163738E+00
         21   -1    0    0  501  502  0.00000000000E+00  0.00000000000E+00  0.65020109607E+02  0.65020109607E+02  0.00000000000E+00 0. -1.
          3   -1    0    0  502    0 -0.00000000000E+00 -0.00000000000E+00 -0.44481844110E+03  0.44481844110E+03  0.00000000000E+00 0. -1.
         23    2    1    2    0    0  0.40960478058E+02 -0.21244912023E+02 -0.19083975095E+03  0.21601273921E+03  0.90069894562E+02 0.  0.
         23    2    1    2    0    0  0.32002033654E+02 -0.27448460011E+02 -0.17983291000E+03  0.20563368907E+03  0.90375828877E+02 0.  0.
        -13    1    3    3    0    0 -0.63036516422E+01  0.27249260325E+02 -0.27642059313E+02  0.39323550900E+02  0.00000000000E+00 0.  1.
         13    1    3    3    0    0  0.47264129700E+02 -0.48494172349E+02 -0.16319769164E+03  0.17668918831E+03  0.00000000000E+00 0. -1.
        -13    1    4    4    0    0  0.83479698923E+00 -0.55564397566E+02 -0.80722875070E+02  0.98001437349E+02  0.00000000000E+00 0. -1.
         13    1    4    4    0    0  0.31167236665E+02  0.28115937555E+02 -0.99110034935E+02  0.10763225172E+03  0.00000000000E+00 0.  1.
          3    1    1    2  501    0 -0.72962511712E+02  0.48693372035E+02 -0.91256705321E+01  0.88192122426E+02  0.00000000000E+00 0. -1.
<scales pt_clust_5="13000.00000" pt_clust_6="13000.00000" pt_clust_7="13000.00000" pt_clust_8="13000.00000" pt_clust_9="13000.00000"></scales>
<clustering>
<clus scale="   90.070">  5  6 -1 -1</clus>
<clus scale="   90.376">  7  8 -1 -1</clus>
<clus scale="   87.719">  7  9 -1 -1</clus>
<clus scale="  101.201">  2  5  1 -1</clus>
<clus scale="  225.007">  1  5  2 -1</clus>
</clustering>
</event>
<event>
 9    1  0.3312826E-006  0.2959478E+03  0.7546771E-02  0.1124527E+00
          2   -1    0    0  502    0 -0.00000000000E+00  0.00000000000E+00  0.10692073318E+03  0.10692073318E+03  0.00000000000E+00 0. -1.
         21   -1    0    0  501  502  0.00000000000E+00 -0.00000000000E+00 -0.41538338866E+03  0.41538338866E+03  0.00000000000E+00 0. -1.
         23    2    1    2    0    0 -0.55541539659E+02 -0.40054716543E+02 -0.34136904361E+02  0.11877008756E+03  0.90839212431E+02 0.  0.
         23    2    1    2    0    0  0.10224158410E+03  0.52885499439E+02 -0.35559179353E+02  0.15990522044E+03  0.10514279203E+03 0.  0.
        -11    1    3    3    0    0 -0.77582051939E+02 -0.22467767953E+02 -0.95012737443E+01  0.81326807282E+02  0.00000000000E+00 0.  1.
         11    1    3    3    0    0  0.22040512280E+02 -0.17586948590E+02 -0.24635630616E+02  0.37443280280E+02  0.00000000000E+00 0. -1.
        -13    1    4    4    0    0  0.82447485046E+02  0.68289112499E+02 -0.61793806431E+02  0.12361013385E+03  0.00000000000E+00 0. -1.
         13    1    4    4    0    0  0.19794099054E+02 -0.15403613060E+02  0.26234627078E+02  0.36295086590E+02  0.00000000000E+00 0.  1.
          2    1    1    2  501    0 -0.46700044441E+02 -0.12830782896E+02 -0.23876657177E+03  0.24362881384E+03  0.00000000000E+00 0. -1.
<scales pt_clust_5="13000.00000" pt_clust_6="13000.00000" pt_clust_7="13000.00000" pt_clust_8="13000.00000" pt_clust_9="13000.00000"></scales>
<clustering>
<clus scale="   90.839">  5  6 -1 -1</clus>
<clus scale="  105.143">  7  8 -1 -1</clus>
<clus scale="   48.431">  7  9 -1 -1</clus>
<clus scale="  113.759">  1  5  2 -1</clus>
<clus scale="  295.948">  2  5  1 -1</clus>
</clustering>
</event>
<event>
 9    1  0.3312826E-006  0.1989206E+03  0.7546771E-02  0.1175136E+00
          2   -1    0    0  502    0 -0.00000000000E+00  0.00000000000E+00  0.52434751632E+03  0.52434751632E+03  0.00000000000E+00 0. -1.
         21   -1    0    0  501  502  0.00000000000E+00 -0.00000000000E+00 -0.48390210767E+02  0.48390210767E+02  0.00000000000E+00 0.  1.
         23    2    1    2    0    0 -0.64243852114E+02 -0.19676287957E+02  0.11822641644E+03  0.16342026286E+03  0.90632598587E+02 0.  0.
         23    2    1    2    0    0  0.39274669512E+02  0.13913853005E+02  0.36427979287E+03  0.38286838339E+03  0.11023763666E+03 0.  0.
        -11    1    4    4    0    0  0.63260646401E+02  0.21795152039E+02  0.34410604481E+03  0.35055086380E+03  0.00000000000E+00 0. -1.
         11    1    4    4    0    0 -0.23985976890E+02 -0.78812990340E+01  0.20173748064E+02  0.32317519595E+02  0.00000000000E+00 0.  1.
        -13    1    3    3    0    0  0.13170147735E+02 -0.26198364681E+02  0.58462778498E+02  0.65404155625E+02  0.00000000000E+00 0. -1.
         13    1    3    3    0    0 -0.77413999849E+02  0.65220767240E+01  0.59763637945E+02  0.98016107237E+02  0.00000000000E+00 0.  1.
          2    1    1    2  501    0  0.24969182602E+02  0.57624349517E+01 -0.65489037627E+01  0.26449080833E+02  0.00000000000E+00 0. -1.
<scales pt_clust_5="13000.00000" pt_clust_6="13000.00000" pt_clust_7="13000.00000" pt_clust_8="13000.00000" pt_clust_9="13000.00000"></scales>
<clustering>
<clus scale="   90.633">  7  8 -1 -1</clus>
<clus scale="  110.238">  5  6 -1 -1</clus>
<clus scale="   25.626">  5  9 -1 -1</clus>
<clus scale="  112.822">  1  7  2 -1</clus>
<clus scale="  198.921">  2  5  1 -1</clus>
</clustering>
</event>
<event>
 9    1  0.3312826E-006  0.2873780E+03  0.7546771E-02  0.1120677E+00
          2   -1    0    0  502    0 -0.00000000000E+00  0.00000000000E+00  0.67303496599E+03  0.67303496599E+03  0.00000000000E+00 0.  1.
         21   -1    0    0  501  502  0.00000000000E+00 -0.00000000000E+00 -0.81122313463E+02  0.81122313463E+02  0.00000000000E+00 0.  1.
         23    2    1    2    0    0  0.34111165671E+02  0.98227461023E+02  0.35928682972E+03  0.38442642035E+03  0.88794374437E+02 0.  0.
         23    2    1    2    0    0 -0.57997346520E+02  0.31563873260E+02  0.20708303762E+03  0.23531071937E+03  0.90154200579E+02 0.  0.
        -11    1    4    4    0    0 -0.30260308074E+02  0.51955566756E+02  0.62658558121E+02  0.86839864506E+02  0.00000000000E+00 0.  1.
         11    1    4    4    0    0 -0.27737038446E+02 -0.20391693496E+02  0.14442447950E+03  0.14847085486E+03  0.00000000000E+00 0. -1.
        -13    1    3    3    0    0  0.15510526078E+02  0.32854469870E+02  0.27016246897E+02  0.45275492334E+02  0.00000000000E+00 0. -1.
         13    1    3    3    0    0  0.18600639593E+02  0.65372991153E+02  0.33227058283E+03  0.33915092802E+03  0.00000000000E+00 0.  1.
          2    1    1    2  501    0  0.23886180849E+02 -0.12979133428E+03  0.25542785189E+02  0.13442013973E+03  0.00000000000E+00 0.  1.
<scales pt_clust_5="13000.00000" pt_clust_6="13000.00000" pt_clust_7="13000.00000" pt_clust_8="13000.00000" pt_clust_9="13000.00000"></scales>
<clustering>
<clus scale="   88.794">  7  8 -1 -1</clus>
<clus scale="   90.154">  5  6 -1 -1</clus>
<clus scale="  131.971">  5  9 -1 -1</clus>
<clus scale="  136.736">  1  7  2 -1</clus>
<clus scale="  287.378">  2  5  1 -1</clus>
</clustering>
</event>
<event>
 9    1  0.3312826E-006  0.2689478E+03  0.7546771E-02  0.1121889E+00
         21   -1    0    0  501  502  0.00000000000E+00  0.00000000000E+00  0.75912489300E+02  0.75912489300E+02  0.00000000000E+00 0.  1.
         -1   -1    0    0    0  501 -0.00000000000E+00 -0.00000000000E+00 -0.64106657629E+03  0.64106657629E+03  0.00000000000E+00 0.  1.
         23    2    1    2    0    0 -0.12769456033E+03 -0.45026040576E+02 -0.29068200047E+03  0.33270332228E+03  0.88669217838E+02 0.  0.
         23    2    1    2    0    0 -0.18563009825E+02  0.35375006431E+02 -0.19124345371E+03  0.21571885497E+03  0.91458129143E+02 0.  0.
        -11    1    3    3    0    0 -0.85143675828E+02 -0.69813453902E+02 -0.17216411218E+03  0.20436204492E+03  0.00000000000E+00 0.  1.
         11    1    3    3    0    0 -0.42550884503E+02  0.24787413326E+02 -0.11851788829E+03  0.12834127736E+03  0.00000000000E+00 0. -1.
        -11    1    4    4    0    0 -0.32033836244E+02  0.59044708965E+02 -0.99766579259E+02  0.12027391512E+03  0.00000000000E+00 0. -1.
         11    1    4    4    0    0  0.13470826419E+02 -0.23669702534E+02 -0.91476874454E+02  0.95444939846E+02  0.00000000000E+00 0.  1.
         -1    1    1    2    0  502  0.14625757016E+03  0.96510341446E+01 -0.83228632803E+02  0.16855688834E+03  0.00000000000E+00 0.  1.
<scales pt_clust_5="13000.00000" pt_clust_6="13000.00000" pt_clust_7="13000.00000" pt_clust_8="13000.00000" pt_clust_9="13000.00000"></scales>
<clustering>
<clus scale="   88.669">  5  6 -1 -1</clus>
<clus scale="   91.458">  7  8 -1 -1</clus>
<clus scale="  146.576">  7  9 -1 -1</clus>
<clus scale="  161.850">  2  5  1 -1</clus>
<clus scale="  268.948">  1  5  2 -1</clus>
</clustering>
</event>
<event>
 9    1  0.3312826E-006  0.3171499E+03  0.7546771E-02  0.1095207E+00
         21   -1    0    0  501  502  0.00000000000E+00  0.00000000000E+00  0.14188094311E+04  0.14188094311E+04  0.00000000000E+00 0. -1.
          2   -1    0    0  502    0 -0.00000000000E+00 -0.00000000000E+00 -0.46552714060E+02  0.46552714060E+02  0.00000000000E+00 0. -1.
         23    2    1    2    0    0 -0.14809468831E+03 -0.84961231121E+02  0.46550998896E+03  0.50475104810E+03  0.94464931269E+02 0.  0.
         23    2    1    2    0    0  0.58949275377E+02 -0.54927709220E+02  0.19097741811E+03  0.22587201046E+03  0.89742523784E+02 0.  0.
        -13    1    4    4    0    0 -0.13069880774E+00  0.22478031120E+02  0.26692392420E+02  0.34896457962E+02  0.00000000000E+00 0.  1.
         13    1    4    4    0    0  0.59079974185E+02 -0.77405740339E+02  0.16428502569E+03  0.19097555250E+03  0.00000000000E+00 0. -1.
        -13    1    3    3    0    0 -0.14651666057E+03 -0.48804712461E+02  0.41342615572E+03  0.44132778977E+03  0.00000000000E+00 0. -1.
         13    1    3    3    0    0 -0.15780277334E+01 -0.36156518660E+02  0.52083833232E+02  0.63423258331E+02  0.00000000000E+00 0.  1.
          2    1    1    2  501    0  0.89145412931E+02  0.13988894034E+03  0.71576930996E+03  0.73473908658E+03  0.00000000000E+00 0. -1.
<scales pt_clust_5="13000.00000" pt_clust_6="13000.00000" pt_clust_7="13000.00000" pt_clust_8="13000.00000" pt_clust_9="13000.00000"></scales>
<clustering>
<clus scale="   89.743">  5  6 -1 -1</clus>
<clus scale="   94.465">  7  8 -1 -1</clus>
<clus scale="  165.879">  5  9 -1 -1</clus>
<clus scale="  195.126">  2  7  1 -1</clus>
<clus scale="  317.150">  1  5  2 -1</clus>
</clustering>
</event>
<event>
 9    1  0.3312826E-006  0.2790350E+03  0.7546771E-02  0.1133800E+00
          3   -1    0    0  502    0 -0.00000000000E+00  0.00000000000E+00  0.30011482178E+03  0.30011482178E+03  0.00000000000E+00 0. -1.
         21   -1    0    0  501  502  0.00000000000E+00 -0.00000000000E+00 -0.18525449777E+03  0.18525449777E+03  0.00000000000E+00 0. -1.
         23    2    1    2    0    0 -0.10655077934E+02  0.55521791075E+02  0.16952849133E+03  0.20102944256E+03  0.92069144842E+02 0.  0.
         23    2    1    2    0    0  0.64329713881E+02 -0.12501276967E+03  0.20950552727E+02  0.16845996729E+03  0.90406472403E+02 0.  0.
        -11    1    3    3    0    0 -0.36116646567E+02  0.48022593588E+02  0.16296088906E+03  0.17368601849E+03  0.00000000000E+00 0.  1.
         11    1    3    3    0    0  0.25461568633E+02  0.74991974867E+01  0.65676022661E+01  0.27343424067E+02  0.00000000000E+00 0. -1.
        -13    1    4    4    0    0  0.49997211760E+02 -0.10631450795E+03 -0.21949201742E+02  0.11951679063E+03  0.00000000000E+00 0. -1.
         13    1    4    4    0    0  0.14332502120E+02 -0.18698261711E+02  0.42899754469E+02  0.48943176660E+02  0.00000000000E+00 0.  1.
          3    1    1    2  501    0 -0.53674635947E+02  0.69490978590E+02 -0.75618720052E+02  0.11587990970E+03  0.00000000000E+00 0. -1.
<scales pt_clust_5="13000.00000" pt_clust_6="13000.00000" pt_clust_7="13000.00000" pt_clust_8="13000.00000" pt_clust_9="13000.00000"></scales>
<clustering>
<clus scale="   90.406">  7  8 -1 -1</clus>
<clus scale="   87.806">  7  9 -1 -1</clus>
<clus scale="   92.069">  5  6 -1 -1</clus>
<clus scale="  108.041">  1  5  2 -1</clus>
<clus scale="  279.035">  2  5  1 -1</clus>
</clustering>
</event>
<event>
 9    1  0.3312826E-006  0.2187120E+03  0.7546771E-02  0.1166501E+00
          1   -1    0    0  502    0 -0.00000000000E+00  0.00000000000E+00  0.42994925015E+03  0.42994925015E+03  0.00000000000E+00 0. -1.
         21   -1    0    0  501  502  0.00000000000E+00 -0.00000000000E+00 -0.66797548693E+02  0.66797548693E+02  0.00000000000E+00 0. -1.
         23    2    1    2    0    0 -0.25757728256E+02  0.42222652362E+02  0.19555811849E+03  0.22120632690E+03  0.90791235332E+02 0.  0.
         23    2    1    2    0    0 -0.70780066737E+02 -0.36324943070E+02  0.80570882683E+02  0.14543559425E+03  0.91271713040E+02 0.  0.
        -11    1    4    4    0    0 -0.20738959981E+02 -0.61613128883E+02  0.43365644260E+02  0.78146408836E+02  0.00000000000E+00 0.  1.
         11    1    4    4    0    0 -0.50041106756E+02  0.25288185814E+02  0.37205238423E+02  0.67289185411E+02  0.00000000000E+00 0. -1.
        -11    1    3    3    0    0 -0.17807121399E+02  0.70999642044E+02  0.13055951255E+03  0.14967908692E+03  0.00000000000E+00 0. -1.
         11    1    3    3    0    0 -0.79506068572E+01 -0.28776989682E+02  0.64998605941E+02  0.71527239977E+02  0.00000000000E+00 0.  1.
          1    1    1    2  501    0  0.96537794994E+02 -0.58977092926E+01  0.87022700280E+02  0.13010487770E+03  0.00000000000E+00 0. -1.
<scales pt_clust_5="13000.00000" pt_clust_6="13000.00000" pt_clust_7="13000.00000" pt_clust_8="13000.00000" pt_clust_9="13000.00000"></scales>
<clustering>
<clus scale="   90.791">  7  8 -1 -1</clus>
<clus scale="   91.272">  5  6 -1 -1</clus>
<clus scale="   96.718">  5  9 -1 -1</clus>
<clus scale="  103.389">  1  7  2 -1</clus>
<clus scale="  218.712">  2  5  1 -1</clus>
</clustering>
</event>
<event>
 9    1  0.3312826E-006  0.1409847E+03  0.7546771E-02  0.1228757E+00
         21   -1    0    0  501  502  0.00000000000E+00  0.00000000000E+00  0.25084153610E+02  0.25084153610E+02  0.00000000000E+00 0. -1.
          2   -1    0    0  502    0 -0.00000000000E+00 -0.00000000000E+00 -0.61559660309E+03  0.61559660309E+03  0.00000000000E+00 0. -1.
         23    2    1    2    0    0 -0.34751885486E+02 -0.10857165504E+01 -0.32838902958E+03  0.34304780386E+03  0.92916998775E+02 0.  0.
         23    2    1    2    0    0  0.13761261857E+02 -0.93902894230E+01 -0.25040792751E+03  0.27141071526E+03  0.10335422747E+03 0.  0.
        -11    1    3    3    0    0  0.29062861946E+02 -0.12881955933E+02 -0.74560670206E+02  0.81054847324E+02  0.00000000000E+00 0.  1.
         11    1    3    3    0    0 -0.63814747432E+02  0.11796239382E+02 -0.25382835937E+03  0.26199295654E+03  0.00000000000E+00 0. -1.
        -13    1    4    4    0    0 -0.43066636345E+02 -0.17894486219E+02 -0.98005706138E+02  0.10853601356E+03  0.00000000000E+00 0. -1.
         13    1    4    4    0    0  0.56827898201E+02  0.85041967961E+01 -0.15240222137E+03  0.16287470170E+03  0.00000000000E+00 0.  1.
          2    1    1    2  501    0  0.20990623630E+02  0.10476005973E+02 -0.11715492395E+02  0.26222237578E+02  0.00000000000E+00 0. -1.
<scales pt_clust_5="13000.00000" pt_clust_6="13000.00000" pt_clust_7="13000.00000" pt_clust_8="13000.00000" pt_clust_9="13000.00000"></scales>
<clustering>
<clus scale="   92.917">  5  6 -1 -1</clus>
<clus scale="   99.209">  2  5  1 -1</clus>
<clus scale="  103.354">  7  8 -1 -1</clus>
<clus scale="   21.342">  7  9 -1 -1</clus>
<clus scale="  140.985">  1  5  2 -1</clus>
</clustering>
</event>
<event>
 9    1  0.3312826E-006  0.1684211E+03  0.7546771E-02  0.1193621E+00
         21   -1    0    0  501  502  0.00000000000E+00  0.00000000000E+00  0.47245949920E+02  0.47245949920E+02  0.00000000000E+00 0.  1.
          2   -1    0    0  502    0 -0.00000000000E+00 -0.00000000000E+00 -0.63804311707E+03  0.63804311707E+03  0.00000000000E+00 0. -1.
         23    2    1    2    0    0  0.66305206441E+02 -0.38544245538E+02 -0.44763475757E+03  0.46424351628E+03  0.96245139936E+02 0.  0.
         23    2    1    2    0    0 -0.64820364696E+01  0.98889445221E+01 -0.43540618383E+02  0.10136080137E+03  0.90765734643E+02 0.  0.
        -13    1    4    4    0    0 -0.31987955346E+02  0.38164206777E+02 -0.10381606940E+02  0.50867609820E+02  0.00000000000E+00 0.  1.
         13    1    4    4    0    0  0.25505918877E+02 -0.28275262255E+02 -0.33159011443E+02  0.50493191553E+02  0.00000000000E+00 0. -1.
        -13    1    3    3    0    0  0.17309615398E+02  0.29461315134E+02 -0.76866039211E+02  0.84118843659E+02  0.00000000000E+00 0.  1.
         13    1    3    3    0    0  0.48995591043E+02 -0.68005560672E+02 -0.37076871836E+03  0.38012467262E+03  0.00000000000E+00 0. -1.
          2    1    1    2  501    0 -0.59823169971E+02  0.28655301016E+02 -0.99621791199E+02  0.11968474934E+03  0.00000000000E+00 0. -1.
<scales pt_clust_5="13000.00000" pt_clust_6="13000.00000" pt_clust_7="13000.00000" pt_clust_8="13000.00000" pt_clust_9="13000.00000"></scales>
<clustering>
<clus scale="   90.766">  5  6 -1 -1</clus>
<clus scale="   66.332">  5  9 -1 -1</clus>
<clus scale="   96.245">  7  8 -1 -1</clus>
<clus scale="  123.066">  2  7  1 -1</clus>
<clus scale="  168.421">  1  5  2 -1</clus>
</clustering>
</event>
<event>
 9    1  0.3312826E-006  0.2099577E+03  0.7546771E-02  0.1169347E+00
          2   -1    0    0  502    0 -0.00000000000E+00  0.00000000000E+00  0.79515797951E+03  0.79515797951E+03  0.00000000000E+00 0. -1.
         21   -1    0    0  501  502  0.00000000000E+00 -0.00000000000E+00 -0.46591594967E+02  0.46591594967E+02  0.00000000000E+00 0.  1.
         23    2    1    2    0    0  0.24877993509E+02  0.53707356547E+02  0.51995052710E+03  0.53135073231E+03  0.92095903160E+02 0.  0.
         23    2    1    2    0    0  0.51038188362E+02 -0.38861555730E+02  0.47317286213E+02  0.11328761367E+03  0.80498699691E+02 0.  0.
        -11    1    4    4    0    0  0.39051706944E+02 -0.91722830038E+01 -0.15321064986E+02  0.42940675624E+02  0.00000000000E+00 0. -1.
         11    1    4    4    0    0  0.11986481417E+02 -0.29689272726E+02  0.62638351200E+02  0.70346938048E+02  0.00000000000E+00 0.  1.
        -13    1    3    3    0    0  0.58471839320E+02  0.19770967161E+02  0.29402241443E+03  0.30043140203E+03  0.00000000000E+00 0.  1.
         13    1    3    3    0    0 -0.33593845811E+02  0.33936389386E+02  0.22592811267E+03  0.23091933028E+03  0.00000000000E+00 0. -1.
          2    1    1    2  501    0 -0.75916181870E+02 -0.14845800817E+02  0.18129857123E+03  0.19711122850E+03  0.00000000000E+00 0. -1.
<scales pt_clust_5="13000.00000" pt_clust_6="13000.00000" pt_clust_7="13000.00000" pt_clust_8="13000.00000" pt_clust_9="13000.00000"></scales>
<clustering>
<clus scale="   80.499">  5  6 -1 -1</clus>
<clus scale="   77.354">  5  9 -1 -1</clus>
<clus scale="   92.096">  7  8 -1 -1</clus>
<clus scale="  109.476">  1  7  2 -1</clus>
<clus scale="  209.958">  2  5  1 -1</clus>
</clustering>
</event>
<event>
 9    1  0.3312826E-006  0.1968813E+03  0.7546771E-02  0.1184634E+00
          1   -1    0    0  502    0 -0.00000000000E+00  0.00000000000E+00  0.17406796354E+03  0.17406796354E+03  0.00000000000E+00 0. -1.
         21   -1    0    0  501  502  0.00000000000E+00 -0.00000000000E+00 -0.53021179080E+03  0.53021179080E+03  0.00000000000E+00 0. -1.
         23    2    1    2    0    0 -0.29381712252E+01 -0.21782545431E+02  0.14106571631E+03  0.16950916659E+03  0.91382214383E+02 0.  0.
         23    2    1    2    0    0 -0.36384549941E+02 -0.55132762492E+02 -0.23942777716E+03  0.26289988303E+03  0.86181384558E+02 0.  0.
        -13    1    3    3    0    0 -0.41092396572E+02 -0.26964765766E+02  0.47592188143E+02  0.68415641641E+02  0.00000000000E+00 0.  1.
         13    1    3    3    0    0  0.38154225347E+02  0.51822203348E+01  0.93473528168E+02  0.10109352495E+03  0.00000000000E+00 0. -1.
        -13    1    4    4    0    0 -0.59598837762E+02 -0.56106530615E+02 -0.21011392921E+03  0.22549462852E+03  0.00000000000E+00 0. -1.
         13    1    4    4    0    0  0.23214287822E+02  0.97376812353E+00 -0.29313847951E+02  0.37405254512E+02  0.00000000000E+00 0.  1.
          1    1    1    2  501    0  0.39322721166E+02  0.76915307923E+02 -0.25778176640E+03  0.27187070472E+03  0.00000000000E+00 0. -1.
<scales pt_clust_5="13000.00000" pt_clust_6="13000.00000" pt_clust_7="13000.00000" pt_clust_8="13000.00000" pt_clust_9="13000.00000"></scales>
<clustering>
<clus scale="   86.181">  7  8 -1 -1</clus>
<clus scale="   86.384">  7  9 -1 -1</clus>
<clus scale="   91.382">  5  6 -1 -1</clus>
<clus scale="   93.988">  1  5  2 -1</clus>
<clus scale="  196.881">  2  5  1 -1</clus>
</clustering>
</event>
<event>
 9    1  0.3312826E-006  0.2902333E+03  0.7546771E-02  0.1105537E+00
         -3   -1    0    0    0  501 -0.00000000000E+00  0.00000000000E+00  0.12574108384E+03  0.12574108384E+03  0.00000000000E+00 0.  1.
         21   -1    0    0  501  502  0.00000000000E+00 -0.00000000000E+00 -0.47994149652E+03  0.47994149652E+03  0.00000000000E+00 0.  1.
         23    2    1    2    0    0 -0.12755076141E+03 -0.11670347827E+03 -0.95698739097E+02  0.21702011605E+03  0.89725044060E+02 0.  0.
         23    2    1    2    0    0  0.98405768361E+02 -0.11776812479E+02 -0.61282972074E+02  0.15148777773E+03  0.96801630027E+02 0.  0.
        -11    1    3    3    0    0 -0.52077210743E+02 -0.13251449681E+02 -0.66820466765E+02  0.85747370666E+02  0.00000000000E+00 0. -1.
         11    1    3    3    0    0 -0.75473550663E+02 -0.10345202859E+03 -0.28878272332E+02  0.13127274539E+03  0.00000000000E+00 0.  1.
        -13    1    4    4    0    0  0.27465697589E+02 -0.48279489890E+02 -0.41373009184E+02  0.69260375230E+02  0.00000000000E+00 0.  1.
         13    1    4    4    0    0  0.70940070772E+02  0.36502677411E+02 -0.19909962890E+02  0.82227402498E+02  0.00000000000E+00 0. -1.
         -3    1    1    2    0  502  0.29144993045E+02  0.12848029075E+03 -0.19721870150E+03  0.23717468658E+03  0.00000000000E+00 0.  1.
<scales pt_clust_5="13000.00000" pt_clust_6="13000.00000" pt_clust_7="13000.00000" pt_clust_8="13000.00000" pt_clust_9="13000.00000"></scales>
<clustering>
<clus scale="   89.725">  5  6 -1 -1</clus>
<clus scale="   96.802">  7  8 -1 -1</clus>
<clus scale="  131.745">  7  9 -1 -1</clus>
<clus scale="  194.781">  1  5  2 -1</clus>
<clus scale="  290.233">  2  5  1 -1</clus>
</clustering>
</event>
<event>
 9    1  0.3312826E-006  0.3236950E+03  0.7546771E-02  0.1119251E+00
          1   -1    0    0  502    0 -0.00000000000E+00  0.00000000000E+00  0.15922301386E+03  0.15922301386E+03  0.00000000000E+00 0. -1.
         21   -1    0    0  501  502  0.00000000000E+00 -0.00000000000E+00 -0.65143557747E+03  0.65143557747E+03  0.00000000000E+00 0. -1.
         23    2    1    2    0    0  0.29866103923E+02 -0.26603733126E+02  0.96793203532E+02  0.13856763235E+03  0.90732142625E+02 0.  0.
         23    2    1    2    0    0  0.64539406631E+02 -0.40038155871E+02 -0.64209762650E+02  0.13472293971E+03  0.90878974089E+02 0.  0.
        -11    1    3    3    0    0  0.54485962313E+02 -0.28803665012E+02  0.95696621193E+02  0.11382536850E+03  0.00000000000E+00 0. -1.
         11    1    3    3    0    0 -0.24619858389E+02  0.21999318862E+01  0.10965823390E+01  0.24742263846E+02  0.00000000000E+00 0.  1.
        -13    1    4    4    0    0 -0.72304144355E+01 -0.41883013315E+02 -0.73341956337E+01  0.43130686557E+02  0.00000000000E+00 0. -1.
         13    1    4    4    0    0  0.71769821066E+02  0.18448574438E+01 -0.56875567016E+02  0.91592253156E+02  0.00000000000E+00 0.  1.
          1    1    1    2  501    0 -0.94405510554E+02  0.66641888997E+02 -0.52479600450E+03  0.53736801926E+03  0.00000000000E+00 0. -1.
<scales pt_clust_5="13000.00000" pt_clust_6="13000.00000" pt_clust_7="13000.00000" pt_clust_8="13000.00000" pt_clust_9="13000.00000"></scales>
<clustering>
<clus scale="   90.732">  5  6 -1 -1</clus>
<clus scale="   90.879">  7  8 -1 -1</clus>
<clus scale="   99.157">  1  5  2 -1</clus>
<clus scale="  109.546">  7  9 -1 -1</clus>
<clus scale="  323.695">  2  5  1 -1</clus>
</clustering>
</event>
<event>
 9    1  0.3312826E-006  0.5045142E+03  0.7546771E-02  0.1069541E+00
          2   -1    0    0  502    0 -0.00000000000E+00  0.00000000000E+00  0.62663639068E+03  0.62663639068E+03  0.00000000000E+00 0. -1.
         21   -1    0    0  501  502  0.00000000000E+00 -0.00000000000E+00 -0.15402713685E+03  0.15402713685E+03  0.00000000000E+00 0. -1.
         23    2    1    2    0    0 -0.45787725763E+02 -0.58401230499E+01  0.16093542588E+03  0.18764147515E+03  0.84725964287E+02 0.  0.
         23    2    1    2    0    0 -0.20826478431E+02  0.63860509803E+02  0.43031902475E+03  0.44510146489E+03  0.91809280935E+02 0.  0.
        -13    1    4    4    0    0 -0.25919224527E+02  0.86493624493E+02  0.32950195538E+03  0.34164966249E+03  0.00000000000E+00 0. -1.
         13    1    4    4    0    0  0.50927460967E+01 -0.22633114689E+02  0.10081706937E+03  0.10345180240E+03  0.00000000000E+00 0.  1.
        -13    1    3    3    0    0 -0.47317815971E+02 -0.39162011429E+02  0.86659979441E+02  0.10621954097E+03  0.00000000000E+00 0.  1.
         13    1    3    3    0    0  0.15300902080E+01  0.33321888379E+02  0.74275446437E+02  0.81421934174E+02  0.00000000000E+00 0. -1.
          2    1    1    2  501    0  0.66614204193E+02 -0.58020386754E+02 -0.11864519681E+03  0.14792058749E+03  0.00000000000E+00 0. -1.
<scales pt_clust_5="13000.00000" pt_clust_6="13000.00000" pt_clust_7="13000.00000" pt_clust_8="13000.00000" pt_clust_9="13000.00000"></scales>
<clustering>
<clus scale="   84.726">  7  8 -1 -1</clus>
<clus scale="   91.809">  5  6 -1 -1</clus>
<clus scale="   88.339">  5  9 -1 -1</clus>
<clus scale="   96.484">  1  7  2 -1</clus>
<clus scale="  504.514">  2  5  1 -1</clus>
</clustering>
</event>
<event>
 9    1  0.3312826E-006  0.3849465E+03  0.7546771E-02  0.1098829E+00
         -2   -1    0    0    0  501 -0.00000000000E+00  0.00000000000E+00  0.21852936575E+03  0.21852936575E+03  0.00000000000E+00 0.  1.
         21   -1    0    0  501  502  0.00000000000E+00 -0.00000000000E+00 -0.71482708463E+03  0.71482708463E+03  0.00000000000E+00 0.  1.
         23    2    1    2    0    0 -0.30413103200E+02 -0.21674280937E+02  0.15072286281E+03  0.18048234262E+03  0.91987843344E+02 0.  0.
         23    2    1    2    0    0  0.18081298516E+02 -0.73162551356E+02 -0.21942766767E+02  0.12052264466E+03  0.91457807676E+02 0.  0.
        -11    1    4    4    0    0  0.59177979445E+01  0.19528667726E+02  0.86429762802E+01  0.22160555829E+02  0.00000000000E+00 0.  1.
         11    1    4    4    0    0  0.12163500572E+02 -0.92691219082E+02 -0.30585743047E+02  0.98362088829E+02  0.00000000000E+00 0. -1.
        -13    1    3    3    0    0 -0.39221694184E+00  0.22519499888E+02  0.21851996389E+01  0.22628672228E+02  0.00000000000E+00 0. -1.
         13    1    3    3    0    0 -0.30020886258E+02 -0.44193780825E+02  0.14853766317E+03  0.15785367039E+03  0.00000000000E+00 0.  1.
         -2    1    1    2    0  502  0.12331804684E+02  0.94836832293E+02 -0.62507781493E+03  0.63235146310E+03  0.00000000000E+00 0.  1.
<scales pt_clust_5="13000.00000" pt_clust_6="13000.00000" pt_clust_7="13000.00000" pt_clust_8="13000.00000" pt_clust_9="13000.00000"></scales>
<clustering>
<clus scale="   91.458">  5  6 -1 -1</clus>
<clus scale="   91.988">  7  8 -1 -1</clus>
<clus scale="   95.635">  5  9 -1 -1</clus>
<clus scale="   99.280">  1  7  2 -1</clus>
<clus scale="  384.946">  2  5  1 -1</clus>
</clustering>
</event>
<event>
 9    1  0.3312826E-006  0.9339063E+03  0.7546771E-02  0.9765485E-01
          1   -1    0    0  502    0 -0.00000000000E+00  0.00000000000E+00  0.87537743445E+03  0.87537743445E+03  0.00000000000E+00 0. -1.
         21   -1    0    0  501  502  0.00000000000E+00 -0.00000000000E+00 -0.43200464859E+03  0.43200464859E+03  0.00000000000E+00 0. -1.
         23    2    1    2    0    0  0.19236478911E+03  0.13242178769E+03 -0.42491771219E+02  0.25464975946E+03  0.92201992536E+02 0.  0.
         23    2    1    2    0    0 -0.13357657105E+03 -0.44564555881E+03  0.55157938150E+03  0.72733468450E+03  0.91286717294E+02 0.  0.
        -11    1    4    4    0    0 -0.11263953919E+03 -0.39982177229E+03  0.44104098590E+03  0.60585663868E+03  0.00000000000E+00 0. -1.
         11    1    4    4    0    0 -0.20937031852E+02 -0.45823786523E+02  0.11053839560E+03  0.12147804582E+03  0.00000000000E+00 0.  1.
        -13    1    3    3    0    0  0.18344243990E+03  0.84078902565E+02 -0.37373366288E+02  0.20522465525E+03  0.00000000000E+00 0.  1.
         13    1    3    3    0    0  0.89223492097E+01  0.48342885124E+02 -0.51184049312E+01  0.49425104214E+02  0.00000000000E+00 0. -1.
          1    1    1    2  501    0 -0.58788218064E+02  0.31322377112E+03 -0.65714824421E+02  0.32539763909E+03  0.00000000000E+00 0. -1.
<scales pt_clust_5="13000.00000" pt_clust_6="13000.00000" pt_clust_7="13000.00000" pt_clust_8="13000.00000" pt_clust_9="13000.00000"></scales>
<clustering>
<clus scale="   91.287">  5  6 -1 -1</clus>
<clus scale="   92.202">  7  8 -1 -1</clus>
<clus scale="  251.080">  1  7  2 -1</clus>
<clus scale="  336.605">  5  9 -1 -1</clus>
<clus scale="  933.906">  2  5  1 -1</clus>
</clustering>
</event>
<event>
 9    1  0.3312826E-006  0.2243880E+03  0.7546771E-02  0.1155568E+00
         21   -1    0    0  501  502  0.00000000000E+00  0.00000000000E+00  0.50403681340E+03  0.50403681340E+03  0.00000000000E+00 0. -1.
         -3   -1    0    0    0  501 -0.00000000000E+00 -0.00000000000E+00 -0.81515030840E+02  0.81515030840E+02  0.00000000000E+00 0.  1.
         23    2    1    2    0    0  0.34656490227E+02 -0.76733572490E+02  0.31178241535E+03  0.33532556355E+03  0.90254338318E+02 0.  0.
         23    2    1    2    0    0  0.19202109835E+02  0.16013174133E+02 -0.19745602457E+02  0.96557666832E+02  0.91150158747E+02 0.  0.
        -11    1    4    4    0    0 -0.34407623966E+02 -0.82961771398E+01 -0.39635540202E+01  0.35614897200E+02  0.00000000000E+00 0.  1.
         11    1    4    4    0    0  0.53609733801E+02  0.24309351272E+02 -0.15782048436E+02  0.60942769631E+02  0.00000000000E+00 0. -1.
        -13    1    3    3    0    0 -0.24421057881E+02 -0.45490649542E+02  0.90735013631E+02  0.10439650359E+03  0.00000000000E+00 0.  1.
         13    1    3    3    0    0  0.59077548108E+02 -0.31242922948E+02  0.22104740172E+03  0.23092905996E+03  0.00000000000E+00 0. -1.
         -3    1    1    2    0  502 -0.53858600062E+02  0.60720398358E+02  0.13048496967E+03  0.15366861386E+03  0.00000000000E+00 0.  1.
<scales pt_clust_5="13000.00000" pt_clust_6="13000.00000" pt_clust_7="13000.00000" pt_clust_8="13000.00000" pt_clust_9="13000.00000"></scales>
<clustering>
<clus scale="   90.254">  7  8 -1 -1</clus>
<clus scale="   91.150">  5  6 -1 -1</clus>
<clus scale="   81.165">  5  9 -1 -1</clus>
<clus scale="  123.430">  2  7  1 -1</clus>
<clus scale="  224.388">  1  5  2 -1</clus>
</clustering>
</event>
<event>
 9    1  0.3312826E-006  0.2538545E+03  0.7546771E-02  0.1142608E+00
          1   -1    0    0  502    0 -0.00000000000E+00  0.00000000000E+00  0.54210244393E+03  0.54210244393E+03  0.00000000000E+00 0. -1.
         21   -1    0    0  501  502  0.00000000000E+00 -0.00000000000E+00 -0.79687086496E+02  0.79687086496E+02  0.00000000000E+00 0. -1.
         23    2    1    2    0    0  0.56885883069E+02 -0.42900421642E+02  0.29691668374E+03  0.31875174513E+03  0.91469711224E+02 0.  0.
         23    2    1    2    0    0  0.43158715069E+02  0.17792052215E+01  0.16344001603E+03  0.19485223114E+03  0.96896402840E+02 0.  0.
        -11    1    4    4    0    0 -0.16769067999E+02  0.34072062487E+02  0.61063046670E+02  0.71908294044E+02  0.00000000000E+00 0.  1.
         11    1    4    4    0    0  0.59927783067E+02 -0.32292857266E+02  0.10237696936E+03  0.12294393710E+03  0.00000000000E+00 0. -1.
        -11    1    3    3    0    0  0.72253478224E+02 -0.26896118381E+02  0.28115842016E+03  0.29153734499E+03  0.00000000000E+00 0. -1.
         11    1    3    3    0    0 -0.15367595155E+02 -0.16004303261E+02  0.15758263579E+02  0.27214400136E+02  0.00000000000E+00 0.  1.
          1    1    1    2  501    0 -0.10004459814E+03  0.41121216421E+02  0.20586576660E+01  0.10818555416E+03  0.00000000000E+00 0. -1.
<scales pt_clust_5="13000.00000" pt_clust_6="13000.00000" pt_clust_7="13000.00000" pt_clust_8="13000.00000" pt_clust_9="13000.00000"></scales>
<clustering>
<clus scale="   91.470">  7  8 -1 -1</clus>
<clus scale="   96.896">  5  6 -1 -1</clus>
<clus scale="  108.166">  5  9 -1 -1</clus>
<clus scale="  115.945">  1  7  2 -1</clus>
<clus scale="  253.854">  2  5  1 -1</clus>
</clustering>
</event>
<event>
 9    1  0.3312826E-006  0.2473423E+03  0.7546771E-02  0.1136108E+00
          2   -1    0    0  502    0 -0.00000000000E+00  0.00000000000E+00  0.53023968162E+03  0.53023968162E+03  0.00000000000E+00 0. -1.
         21   -1    0    0  501  502  0.00000000000E+00 -0.00000000000E+00 -0.82267144069E+02  0.82267144069E+02  0.00000000000E+00 0.  1.
         23    2    1    2    0    0 -0.85937763309E+01  0.11425676099E+03  0.27179772119E+03  0.30883634340E+03  0.91528276156E+02 0.  0.
         23    2    1    2    0    0 -0.22591872072E+02 -0.69190843357E+02  0.20923222670E+03  0.23966834188E+03  0.91460504704E+02 0.  0.
        -13    1    3    3    0    0  0.38892716378E+02  0.39166767511E+02  0.77057997944E+02  0.94787204366E+02  0.00000000000E+00 0.  1.
         13    1    3    3    0    0 -0.47486492708E+02  0.75089993479E+02  0.19473972325E+03  0.21404913903E+03  0.00000000000E+00 0. -1.
        -13    1    4    4    0    0  0.26719489595E+02 -0.47360068940E+02  0.15006043226E+03  0.15960902413E+03  0.00000000000E+00 0.  1.
         13    1    4    4    0    0 -0.49311361666E+02 -0.21830774416E+02  0.59171794448E+02  0.80059317753E+02  0.00000000000E+00 0. -1.
          2    1    1    2  501    0  0.31185648403E+02 -0.45065917633E+02 -0.33057410343E+02  0.64002140409E+02  0.00000000000E+00 0. -1.
<scales pt_clust_5="13000.00000" pt_clust_6="13000.00000" pt_clust_7="13000.00000" pt_clust_8="13000.00000" pt_clust_9="13000.00000"></scales>
<clustering>
<clus scale="   91.461">  7  8 -1 -1</clus>
<clus scale="   54.804">  7  9 -1 -1</clus>
<clus scale="   91.528">  5  6 -1 -1</clus>
<clus scale="  146.649">  1  5  2 -1</clus>
<clus scale="  247.342">  2  5  1 -1</clus>
</clustering>
</event>
<event>
 9    1  0.3312826E-006  0.2115301E+03  0.7546771E-02  0.1170988E+00
         -1   -1    0    0    0  501 -0.00000000000E+00  0.00000000000E+00  0.18081160549E+03  0.18081160549E+03  0.00000000000E+00 0.  1.
         21   -1    0    0  501  502  0.00000000000E+00 -0.00000000000E+00 -0.13808898057E+03  0.13808898057E+03  0.00000000000E+00 0.  1.
         23    2    1    2    0    0 -0.14141946977E+02  0.43273373635E+02  0.28070261343E+02  0.10686366424E+03  0.92516612740E+02 0.  0.
         23    2    1    2    0    0 -0.19418410200E+02 -0.45317435217E+01  0.83822439929E+02  0.12594562760E+03  0.91861244937E+02 0.  0.
        -11    1    3    3    0    0  0.24033367565E+02 -0.18259962557E+02  0.34525100776E+01  0.30380072662E+02  0.00000000000E+00 0. -1.
         11    1    3    3    0    0 -0.38175314543E+02  0.61533336192E+02  0.24617751265E+02  0.76483591578E+02  0.00000000000E+00 0.  1.
        -13    1    4    4    0    0 -0.27750076715E+02 -0.40415397386E+02  0.72287172410E+02  0.87343611092E+02  0.00000000000E+00 0.  1.
         13    1    4    4    0    0  0.83316665157E+01  0.35883653865E+02  0.11535267520E+02  0.38602016506E+02  0.00000000000E+00 0. -1.
         -1    1    1    2    0  502  0.33560357177E+02 -0.38741630113E+02 -0.69170076358E+02  0.86091294224E+02  0.00000000000E+00 0.  1.
<scales pt_clust_5="13000.00000" pt_clust_6="13000.00000" pt_clust_7="13000.00000" pt_clust_8="13000.00000" pt_clust_9="13000.00000"></scales>
<clustering>
<clus scale="   91.861">  7  8 -1 -1</clus>
<clus scale="   51.256">  7  9 -1 -1</clus>
<clus scale="   92.517">  5  6 -1 -1</clus>
<clus scale="  103.111">  1  5  2 -1</clus>
<clus scale="  211.530">  2  5  1 -1</clus>
</clustering>
</event>
<event>
 9    1  0.3312826E-006  0.1727073E+03  0.7546771E-02  0.1199312E+00
          1   -1    0    0  502    0 -0.00000000000E+00  0.00000000000E+00  0.40009045950E+03  0.40009045950E+03  0.00000000000E+00 0. -1.
         21   -1    0    0  501  502  0.00000000000E+00 -0.00000000000E+00 -0.57086443937E+02  0.57086443937E+02  0.00000000000E+00 0. -1.
         23    2    1    2    0    0 -0.31461548671E+02 -0.26571897269E+02  0.22910695517E+03  0.25029442090E+03  0.91985898147E+02 0.  0.
         23    2    1    2    0    0 -0.63048335227E+01  0.29229180085E+02  0.13355374080E+03  0.16422400318E+03  0.90767976989E+02 0.  0.
        -13    1    3    3    0    0 -0.33646094806E+02 -0.52855080452E+02  0.20570316204E+03  0.21503374177E+03  0.00000000000E+00 0. -1.
         13    1    3    3    0    0  0.21845461356E+01  0.26283183183E+02  0.23403793125E+02  0.35260679130E+02  0.00000000000E+00 0.  1.
        -13    1    4    4    0    0 -0.38988913922E+02  0.40283993709E+02  0.10659243713E+03  0.12043622051E+03  0.00000000000E+00 0.  1.
         13    1    4    4    0    0  0.32684080399E+02 -0.11054813624E+02  0.26961303664E+02  0.43787782669E+02  0.00000000000E+00 0. -1.
          1    1    1    2  501    0  0.37766382193E+02 -0.26572828164E+01 -0.19656680405E+02  0.42658479350E+02  0.00000000000E+00 0. -1.
<scales pt_clust_5="13000.00000" pt_clust_6="13000.00000" pt_clust_7="13000.00000" pt_clust_8="13000.00000" pt_clust_9="13000.00000"></scales>
<clustering>
<clus scale="   90.768">  7  8 -1 -1</clus>
<clus scale="   37.860">  7  9 -1 -1</clus>
<clus scale="   91.986">  5  6 -1 -1</clus>
<clus scale="  100.783">  1  5  2 -1</clus>
<clus scale="  172.707">  2  5  1 -1</clus>
</clustering>
</event>
<event>
 9    1  0.3312826E-006  0.1617078E+03  0.7546771E-02  0.1190805E+00
          2   -1    0    0  502    0 -0.00000000000E+00  0.00000000000E+00  0.80255317689E+03  0.80255317689E+03  0.00000000000E+00 0. -1.
         21   -1    0    0  501  502  0.00000000000E+00 -0.00000000000E+00 -0.51720033207E+02  0.51720033207E+02  0.00000000000E+00 0.  1.
         23    2    1    2    0    0  0.11373268949E+03  0.33734942349E+02  0.88268171853E+02  0.17226019448E+03  0.88369301493E+02 0.  0.
         23    2    1    2    0    0 -0.71489017878E+02 -0.36510305186E+02  0.49114697296E+03  0.50544472637E+03  0.88347837024E+02 0.  0.
        -11    1    3    3    0    0  0.89788554914E+02  0.35766190446E+02  0.10520503136E+03  0.14286113396E+03  0.00000000000E+00 0. -1.
         11    1    3    3    0    0  0.23944134575E+02 -0.20312480965E+01 -0.16936859510E+02  0.29399060520E+02  0.00000000000E+00 0.  1.
        -13    1    4    4    0    0 -0.54432170732E+01  0.25352414729E+02  0.69096379587E+02  0.73801647792E+02  0.00000000000E+00 0.  1.
         13    1    4    4    0    0 -0.66045800805E+02 -0.61862719915E+02  0.42205059337E+03  0.43164307858E+03  0.00000000000E+00 0. -1.
          2    1    1    2  501    0 -0.42243671611E+02  0.27753628363E+01  0.17141799887E+03  0.17656828924E+03  0.00000000000E+00 0. -1.
<scales pt_clust_5="13000.00000" pt_clust_6="13000.00000" pt_clust_7="13000.00000" pt_clust_8="13000.00000" pt_clust_9="13000.00000"></scales>
<clustering>
<clus scale="   88.348">  7  8 -1 -1</clus>
<clus scale="   42.335">  7  9 -1 -1</clus>
<clus scale="   88.369">  5  6 -1 -1</clus>
<clus scale="  147.927">  1  5  2 -1</clus>
<clus scale="  161.708">  2  5  1 -1</clus>
</clustering>
</event>
<event>
 9    1  0.3312826E-006  0.2168526E+03  0.7546771E-02  0.1161361E+00
         21   -1    0    0  501  502  0.00000000000E+00  0.00000000000E+00  0.62478434715E+02  0.62478434715E+02  0.00000000000E+00 0. -1.
          1   -1    0    0  502    0 -0.00000000000E+00 -0.00000000000E+00 -0.50534493475E+03  0.50534493475E+03  0.00000000000E+00 0. -1.
         23    2    1    2    0    0 -0.78441323718E+02  0.11910849828E+02 -0.25224254598E+03  0.27909763530E+03  0.89298815333E+02 0.  0.
         23    2    1    2    0    0  0.10899620520E+03 -0.50447546163E+02 -0.89107245086E+02  0.17592360676E+03  0.92649266730E+02 0.  0.
        -11    1    4    4    0    0  0.93124083370E+02 -0.76577810030E+02 -0.64879092118E+02  0.13691439839E+03  0.00000000000E+00 0. -1.
         11    1    4    4    0    0  0.15872121831E+02  0.26130263867E+02 -0.24228152968E+02  0.39009208367E+02  0.00000000000E+00 0.  1.
        -13    1    3    3    0    0 -0.68437795457E+02  0.38526762636E+02 -0.22987383614E+03  0.24291978887E+03  0.00000000000E+00 0.  1.
         13    1    3    3    0    0 -0.10003528261E+02 -0.26615912809E+02 -0.22368709843E+02  0.36177846430E+02  0.00000000000E+00 0. -1.
          1    1    1    2  501    0 -0.30554881484E+02  0.38536696336E+02 -0.10151670897E+03  0.11280212741E+03  0.00000000000E+00 0. -1.
<scales pt_clust_5="13000.00000" pt_clust_6="13000.00000" pt_clust_7="13000.00000" pt_clust_8="13000.00000" pt_clust_9="13000.00000"></scales>
<clustering>
<clus scale="   89.299">  7  8 -1 -1</clus>
<clus scale="   92.649">  5  6 -1 -1</clus>
<clus scale="   49.180">  5  9 -1 -1</clus>
<clus scale="  119.454">  2  7  1 -1</clus>
<clus scale="  216.853">  1  5  2 -1</clus>
</clustering>
</event>
<event>
 9    1  0.3312826E-006  0.2090096E+03  0.7546771E-02  0.1168238E+00
          1   -1    0    0  502    0 -0.00000000000E+00  0.00000000000E+00  0.74512048721E+02  0.74512048721E+02  0.00000000000E+00 0. -1.
         21   -1    0    0  501  502  0.00000000000E+00 -0.00000000000E+00 -0.35554252853E+03  0.35554252853E+03  0.00000000000E+00 0.  1.
         23    2    1    2    0    0 -0.75479123738E+02 -0.12283169104E+02 -0.12614418869E+03  0.16991079601E+03  0.84316949055E+02 0.  0.
         23    2    1    2    0    0  0.41495545102E+02 -0.34797998014E+02 -0.27874390376E+02  0.12048869596E+03  0.10396039287E+03 0.  0.
        -11    1    4    4    0    0  0.60845424615E+02  0.71639305243E+01 -0.39429722328E+02  0.72857330448E+02  0.00000000000E+00 0.  1.
         11    1    4    4    0    0 -0.19349879514E+02 -0.41961928539E+02  0.11555331952E+02  0.47631365511E+02  0.00000000000E+00 0. -1.
        -13    1    3    3    0    0 -0.65560907257E+02 -0.38782675297E+02 -0.56808083136E+02  0.95023611662E+02  0.00000000000E+00 0. -1.
         13    1    3    3    0    0 -0.99182164804E+01  0.26499506193E+02 -0.69336105554E+02  0.74887184351E+02  0.00000000000E+00 0.  1.
          1    1    1    2  501    0  0.33983578636E+02  0.47081167119E+02 -0.12701190075E+03  0.13965508528E+03  0.00000000000E+00 0. -1.
<scales pt_clust_5="13000.00000" pt_clust_6="13000.00000" pt_clust_7="13000.00000" pt_clust_8="13000.00000" pt_clust_9="13000.00000"></scales>
<clustering>
<clus scale="   84.317">  7  8 -1 -1</clus>
<clus scale="  103.960">  5  6 -1 -1</clus>
<clus scale="   58.065">  5  9 -1 -1</clus>
<clus scale="  113.830">  1  7  2 -1</clus>
<clus scale="  209.010">  2  5  1 -1</clus>
</clustering>
</event>
<event>
 9    1  0.3312826E-006  0.1886474E+03  0.7546771E-02  0.1187517E+00
         -1   -1    0    0    0  501 -0.00000000000E+00  0.00000000000E+00  0.47629851297E+03  0.47629851297E+03  0.00000000000E+00 0.  1.
         21   -1    0    0  501  502  0.00000000000E+00 -0.00000000000E+00 -0.17154091483E+03  0.17154091483E+03  0.00000000000E+00 0. -1.
         23    2    1    2    0    0  0.40455118085E+02  0.13845501534E+02  0.41663279986E+03  0.42851343543E+03  0.90623175462E+02 0.  0.
         23    2    1    2    0    0  0.43066673143E+02  0.81924300563E+00 -0.42586979858E+02  0.10981890571E+03  0.91603120594E+02 0.  0.
        -11    1    4    4    0    0  0.18466125715E+02  0.16621389343E+02  0.25571658898E+02  0.35653584973E+02  0.00000000000E+00 0.  1.
         11    1    4    4    0    0  0.24600547427E+02 -0.15802146337E+02 -0.68158638755E+02  0.74165320734E+02  0.00000000000E+00 0. -1.
        -11    1    3    3    0    0  0.60886826330E+02  0.28943832347E+02  0.36250060243E+03  0.36871620226E+03  0.00000000000E+00 0.  1.
         11    1    3    3    0    0 -0.20431708245E+02 -0.15098330814E+02  0.54132197432E+02  0.59797233163E+02  0.00000000000E+00 0. -1.
         -1    1    1    2    0  502 -0.83521791227E+02 -0.14664744539E+02 -0.69288221863E+02  0.10950708667E+03  0.00000000000E+00 0.  1.
<scales pt_clust_5="13000.00000" pt_clust_6="13000.00000" pt_clust_7="13000.00000" pt_clust_8="13000.00000" pt_clust_9="13000.00000"></scales>
<clustering>
<clus scale="   90.623">  7  8 -1 -1</clus>
<clus scale="   91.603">  5  6 -1 -1</clus>
<clus scale="   84.799">  5  9 -1 -1</clus>
<clus scale="  100.204">  1  7  2 -1</clus>
<clus scale="  188.647">  2  5  1 -1</clus>
</clustering>
</event>
<event>
 9    1  0.3312826E-006  0.2998076E+03  0.7546771E-02  0.1114362E+00
         21   -1    0    0  501  502  0.00000000000E+00  0.00000000000E+00  0.15810323489E+03  0.15810323489E+03  0.00000000000E+00 0. -1.
          1   -1    0    0  502    0 -0.00000000000E+00 -0.00000000000E+00 -0.34648880648E+03  0.34648880648E+03  0.00000000000E+00 0. -1.
         23    2    1    2    0    0 -0.10260933284E+03  0.35602829392E+02 -0.14380303327E+03  0.20148775682E+03  0.90120847329E+02 0.  0.
         23    2    1    2    0    0 -0.43298858369E+02  0.14556078491E+02 -0.94750406278E+02  0.14086393421E+03  0.93692784744E+02 0.  0.
        -11    1    3    3    0    0 -0.45457030019E+02  0.12703514315E+02 -0.13012089101E+03  0.13841664326E+03  0.00000000000E+00 0.  1.
         11    1    3    3    0    0 -0.57152302825E+02  0.22899315077E+02 -0.13682142264E+02  0.63071113564E+02  0.00000000000E+00 0. -1.
        -13    1    4    4    0    0  0.37513623936E+01  0.32612673484E+02 -0.82800215118E+02  0.89070392472E+02  0.00000000000E+00 0.  1.
         13    1    4    4    0    0 -0.47050220762E+02 -0.18056594994E+02 -0.11950191160E+02  0.51793541733E+02  0.00000000000E+00 0. -1.
          1    1    1    2  501    0  0.14590819121E+03 -0.50158907883E+02  0.50167867965E+02  0.16224035034E+03  0.00000000000E+00 0. -1.
<scales pt_clust_5="13000.00000" pt_clust_6="13000.00000" pt_clust_7="13000.00000" pt_clust_8="13000.00000" pt_clust_9="13000.00000"></scales>
<clustering>
<clus scale="   90.121">  5  6 -1 -1</clus>
<clus scale="   93.693">  7  8 -1 -1</clus>
<clus scale="  141.131">  2  5  1 -1</clus>
<clus scale="  119.280">  7  9 -1 -1</clus>
<clus scale="  299.808">  1  5  2 -1</clus>
</clustering>
</event>
<event>
 9    1  0.3312826E-006  0.2030598E+03  0.7546771E-02  0.1157278E+00
         21   -1    0    0  501  502  0.00000000000E+00  0.00000000000E+00  0.36240276480E+03  0.36240276480E+03  0.00000000000E+00 0. -1.
         -3   -1    0    0    0  501 -0.00000000000E+00 -0.00000000000E+00 -0.91904514607E+02  0.91904514607E+02  0.00000000000E+00 0.  1.
         23    2    1    2    0    0 -0.61926644788E+02  0.11517211529E+03  0.14255186356E+03  0.21429989959E+03  0.92216526086E+02 0.  0.
         23    2    1    2    0    0  0.61692169719E+02 -0.27176275944E+02  0.91129838492E+02  0.14461984951E+03  0.89809685606E+02 0.  0.
        -11    1    4    4    0    0  0.72793568491E+02 -0.47983875418E+02  0.80811806523E+02  0.11887768498E+03  0.00000000000E+00 0. -1.
         11    1    4    4    0    0 -0.11101398772E+02  0.20807599473E+02  0.10318031969E+02  0.25742164522E+02  0.00000000000E+00 0.  1.
        -13    1    3    3    0    0 -0.79345488730E+02  0.58784297354E+02  0.71400002531E+02  0.12185754207E+03  0.00000000000E+00 0.  1.
         13    1    3    3    0    0  0.17418843942E+02  0.56387817940E+02  0.71151861027E+02  0.92442357520E+02  0.00000000000E+00 0. -1.
         -3    1    1    2    0  502  0.23447506870E+00 -0.87995839350E+02  0.36816548139E+02  0.95387530309E+02  0.00000000000E+00 0.  1.
<scales pt_clust_5="13000.00000" pt_clust_6="13000.00000" pt_clust_7="13000.00000" pt_clust_8="13000.00000" pt_clust_9="13000.00000"></scales>
<clustering>
<clus scale="   89.810">  5  6 -1 -1</clus>
<clus scale="   87.996">  5  9 -1 -1</clus>
<clus scale="   92.217">  7  8 -1 -1</clus>
<clus scale="  160.011">  2  7  1 -1</clus>
<clus scale="  203.060">  1  5  2 -1</clus>
</clustering>
</event>
<event>
 9    1  0.3312826E-006  0.1843647E+03  0.7546771E-02  0.1188945E+00
         21   -1    0    0  501  502  0.00000000000E+00  0.00000000000E+00  0.14905475586E+03  0.14905475586E+03  0.00000000000E+00 0.  1.
          2   -1    0    0  502    0 -0.00000000000E+00 -0.00000000000E+00 -0.13954669544E+03  0.13954669544E+03  0.00000000000E+00 0. -1.
         23    2    1    2    0    0  0.29306679656E+02  0.40466841655E+02  0.29491256462E+00  0.10400670418E+03  0.91218752426E+02 0.  0.
         23    2    1    2    0    0  0.18504255607E+02  0.16784718537E+02 -0.36773406251E+02  0.96968325119E+02  0.86176785837E+02 0.  0.
        -11    1    4    4    0    0  0.10158274260E+02 -0.27362552923E+02  0.11180271164E+02  0.31255372365E+02  0.00000000000E+00 0.  1.
         11    1    4    4    0    0  0.83459813476E+01  0.44147271460E+02 -0.47953677415E+02  0.65712952754E+02  0.00000000000E+00 0. -1.
        -13    1    3    3    0    0 -0.25333006659E+02 -0.10718395119E+01  0.20337062662E+02  0.32503941053E+02  0.00000000000E+00 0.  1.
         13    1    3    3    0    0  0.54639686315E+02  0.41538681167E+02 -0.20042150097E+02  0.71502763123E+02  0.00000000000E+00 0. -1.
          2    1    1    2  501    0 -0.47810935263E+02 -0.57251560192E+02  0.45986554107E+02  0.87626422008E+02  0.00000000000E+00 0. -1.
<scales pt_clust_5="13000.00000" pt_clust_6="13000.00000" pt_clust_7="13000.00000" pt_clust_8="13000.00000" pt_clust_9="13000.00000"></scales>
<clustering>
<clus scale="   86.177">  5  6 -1 -1</clus>
<clus scale="   74.590">  5  9 -1 -1</clus>
<clus scale="   91.219">  7  8 -1 -1</clus>
<clus scale="  104.006">  2  7  1 -1</clus>
<clus scale="  184.365">  1  5  2 -1</clus>
</clustering>
</event>
<event>
 9    1  0.3312826E-006  0.8986319E+03  0.7546771E-02  0.9761420E-01
         21   -1    0    0  501  502  0.00000000000E+00  0.00000000000E+00  0.16788781583E+03  0.16788781583E+03  0.00000000000E+00 0.  1.
          1   -1    0    0  502    0 -0.00000000000E+00 -0.00000000000E+00 -0.21501995532E+04  0.21501995532E+04  0.00000000000E+00 0. -1.
         23    2    1    2    0    0  0.43329448284E+02  0.26706755447E+03 -0.66180037229E+03  0.72081169511E+03  0.91581915833E+02 0.  0.
         23    2    1    2    0    0 -0.13805954114E+03  0.10931619778E+03  0.22174077401E+02  0.19961952275E+03  0.91355329104E+02 0.  0.
        -11    1    3    3    0    0  0.36988836435E+02  0.10947406277E+03 -0.38790569633E+03  0.40475124914E+03  0.00000000000E+00 0.  1.
         11    1    3    3    0    0  0.63406118486E+01  0.15759349170E+03 -0.27389467596E+03  0.31606044597E+03  0.00000000000E+00 0. -1.
        -11    1    4    4    0    0 -0.47489202456E+02  0.32232210074E+02 -0.35452739018E+02  0.67461369836E+02  0.00000000000E+00 0. -1.
         11    1    4    4    0    0 -0.90570338681E+02  0.77083987709E+02  0.57626816419E+02  0.13215815291E+03  0.00000000000E+00 0.  1.
          1    1    1    2  501    0  0.94730092854E+02 -0.37638375226E+03 -0.13426854425E+04  0.13976561512E+04  0.00000000000E+00 0. -1.
<scales pt_clust_5="13000.00000" pt_clust_6="13000.00000" pt_clust_7="13000.00000" pt_clust_8="13000.00000" pt_clust_9="13000.00000"></scales>
<clustering>
<clus scale="   91.355">  7  8 -1 -1</clus>
<clus scale="   91.582">  5  6 -1 -1</clus>
<clus scale="  285.639">  2  5  1 -1</clus>
<clus scale="  184.674">  7  9 -1 -1</clus>
<clus scale="  898.632">  1  5  2 -1</clus>
</clustering>
</event>
<event>
 9    1  0.3312826E-006  0.1353202E+03  0.7546771E-02  0.1238693E+00
          4   -1    0    0  502    0 -0.00000000000E+00  0.00000000000E+00  0.40929403511E+03  0.40929403511E+03  0.00000000000E+00 0. -1.
         21   -1    0    0  501  502  0.00000000000E+00 -0.00000000000E+00 -0.31593738651E+02  0.31593738651E+02  0.00000000000E+00 0.  1.
         23    2    1    2    0    0 -0.49798694373E+01 -0.30038280552E+01  0.16837755955E+03  0.19163375674E+03  0.91316329764E+02 0.  0.
         23    2    1    2    0    0 -0.27101564192E+02  0.11651704132E+02  0.12009522052E+03  0.15404081506E+03  0.91844726163E+02 0.  0.
        -11    1    3    3    0    0 -0.35527090539E+02  0.29678189067E+02  0.75876859498E+02  0.88883445454E+02  0.00000000000E+00 0.  1.
         11    1    3    3    0    0  0.30547221102E+02 -0.32682017122E+02  0.92500700052E+02  0.10275031129E+03  0.00000000000E+00 0. -1.
        -11    1    4    4    0    0  0.33831680677E+01 -0.33388164009E+02  0.79130190851E+02  0.85952326473E+02  0.00000000000E+00 0. -1.
         11    1    4    4    0    0 -0.30484732259E+02  0.45039868142E+02  0.40965029666E+02  0.68088488592E+02  0.00000000000E+00 0.  1.
          4    1    1    2  501    0  0.32081433629E+02 -0.86478760769E+01  0.89227516392E+02  0.95213201952E+02  0.00000000000E+00 0. -1.
<scales pt_clust_5="13000.00000" pt_clust_6="13000.00000" pt_clust_7="13000.00000" pt_clust_8="13000.00000" pt_clust_9="13000.00000"></scales>
<clustering>
<clus scale="   91.316">  5  6 -1 -1</clus>
<clus scale="   91.501">  1  5  2 -1</clus>
<clus scale="   91.845">  7  8 -1 -1</clus>
<clus scale="   31.652">  7  9 -1 -1</clus>
<clus scale="  135.320">  2  5  1 -1</clus>
</clustering>
</event>
<event>
 9    1  0.3312826E-006  0.3384601E+03  0.7546771E-02  0.1117015E+00
          1   -1    0    0  502    0 -0.00000000000E+00  0.00000000000E+00  0.51589529859E+03  0.51589529859E+03  0.00000000000E+00 0. -1.
         21   -1    0    0  501  502  0.00000000000E+00 -0.00000000000E+00 -0.89877773647E+02  0.89877773647E+02  0.00000000000E+00 0.  1.
         23    2    1    2    0    0 -0.42873769869E+01  0.72488887529E+01  0.79662475005E+02  0.12150348495E+03  0.91356767359E+02 0.  0.
         23    2    1    2    0    0  0.11790079134E+03 -0.10536419458E+03  0.23708306752E+03  0.29859517521E+03  0.89154291264E+02 0.  0.
        -13    1    3    3    0    0 -0.40174630414E+02  0.28240288032E+02  0.33880363270E+02  0.59660655480E+02  0.00000000000E+00 0. -1.
         13    1    3    3    0    0  0.35887253427E+02 -0.20991399280E+02  0.45782111735E+02  0.61842829473E+02  0.00000000000E+00 0.  1.
        -13    1    4    4    0    0  0.56731784901E+02 -0.10147747328E+03  0.18325369666E+03  0.21702094448E+03  0.00000000000E+00 0.  1.
         13    1    4    4    0    0  0.61169006442E+02 -0.38867212982E+01  0.53829370865E+02  0.81574230730E+02  0.00000000000E+00 0. -1.
          1    1    1    2  501    0 -0.11361341436E+03  0.98115305828E+02  0.10927198241E+03  0.18567441207E+03  0.00000000000E+00 0. -1.
<scales pt_clust_5="13000.00000" pt_clust_6="13000.00000" pt_clust_7="13000.00000" pt_clust_8="13000.00000" pt_clust_9="13000.00000"></scales>
<clustering>
<clus scale="   89.154">  7  8 -1 -1</clus>
<clus scale="   91.357">  5  6 -1 -1</clus>
<clus scale="   91.744">  1  5  2 -1</clus>
<clus scale="  152.953">  7  9 -1 -1</clus>
<clus scale="  338.460">  2  5  1 -1</clus>
</clustering>
</event>
<event>
 9    1  0.3312826E-006  0.2814573E+03  0.7546771E-02  0.1103114E+00
         -3   -1    0    0    0  501 -0.00000000000E+00  0.00000000000E+00  0.50287717011E+03  0.50287717011E+03  0.00000000000E+00 0.  1.
         21   -1    0    0  501  502  0.00000000000E+00 -0.00000000000E+00 -0.20511793833E+03  0.20511793833E+03  0.00000000000E+00 0.  1.
         23    2    1    2    0    0  0.11862751204E+03 -0.17422189570E+03  0.35426421485E+03  0.42092186758E+03  0.85125373044E+02 0.  0.
         23    2    1    2    0    0 -0.29114989091E+01  0.84568330926E+02  0.13612286402E+02  0.12476369446E+03  0.90666452965E+02 0.  0.
        -11    1    3    3    0    0  0.12274745112E+03 -0.15397832887E+03  0.34707983015E+03  0.39904970995E+03  0.00000000000E+00 0.  1.
         11    1    3    3    0    0 -0.41199390745E+01 -0.20243566830E+02  0.71843846965E+01  0.21872157631E+02  0.00000000000E+00 0. -1.
        -13    1    4    4    0    0  0.10978341680E+02  0.50064075640E+02 -0.36089773755E+02  0.62684985646E+02  0.00000000000E+00 0.  1.
         13    1    4    4    0    0 -0.13889840589E+02  0.34504255286E+02  0.49702060157E+02  0.62078708816E+02  0.00000000000E+00 0. -1.
         -3    1    1    2    0  502 -0.11571601313E+03  0.89653564772E+02 -0.70117269474E+02  0.16230954639E+03  0.00000000000E+00 0.  1.
<scales pt_clust_5="13000.00000" pt_clust_6="13000.00000" pt_clust_7="13000.00000" pt_clust_8="13000.00000" pt_clust_9="13000.00000"></scales>
<clustering>
<clus scale="   85.125">  5  6 -1 -1</clus>
<clus scale="   90.666">  7  8 -1 -1</clus>
<clus scale="  146.383">  7  9 -1 -1</clus>
<clus scale="  227.315">  1  5  2 -1</clus>
<clus scale="  281.457">  2  5  1 -1</clus>
</clustering>
</event>
<event>
 9    1  0.3312826E-006  0.3207060E+03  0.7546771E-02  0.1105840E+00
         -1   -1    0    0    0  501 -0.00000000000E+00  0.00000000000E+00  0.88678475071E+02  0.88678475071E+02  0.00000000000E+00 0.  1.
         21   -1    0    0  501  502  0.00000000000E+00 -0.00000000000E+00 -0.65204081693E+03  0.65204081693E+03  0.00000000000E+00 0.  1.
         23    2    1    2    0    0  0.10450073858E+03  0.33104259410E+02 -0.90772724815E+02  0.16958595679E+03  0.92213951311E+02 0.  0.
         23    2    1    2    0    0  0.60587415436E+02 -0.88405972931E+02 -0.15311177596E+03  0.20729481463E+03  0.89674262059E+02 0.  0.
        -13    1    3    3    0    0  0.92113240076E+00  0.27871740911E+02 -0.51731502718E+02  0.58769301508E+02  0.00000000000E+00 0.  1.
         13    1    3    3    0    0  0.10357960617E+03  0.52325184994E+01 -0.39041222097E+02  0.11081665528E+03  0.00000000000E+00 0. -1.
        -13    1    4    4    0    0  0.35648153404E+02 -0.83065330135E+02 -0.54748906267E+02  0.10567914955E+03  0.00000000000E+00 0.  1.
         13    1    4    4    0    0  0.24939262033E+02 -0.53406427964E+01 -0.98362869691E+02  0.10161566508E+03  0.00000000000E+00 0. -1.
         -1    1    1    2    0  502 -0.16508815401E+03  0.55301713521E+02 -0.31947784108E+03  0.36383852058E+03  0.00000000000E+00 0.  1.
<scales pt_clust_5="13000.00000" pt_clust_6="13000.00000" pt_clust_7="13000.00000" pt_clust_8="13000.00000" pt_clust_9="13000.00000"></scales>
<clustering>
<clus scale="   89.674">  7  8 -1 -1</clus>
<clus scale="   92.214">  5  6 -1 -1</clus>
<clus scale="  143.247">  1  5  2 -1</clus>
<clus scale="  137.344">  7  9 -1 -1</clus>
<clus scale="  320.706">  2  5  1 -1</clus>
</clustering>
</event>
<event>
 9    1  0.3312826E-006  0.2498393E+03  0.7546771E-02  0.1135425E+00
          1   -1    0    0  502    0 -0.00000000000E+00  0.00000000000E+00  0.86483176398E+02  0.86483176398E+02  0.00000000000E+00 0. -1.
         21   -1    0    0  501  502  0.00000000000E+00 -0.00000000000E+00 -0.97563000868E+03  0.97563000868E+03  0.00000000000E+00 0.  1.
         23    2    1    2    0    0 -0.10614985566E+03  0.35438170441E+02 -0.65394015924E+01  0.14482612897E+03  0.91696172648E+02 0.  0.
         23    2    1    2    0    0  0.11823025400E+03 -0.69766312700E+02 -0.85721965194E+03  0.87291480482E+03  0.91153680370E+02 0.  0.
        -13    1    4    4    0    0  0.12544844348E+03 -0.43938644444E+02 -0.77815827944E+03  0.78942904957E+03  0.00000000000E+00 0.  1.
         13    1    4    4    0    0 -0.72181894829E+01 -0.25827668256E+02 -0.79061372505E+02  0.83485755248E+02  0.00000000000E+00 0. -1.
        -13    1    3    3    0    0 -0.94140188829E+02  0.61321728067E+02 -0.18541584926E+02  0.11387062772E+03  0.00000000000E+00 0. -1.
         13    1    3    3    0    0 -0.12009666830E+02 -0.25883557626E+02  0.12002183334E+02  0.30955501248E+02  0.00000000000E+00 0.  1.
          1    1    1    2  501    0 -0.12080398336E+02  0.34328142259E+02 -0.25387778747E+02  0.44372251291E+02  0.00000000000E+00 0. -1.
<scales pt_clust_5="13000.00000" pt_clust_6="13000.00000" pt_clust_7="13000.00000" pt_clust_8="13000.00000" pt_clust_9="13000.00000"></scales>
<clustering>
<clus scale="   91.154">  5  6 -1 -1</clus>
<clus scale="   36.392">  5  9 -1 -1</clus>
<clus scale="   91.696">  7  8 -1 -1</clus>
<clus scale="  144.678">  1  7  2 -1</clus>
<clus scale="  249.839">  2  5  1 -1</clus>
</clustering>
</event>
<event>
 9    1  0.3312826E-006  0.3732177E+03  0.7546771E-02  0.1107181E+00
         21   -1    0    0  501  502  0.00000000000E+00  0.00000000000E+00  0.50493668564E+03  0.50493668564E+03  0.00000000000E+00 0. -1.
          2   -1    0    0  502    0 -0.00000000000E+00 -0.00000000000E+00 -0.12405299576E+03  0.12405299576E+03  0.00000000000E+00 0. -1.
         23    2    1    2    0    0  0.13777315844E+02  0.10872911482E+02 -0.10188108762E+02  0.88407979520E+02  0.86047304704E+02 0.  0.
         23    2    1    2    0    0 -0.18114222746E+03 -0.12574360126E+02  0.24256202731E+03  0.31682053290E+03  0.92565068310E+02 0.  0.
        -11    1    3    3    0    0 -0.10712207328E+02  0.33195188533E+02 -0.33128323595E+02  0.48105693549E+02  0.00000000000E+00 0.  1.
         11    1    3    3    0    0  0.24489523172E+02 -0.22322277051E+02  0.22940214833E+02  0.40302285971E+02  0.00000000000E+00 0. -1.
        -11    1    4    4    0    0 -0.67275421215E+02  0.39160026876E+02  0.10776755246E+03  0.13294109736E+03  0.00000000000E+00 0.  1.
         11    1    4    4    0    0 -0.11386680624E+03 -0.51734387002E+02  0.13479447485E+03  0.18387943553E+03  0.00000000000E+00 0. -1.
          2    1    1    2  501    0  0.16736491161E+03  0.17014486440E+01  0.14850977133E+03  0.22376116899E+03  0.00000000000E+00 0. -1.
<scales pt_clust_5="13000.00000" pt_clust_6="13000.00000" pt_clust_7="13000.00000" pt_clust_8="13000.00000" pt_clust_9="13000.00000"></scales>
<clustering>
<clus scale="   86.047">  5  6 -1 -1</clus>
<clus scale="   87.819">  2  5  1 -1</clus>
<clus scale="   92.565">  7  8 -1 -1</clus>
<clus scale="  174.447">  7  9 -1 -1</clus>
<clus scale="  373.218">  1  5  2 -1</clus>
</clustering>
</event>
<event>
 9    1  0.3312826E-006  0.5761649E+03  0.7546771E-02  0.1011023E+00
          2   -1    0    0  502    0 -0.00000000000E+00  0.00000000000E+00  0.20275764965E+03  0.20275764965E+03  0.00000000000E+00 0. -1.
         21   -1    0    0  501  502  0.00000000000E+00 -0.00000000000E+00 -0.10823250412E+04  0.10823250412E+04  0.00000000000E+00 0. -1.
         23    2    1    2    0    0  0.48459838999E+02 -0.34121418340E+03 -0.27183388373E+03  0.44764256367E+03  0.87833533000E+02 0.  0.
         23    2    1    2    0    0 -0.30605870900E+02  0.88126300751E+02  0.44019516417E+02  0.13804449872E+03  0.91736588027E+02 0.  0.
        -13    1    4    4    0    0 -0.13385681453E+02 -0.17192021847E+02  0.17847662681E+02  0.28165247138E+02  0.00000000000E+00 0.  1.
         13    1    4    4    0    0 -0.17220189448E+02  0.10531832260E+03  0.26171853735E+02  0.10987925158E+03  0.00000000000E+00 0. -1.
        -13    1    3    3    0    0 -0.71346381992E+01 -0.24024083039E+03 -0.18690788442E+03  0.30446858115E+03  0.00000000000E+00 0.  1.
         13    1    3    3    0    0  0.55594477198E+02 -0.10097335301E+03 -0.84925999310E+02  0.14317398252E+03  0.00000000000E+00 0. -1.
          2    1    1    2  501    0 -0.17853968098E+02  0.25308788264E+03 -0.65175302423E+03  0.69939562846E+03  0.00000000000E+00 0. -1.
<scales pt_clust_5="13000.00000" pt_clust_6="13000.00000" pt_clust_7="13000.00000" pt_clust_8="13000.00000" pt_clust_9="13000.00000"></scales>
<clustering>
<clus scale="   87.834">  7  8 -1 -1</clus>
<clus scale="   91.737">  5  6 -1 -1</clus>
<clus scale="  253.717">  5  9 -1 -1</clus>
<clus scale="  355.655">  1  7  2 -1</clus>
<clus scale="  576.165">  2  5  1 -1</clus>
</clustering>
</event>
<event>
 9    1  0.3312826E-006  0.1629893E+03  0.7546771E-02  0.1213078E+00
          2   -1    0    0  502    0 -0.00000000000E+00  0.00000000000E+00  0.44948836881E+03  0.44948836881E+03  0.00000000000E+00 0. -1.
         21   -1    0    0  501  502  0.00000000000E+00 -0.00000000000E+00 -0.41607139033E+02  0.41607139033E+02  0.00000000000E+00 0. -1.
         23    2    1    2    0    0  0.28069623807E+02 -0.55351171069E+00  0.24473473100E+03  0.26048266565E+03  0.84663571798E+02 0.  0.
         23    2    1    2    0    0 -0.37801955463E+02  0.51289440767E+02  0.11912387026E+03  0.16273910208E+03  0.90740973692E+02 0.  0.
        -11    1    3    3    0    0  0.49871417191E+02 -0.82288377886E+01  0.22333644103E+03  0.22898479844E+03  0.00000000000E+00 0.  1.
         11    1    3    3    0    0 -0.21801793384E+02  0.76753260779E+01  0.21398289974E+02  0.31497867213E+02  0.00000000000E+00 0. -1.
        -13    1    4    4    0    0 -0.32886158477E+01  0.69743676192E+02  0.90239600366E+02  0.11409724290E+03  0.00000000000E+00 0. -1.
         13    1    4    4    0    0 -0.34513339616E+02 -0.18454235425E+02  0.28884269899E+02  0.48641859176E+02  0.00000000000E+00 0.  1.
          2    1    1    2  501    0  0.97323316561E+01 -0.50735929056E+02  0.44022628512E+02  0.67873740119E+02  0.00000000000E+00 0. -1.
<scales pt_clust_5="13000.00000" pt_clust_6="13000.00000" pt_clust_7="13000.00000" pt_clust_8="13000.00000" pt_clust_9="13000.00000"></scales>
<clustering>
<clus scale="   84.664">  5  6 -1 -1</clus>
<clus scale="   89.197">  1  5  2 -1</clus>
<clus scale="   90.741">  7  8 -1 -1</clus>
<clus scale="   53.886">  7  9 -1 -1</clus>
<clus scale="  162.989">  2  5  1 -1</clus>
</clustering>
</event>
<event>
 9    1  0.3312826E-006  0.3348104E+03  0.7546771E-02  0.1105273E+00
         -1   -1    0    0    0  501 -0.00000000000E+00  0.00000000000E+00  0.57952403022E+03  0.57952403022E+03  0.00000000000E+00 0.  1.
         21   -1    0    0  501  502  0.00000000000E+00 -0.00000000000E+00 -0.80769144301E+03  0.80769144301E+03  0.00000000000E+00 0.  1.
         23    2    1    2    0    0  0.27705362408E+02 -0.84604818107E+02  0.53700990262E+03  0.55199434692E+03  0.91610922768E+02 0.  0.
         23    2    1    2    0    0  0.20164184184E+02 -0.33142278348E+01 -0.37390003379E+02  0.10058133452E+03  0.91109901061E+02 0.  0.
        -11    1    3    3    0    0 -0.80598422779E+00 -0.86177187579E+02  0.48558656160E+03  0.49317488386E+03  0.00000000000E+00 0.  1.
         11    1    3    3    0    0  0.28511346636E+02  0.15723694725E+01  0.51423341021E+02  0.58819463059E+02  0.00000000000E+00 0. -1.
        -13    1    4    4    0    0  0.49821822154E+02  0.20862062665E+02 -0.14235551229E+02  0.55857770634E+02  0.00000000000E+00 0. -1.
         13    1    4    4    0    0 -0.29657637970E+02 -0.24176290500E+02 -0.23154452151E+02  0.44723563887E+02  0.00000000000E+00 0.  1.
         -1    1    1    2    0  502 -0.47869546591E+02  0.87919045942E+02 -0.72778731203E+03  0.73463979179E+03  0.00000000000E+00 0.  1.
<scales pt_clust_5="13000.00000" pt_clust_6="13000.00000" pt_clust_7="13000.00000" pt_clust_8="13000.00000" pt_clust_9="13000.00000"></scales>
<clustering>
<clus scale="   91.110">  7  8 -1 -1</clus>
<clus scale="   91.611">  5  6 -1 -1</clus>
<clus scale="  100.106">  7  9 -1 -1</clus>
<clus scale="  127.742">  1  5  2 -1</clus>
<clus scale="  334.810">  2  5  1 -1</clus>
</clustering>
</event>
<event>
 9    1  0.3312826E-006  0.1536732E+03  0.7546771E-02  0.1205686E+00
          1   -1    0    0  502    0 -0.00000000000E+00  0.00000000000E+00  0.32470101068E+03  0.32470101068E+03  0.00000000000E+00 0. -1.
         21   -1    0    0  501  502  0.00000000000E+00 -0.00000000000E+00 -0.61750117677E+02  0.61750117677E+02  0.00000000000E+00 0. -1.
         23    2    1    2    0    0 -0.76186481258E+02  0.34807893403E+02  0.82676709695E+02  0.14956667806E+03  0.92297256134E+02 0.  0.
         23    2    1    2    0    0  0.71690607259E+02 -0.13905545801E+02  0.98521910023E+02  0.15238264437E+03  0.90448859456E+02 0.  0.
        -11    1    3    3    0    0 -0.91037350525E+01 -0.28225706912E+02  0.35086472224E+02  0.45941583079E+02  0.00000000000E+00 0. -1.
         11    1    3    3    0    0 -0.67082746205E+02  0.63033600315E+02  0.47590237470E+02  0.10362509498E+03  0.00000000000E+00 0.  1.
        -13    1    4    4    0    0 -0.16902443256E+01 -0.27109616157E+02 -0.19908106385E+01  0.27235115955E+02  0.00000000000E+00 0.  1.
         13    1    4    4    0    0  0.73380851585E+02  0.13204070356E+02  0.10051272066E+03  0.12514752841E+03  0.00000000000E+00 0. -1.
          1    1    1    2  501    0  0.44958739985E+01 -0.20902347602E+02  0.81752273289E+02  0.84501805935E+02  0.00000000000E+00 0. -1.
<scales pt_clust_5="13000.00000" pt_clust_6="13000.00000" pt_clust_7="13000.00000" pt_clust_8="13000.00000" pt_clust_9="13000.00000"></scales>
<clustering>
<clus scale="   90.449">  7  8 -1 -1</clus>
<clus scale="   21.380">  7  9 -1 -1</clus>
<clus scale="   92.297">  5  6 -1 -1</clus>
<clus scale="  124.639">  1  5  2 -1</clus>
<clus scale="  153.673">  2  5  1 -1</clus>
</clustering>
</event>
<event>
 9    1  0.3312826E-006  0.1727425E+03  0.7546771E-02  0.1198770E+00
         21   -1    0    0  501  502  0.00000000000E+00  0.00000000000E+00  0.28430099909E+03  0.28430099909E+03  0.00000000000E+00 0. -1.
         -1   -1    0    0    0  501 -0.00000000000E+00 -0.00000000000E+00 -0.68341038315E+02  0.68341038315E+02  0.00000000000E+00 0.  1.
         23    2    1    2    0    0  0.21320402140E+02 -0.45352596834E+02  0.51737648457E+02  0.11429579949E+03  0.88743044381E+02 0.  0.
         23    2    1    2    0    0 -0.12169103524E+02  0.77329532781E+02  0.69584335913E+02  0.13803364012E+03  0.89907520705E+02 0.  0.
        -11    1    4    4    0    0 -0.46834195204E+02  0.23300663906E+02  0.16849809363E+02  0.54957063735E+02  0.00000000000E+00 0.  1.
         11    1    4    4    0    0  0.34665091680E+02  0.54028868875E+02  0.52734526550E+02  0.83076576383E+02  0.00000000000E+00 0. -1.
        -11    1    3    3    0    0 -0.64101260412E+01 -0.55838998116E+02  0.18167035599E+01  0.56235076583E+02  0.00000000000E+00 0. -1.
         11    1    3    3    0    0  0.27730528181E+02  0.10486401281E+02  0.49920944897E+02  0.58060722907E+02  0.00000000000E+00 0.  1.
         -1    1    1    2    0  502 -0.91512986152E+01 -0.31976935946E+02  0.94637976406E+02  0.10031259780E+03  0.00000000000E+00 0.  1.
<scales pt_clust_5="13000.00000" pt_clust_6="13000.00000" pt_clust_7="13000.00000" pt_clust_8="13000.00000" pt_clust_9="13000.00000"></scales>
<clustering>
<clus scale="   88.743">  7  8 -1 -1</clus>
<clus scale="   89.908">  5  6 -1 -1</clus>
<clus scale="   33.261">  5  9 -1 -1</clus>
<clus scale="  101.915">  2  7  1 -1</clus>
<clus scale="  172.742">  1  5  2 -1</clus>
</clustering>
</event>
<event>
 9    1  0.3312826E-006  0.3272632E+03  0.7546771E-02  0.1120766E+00
         -2   -1    0    0    0  501 -0.00000000000E+00  0.00000000000E+00  0.24974297817E+03  0.24974297817E+03  0.00000000000E+00 0.  1.
         21   -1    0    0  501  502  0.00000000000E+00 -0.00000000000E+00 -0.31838083424E+03  0.31838083424E+03  0.00000000000E+00 0.  1.
         23    2    1    2    0    0 -0.27148987505E+02 -0.56009819040E+01  0.14884703628E+03  0.17518501387E+03  0.88124402712E+02 0.  0.
         23    2    1    2    0    0 -0.26279481600E+02 -0.80548791465E+01  0.59034176944E+02  0.11097447538E+03  0.89859934935E+02 0.  0.
        -11    1    4    4    0    0 -0.35161249373E+02  0.25798733225E+02  0.15065397995E+01  0.43636656101E+02  0.00000000000E+00 0.  1.
         11    1    4    4    0    0  0.88817677730E+01 -0.33853612372E+02  0.57527637145E+02  0.67337819276E+02  0.00000000000E+00 0. -1.
        -13    1    3    3    0    0 -0.23416129411E+01  0.21088706506E+02 -0.73272829732E+00  0.21230958151E+02  0.00000000000E+00 0. -1.
         13    1    3    3    0    0 -0.24807374564E+02 -0.26689688410E+02  0.14957976458E+03  0.15395405572E+03  0.00000000000E+00 0.  1.
         -2    1    1    2    0  502  0.53428469105E+02  0.13655861051E+02 -0.27651906930E+03  0.28196432317E+03  0.00000000000E+00 0.  1.
<scales pt_clust_5="13000.00000" pt_clust_6="13000.00000" pt_clust_7="13000.00000" pt_clust_8="13000.00000" pt_clust_9="13000.00000"></scales>
<clustering>
<clus scale="   88.124">  7  8 -1 -1</clus>
<clus scale="   89.860">  5  6 -1 -1</clus>
<clus scale="   55.146">  5  9 -1 -1</clus>
<clus scale="   92.382">  1  7  2 -1</clus>
<clus scale="  327.263">  2  5  1 -1</clus>
</clustering>
</event>
<event>
 9    1  0.3312826E-006  0.3219509E+03  0.7546771E-02  0.1116327E+00
          1   -1    0    0  502    0 -0.00000000000E+00  0.00000000000E+00  0.96361760791E+03  0.96361760791E+03  0.00000000000E+00 0. -1.
         21   -1    0    0  501  502  0.00000000000E+00 -0.00000000000E+00 -0.49313154712E+02  0.49313154712E+02  0.00000000000E+00 0. -1.
         23    2    1    2    0    0 -0.17561462318E+02 -0.44961081671E+02  0.30651331269E+03  0.32513540989E+03  0.97122191488E+02 0.  0.
         23    2    1    2    0    0  0.37650577458E+01 -0.11772384502E+03  0.37574972837E+03  0.40407023383E+03  0.90619071684E+02 0.  0.
        -11    1    3    3    0    0 -0.55043391881E+02 -0.13146065249E+02  0.12752572155E+03  0.13951847075E+03  0.00000000000E+00 0.  1.
         11    1    3    3    0    0  0.37481929564E+02 -0.31815016422E+02  0.17898759114E+03  0.18561693914E+03  0.00000000000E+00 0. -1.
        -13    1    4    4    0    0  0.32921957448E+02 -0.72556943397E+02  0.30486599755E+03  0.31510576285E+03  0.00000000000E+00 0. -1.
         13    1    4    4    0    0 -0.29156899703E+02 -0.45166901625E+02  0.70883730815E+02  0.88964470981E+02  0.00000000000E+00 0.  1.
          1    1    1    2  501    0  0.13796404572E+02  0.16268492669E+03  0.23204141214E+03  0.28372511891E+03  0.00000000000E+00 0. -1.
<scales pt_clust_5="13000.00000" pt_clust_6="13000.00000" pt_clust_7="13000.00000" pt_clust_8="13000.00000" pt_clust_9="13000.00000"></scales>
<clustering>
<clus scale="   90.619">  7  8 -1 -1</clus>
<clus scale="   97.122">  5  6 -1 -1</clus>
<clus scale="  108.456">  1  5  2 -1</clus>
<clus scale="  144.946">  7  9 -1 -1</clus>
<clus scale="  321.951">  2  5  1 -1</clus>
</clustering>
</event>
<event>
 9    1  0.3312826E-006  0.1416439E+03  0.7546771E-02  0.1233723E+00
         -2   -1    0    0    0  501 -0.00000000000E+00  0.00000000000E+00  0.50342789497E+03  0.50342789497E+03  0.00000000000E+00 0.  1.
         21   -1    0    0  501  502  0.00000000000E+00 -0.00000000000E+00 -0.39236733888E+02  0.39236733888E+02  0.00000000000E+00 0.  1.
         23    2    1    2    0    0 -0.20626509335E+02 -0.12487095490E+02  0.34927529408E+03  0.36026765941E+03  0.84959843013E+02 0.  0.
         23    2    1    2    0    0  0.29534708729E+02 -0.28435566967E+02  0.61431090348E+02  0.11446581567E+03  0.87451492884E+02 0.  0.
        -13    1    3    3    0    0 -0.39695382354E+01 -0.48429486614E+02  0.20125529380E+03  0.20703831937E+03  0.00000000000E+00 0.  1.
         13    1    3    3    0    0 -0.16656971100E+02  0.35942391125E+02  0.14802000028E+03  0.15322934004E+03  0.00000000000E+00 0. -1.
        -13    1    4    4    0    0 -0.26750178061E+02 -0.18926410306E+02  0.43842026302E+02  0.54734854559E+02  0.00000000000E+00 0. -1.
         13    1    4    4    0    0  0.56284886790E+02 -0.95091566615E+01  0.17589064046E+02  0.59730961112E+02  0.00000000000E+00 0.  1.
         -2    1    1    2    0  502 -0.89081993934E+01  0.40922662457E+02  0.53484776656E+02  0.67931153773E+02  0.00000000000E+00 0.  1.
<scales pt_clust_5="13000.00000" pt_clust_6="13000.00000" pt_clust_7="13000.00000" pt_clust_8="13000.00000" pt_clust_9="13000.00000"></scales>
<clustering>
<clus scale="   84.960">  5  6 -1 -1</clus>
<clus scale="   87.451">  7  8 -1 -1</clus>
<clus scale="   41.881">  7  9 -1 -1</clus>
<clus scale="   88.315">  1  5  2 -1</clus>
<clus scale="  141.644">  2  5  1 -1</clus>
</clustering>
</event>
<event>
 9    1  0.3312826E-006  0.4170135E+03  0.7546771E-02  0.1080873E+00
          1   -1    0    0  502    0 -0.00000000000E+00  0.00000000000E+00  0.81982517003E+03  0.81982517003E+03  0.00000000000E+00 0. -1.
         21   -1    0    0  501  502  0.00000000000E+00 -0.00000000000E+00 -0.90614849731E+02  0.90614849731E+02  0.00000000000E+00 0. -1.
         23    2    1    2    0    0 -0.82816752569E+02 -0.18160588062E+02  0.13341231884E+03  0.18320175084E+03  0.92604606958E+02 0.  0.
         23    2    1    2    0    0 -0.79991038248E+02  0.10196188122E+03  0.49245209210E+03  0.51697792918E+03  0.89231859895E+02 0.  0.
        -11    1    4    4    0    0 -0.13353017766E+01  0.66380551555E+02  0.15426388784E+03  0.16794495452E+03  0.00000000000E+00 0.  1.
         11    1    4    4    0    0 -0.78655736471E+02  0.35581329664E+02  0.33818820426E+03  0.34903297466E+03  0.00000000000E+00 0. -1.
        -13    1    3    3    0    0 -0.43057565242E+01  0.24456023452E+02  0.28382413068E+01  0.24993843963E+02  0.00000000000E+00 0.  1.
         13    1    3    3    0    0 -0.78510996045E+02 -0.42616611513E+02  0.13057407753E+03  0.15820790688E+03  0.00000000000E+00 0. -1.
          1    1    1    2  501    0  0.16280779082E+03 -0.83801293158E+02  0.10334590936E+03  0.21026033974E+03  0.00000000000E+00 0. -1.
<scales pt_clust_5="13000.00000" pt_clust_6="13000.00000" pt_clust_7="13000.00000" pt_clust_8="13000.00000" pt_clust_9="13000.00000"></scales>
<clustering>
<clus scale="   89.232">  5  6 -1 -1</clus>
<clus scale="   92.605">  7  8 -1 -1</clus>
<clus scale="  125.555">  1  7  2 -1</clus>
<clus scale="  168.114">  5  9 -1 -1</clus>
<clus scale="  417.013">  2  5  1 -1</clus>
</clustering>
</event>
<event>
 9    1  0.3312826E-006  0.1542339E+03  0.7546771E-02  0.1215695E+00
         21   -1    0    0  501  502  0.00000000000E+00  0.00000000000E+00  0.71400065477E+02  0.71400065477E+02  0.00000000000E+00 0.  1.
          2   -1    0    0  502    0 -0.00000000000E+00 -0.00000000000E+00 -0.22654851438E+03  0.22654851438E+03  0.00000000000E+00 0. -1.
         23    2    1    2    0    0  0.35682050329E+02  0.23127575289E+02 -0.70486370841E+02  0.12200609737E+03  0.90050351836E+02 0.  0.
         23    2    1    2    0    0 -0.41080687314E+01 -0.45262085272E+02 -0.91165781804E+02  0.13683812201E+03  0.91367057907E+02 0.  0.
        -11    1    4    4    0    0  0.23593710826E+02  0.50333663759E+01  0.51847955794E+01  0.24675495392E+02  0.00000000000E+00 0.  1.
         11    1    4    4    0    0 -0.27701779558E+02 -0.50295451648E+02 -0.96350577383E+02  0.11216262662E+03  0.00000000000E+00 0. -1.
        -11    1    3    3    0    0  0.61677364015E+02  0.35037418985E+02 -0.48357603547E+02  0.85849727908E+02  0.00000000000E+00 0.  1.
         11    1    3    3    0    0 -0.25995313686E+02 -0.11909843696E+02 -0.22128767293E+02  0.36156369458E+02  0.00000000000E+00 0. -1.
          2    1    1    2  501    0 -0.31573981598E+02  0.22134509983E+02  0.65037037451E+01  0.39104360480E+02  0.00000000000E+00 0. -1.
<scales pt_clust_5="13000.00000" pt_clust_6="13000.00000" pt_clust_7="13000.00000" pt_clust_8="13000.00000" pt_clust_9="13000.00000"></scales>
<clustering>
<clus scale="   90.050">  7  8 -1 -1</clus>
<clus scale="   91.367">  5  6 -1 -1</clus>
<clus scale="   38.560">  5  9 -1 -1</clus>
<clus scale="   99.585">  2  7  1 -1</clus>
<clus scale="  154.234">  1  5  2 -1</clus>
</clustering>
</event>
<event>
 9    1  0.3312826E-006  0.1453212E+03  0.7546771E-02  0.1215674E+00
         -1   -1    0    0    0  501 -0.00000000000E+00  0.00000000000E+00  0.85205349431E+02  0.85205349431E+02  0.00000000000E+00 0.  1.
         21   -1    0    0  501  502  0.00000000000E+00 -0.00000000000E+00 -0.20970644214E+03  0.20970644214E+03  0.00000000000E+00 0. -1.
         23    2    1    2    0    0  0.70507610707E+02 -0.40577444717E+02 -0.34603837838E+02  0.12403238247E+03  0.86998586895E+02 0.  0.
         23    2    1    2    0    0 -0.26212399423E+02  0.37540731773E+02 -0.56478265267E+02  0.11530858731E+03  0.89497929775E+02 0.  0.
        -11    1    3    3    0    0  0.27706004797E+02 -0.56514438239E+02  0.55954949852E+01  0.63188717311E+02  0.00000000000E+00 0.  1.
         11    1    3    3    0    0  0.42801605910E+02  0.15936993523E+02 -0.40199332823E+02  0.60843665162E+02  0.00000000000E+00 0. -1.
        -13    1    4    4    0    0 -0.16190744698E+02 -0.25081278198E+02  0.78362619584E+00  0.29863435836E+02  0.00000000000E+00 0.  1.
         13    1    4    4    0    0 -0.10021654725E+02  0.62622009971E+02 -0.57261891463E+02  0.85445151473E+02  0.00000000000E+00 0. -1.
         -1    1    1    2    0  502 -0.44295211284E+02  0.30367129433E+01 -0.33418989606E+02  0.55570821791E+02  0.00000000000E+00 0.  1.
<scales pt_clust_5="13000.00000" pt_clust_6="13000.00000" pt_clust_7="13000.00000" pt_clust_8="13000.00000" pt_clust_9="13000.00000"></scales>
<clustering>
<clus scale="   86.999">  5  6 -1 -1</clus>
<clus scale="   89.498">  7  8 -1 -1</clus>
<clus scale="   44.399">  7  9 -1 -1</clus>
<clus scale="  119.108">  1  5  2 -1</clus>
<clus scale="  145.321">  2  5  1 -1</clus>
</clustering>
</event>
<event>
 9    1  0.3312826E-006  0.6388520E+03  0.7546771E-02  0.1030771E+00
         21   -1    0    0  501  502  0.00000000000E+00  0.00000000000E+00  0.91017016179E+02  0.91017016179E+02  0.00000000000E+00 0. -1.
          1   -1    0    0  502    0 -0.00000000000E+00 -0.00000000000E+00 -0.17563796828E+04  0.17563796828E+04  0.00000000000E+00 0. -1.
         23    2    1    2    0    0  0.88523750138E+02 -0.67172950922E+02 -0.47749394315E+03  0.49863282102E+03  0.91025077773E+02 0.  0.
         23    2    1    2    0    0 -0.34196328595E+03  0.79269934951E+02 -0.84717619199E+03  0.92397059136E+03  0.11309969892E+03 0.  0.
        -11    1    3    3    0    0  0.22481822881E+02 -0.70160282301E+02 -0.30832865579E+03  0.31700860801E+03  0.00000000000E+00 0. -1.
         11    1    3    3    0    0  0.66041927257E+02  0.29873313789E+01 -0.16916528736E+03  0.18162421301E+03  0.00000000000E+00 0.  1.
        -11    1    4    4    0    0 -0.62655894061E+02 -0.54124502240E+01 -0.26962615879E+03  0.27686336193E+03  0.00000000000E+00 0.  1.
         11    1    4    4    0    0 -0.27930739189E+03  0.84682385175E+02 -0.57755003320E+03  0.64710722943E+03  0.00000000000E+00 0. -1.
          1    1    1    2  501    0  0.25343953581E+03 -0.12096984029E+02 -0.34069253149E+03  0.42479328661E+03  0.00000000000E+00 0. -1.
<scales pt_clust_5="13000.00000" pt_clust_6="13000.00000" pt_clust_7="13000.00000" pt_clust_8="13000.00000" pt_clust_9="13000.00000"></scales>
<clustering>
<clus scale="   91.025">  5  6 -1 -1</clus>
<clus scale="  113.100">  7  8 -1 -1</clus>
<clus scale="  143.646">  2  5  1 -1</clus>
<clus scale="  282.017">  7  9 -1 -1</clus>
<clus scale="  638.852">  1  5  2 -1</clus>
</clustering>
</event>
<event>
 9    1  0.3312826E-006  0.3152835E+03  0.7546771E-02  0.1104038E+00
         21   -1    0    0  501  502  0.00000000000E+00  0.00000000000E+00  0.51530187106E+03  0.51530187106E+03  0.00000000000E+00 0.  1.
         -3   -1    0    0    0  501 -0.00000000000E+00 -0.00000000000E+00 -0.14517817694E+03  0.14517817694E+03  0.00000000000E+00 0.  1.
         23    2    1    2    0    0  0.44603807122E+02 -0.11388668009E+03 -0.19673586452E+02  0.15913627234E+03  0.99888075656E+02 0.  0.
         23    2    1    2    0    0  0.55075664298E+00  0.17479550220E+02 -0.31772117173E+01  0.94204707394E+02  0.92512670549E+02 0.  0.
        -11    1    3    3    0    0 -0.27703810068E+02 -0.62562432411E+02 -0.53882684402E+00  0.68424040920E+02  0.00000000000E+00 0.  1.
         11    1    3    3    0    0  0.72307617190E+02 -0.51324247677E+02 -0.19134759608E+02  0.90712231417E+02  0.00000000000E+00 0. -1.
        -13    1    4    4    0    0  0.73264444403E+01 -0.32550350047E+02  0.19732717161E+02  0.38763155224E+02  0.00000000000E+00 0.  1.
         13    1    4    4    0    0 -0.67756877974E+01  0.50029900267E+02 -0.22909928878E+02  0.55441552171E+02  0.00000000000E+00 0. -1.
         -3    1    1    2    0  502 -0.45154563765E+02  0.96407129868E+02  0.39297449229E+03  0.40713906827E+03  0.00000000000E+00 0.  1.
<scales pt_clust_5="13000.00000" pt_clust_6="13000.00000" pt_clust_7="13000.00000" pt_clust_8="13000.00000" pt_clust_9="13000.00000"></scales>
<clustering>
<clus scale="   92.513">  7  8 -1 -1</clus>
<clus scale="   99.888">  5  6 -1 -1</clus>
<clus scale="  106.458">  7  9 -1 -1</clus>
<clus scale="  157.915">  2  5  1 -1</clus>
<clus scale="  315.283">  1  5  2 -1</clus>
</clustering>
</event>
<event>
 9    1  0.3312826E-006  0.4125614E+03  0.7546771E-02  0.1079197E+00
          1   -1    0    0  502    0 -0.00000000000E+00  0.00000000000E+00  0.11299985877E+04  0.11299985877E+04  0.00000000000E+00 0. -1.
         21   -1    0    0  501  502  0.00000000000E+00 -0.00000000000E+00 -0.74966162671E+02  0.74966162671E+02  0.00000000000E+00 0. -1.
         23    2    1    2    0    0  0.98746167560E+02  0.17515867891E+02  0.11300250561E+03  0.17655467542E+03  0.91347555528E+02 0.  0.
         23    2    1    2    0    0 -0.22003357377E+03 -0.10779434762E+03  0.59760772381E+03  0.65226184934E+03  0.90973257508E+02 0.  0.
        -13    1    4    4    0    0 -0.25591616305E+02  0.11096571865E+02  0.31930408613E+02  0.42398298627E+02  0.00000000000E+00 0.  1.
         13    1    4    4    0    0 -0.19444195746E+03 -0.11889091949E+03  0.56567731520E+03  0.60986355072E+03  0.00000000000E+00 0. -1.
        -13    1    3    3    0    0  0.45905551470E+02  0.50115434655E+02  0.83934713802E+02  0.10799959550E+03  0.00000000000E+00 0.  1.
         13    1    3    3    0    0  0.52840616090E+02 -0.32599566765E+02  0.29067791810E+02  0.68555079919E+02  0.00000000000E+00 0. -1.
          1    1    1    2  501    0  0.12128740621E+03  0.90278479733E+02  0.34442219560E+03  0.37614822561E+03  0.00000000000E+00 0. -1.
<scales pt_clust_5="13000.00000" pt_clust_6="13000.00000" pt_clust_7="13000.00000" pt_clust_8="13000.00000" pt_clust_9="13000.00000"></scales>
<clustering>
<clus scale="   90.973">  5  6 -1 -1</clus>
<clus scale="   91.348">  7  8 -1 -1</clus>
<clus scale="  135.654">  1  7  2 -1</clus>
<clus scale="  184.721">  5  9 -1 -1</clus>
<clus scale="  412.561">  2  5  1 -1</clus>
</clustering>
</event>
<event>
 9    1  0.3312826E-006  0.4714340E+03  0.7546771E-02  0.1030259E+00
          1   -1    0    0  502    0 -0.00000000000E+00  0.00000000000E+00  0.15945177080E+04  0.15945177080E+04  0.00000000000E+00 0. -1.
         21   -1    0    0  501  502  0.00000000000E+00 -0.00000000000E+00 -0.10917883349E+03  0.10917883349E+03  0.00000000000E+00 0. -1.
         23    2    1    2    0    0 -0.15085724979E+02 -0.35077059760E+03  0.65975854638E+03  0.75299529931E+03  0.91940143740E+02 0.  0.
         23    2    1    2    0    0 -0.18369993873E+02  0.10432307933E+03  0.59366216586E+03  0.61063992656E+03  0.96049941095E+02 0.  0.
        -13    1    4    4    0    0 -0.56639651983E+02  0.57751588460E+02  0.38714994230E+03  0.39551027037E+03  0.00000000000E+00 0. -1.
         13    1    4    4    0    0  0.38269658110E+02  0.46571490874E+02  0.20651222356E+03  0.21512965620E+03  0.00000000000E+00 0.  1.
        -13    1    3    3    0    0 -0.38260798054E+02 -0.59836157129E+02  0.12401687230E+03  0.14291409652E+03  0.00000000000E+00 0.  1.
         13    1    3    3    0    0  0.23175073075E+02 -0.29093444047E+03  0.53574167407E+03  0.61008120279E+03  0.00000000000E+00 0. -1.
          1    1    1    2  501    0  0.33455718852E+02  0.24644751827E+03  0.23191816229E+03  0.34006131563E+03  0.00000000000E+00 0. -1.
<scales pt_clust_5="13000.00000" pt_clust_6="13000.00000" pt_clust_7="13000.00000" pt_clust_8="13000.00000" pt_clust_9="13000.00000"></scales>
<clustering>
<clus scale="   91.940">  7  8 -1 -1</clus>
<clus scale="   96.050">  5  6 -1 -1</clus>
<clus scale="  248.708">  5  9 -1 -1</clus>
<clus scale="  362.933">  1  7  2 -1</clus>
<clus scale="  471.434">  2  5  1 -1</clus>
</clustering>
</event>
<event>
 9    1  0.3312826E-006  0.1660754E+03  0.7546771E-02  0.1203692E+00
         -3   -1    0    0    0  501 -0.00000000000E+00  0.00000000000E+00  0.91082011837E+03  0.91082011837E+03  0.00000000000E+00 0.  1.
         21   -1    0    0  501  502  0.00000000000E+00 -0.00000000000E+00 -0.20229429131E+02  0.20229429131E+02  0.00000000000E+00 0. -1.
         23    2    1    2    0    0 -0.38832095739E+02 -0.23850799159E+02  0.40193337730E+03  0.41494198448E+03  0.92464146652E+02 0.  0.
         23    2    1    2    0    0  0.55413683515E+02 -0.16633988916E+01  0.46658579095E+03  0.47851666792E+03  0.90567422118E+02 0.  0.
        -11    1    3    3    0    0 -0.45975453069E+02  0.23550318415E+02  0.15446498869E+03  0.16287354762E+03  0.00000000000E+00 0. -1.
         11    1    3    3    0    0  0.71433573294E+01 -0.47401117575E+02  0.24746838861E+03  0.25206843686E+03  0.00000000000E+00 0.  1.
        -13    1    4    4    0    0  0.32821694035E+02  0.43343392025E+02  0.28150354302E+03  0.28670569922E+03  0.00000000000E+00 0. -1.
         13    1    4    4    0    0  0.22591989480E+02 -0.45006790917E+02  0.18508224793E+03  0.19181096871E+03  0.00000000000E+00 0.  1.
         -3    1    1    2    0  502 -0.16581587775E+02  0.25514198051E+02  0.22071520986E+02  0.37590895094E+02  0.00000000000E+00 0.  1.
<scales pt_clust_5="13000.00000" pt_clust_6="13000.00000" pt_clust_7="13000.00000" pt_clust_8="13000.00000" pt_clust_9="13000.00000"></scales>
<clustering>
<clus scale="   90.567">  7  8 -1 -1</clus>
<clus scale="   30.429">  7  9 -1 -1</clus>
<clus scale="   92.464">  5  6 -1 -1</clus>
<clus scale="  103.084">  1  5  2 -1</clus>
<clus scale="  166.075">  2  5  1 -1</clus>
</clustering>
</event>
<event>
 9    1  0.3312826E-006  0.1993427E+03  0.7546771E-02  0.1162707E+00
         21   -1    0    0  501  502  0.00000000000E+00  0.00000000000E+00  0.50762937659E+03  0.50762937659E+03  0.00000000000E+00 0.  1.
          1   -1    0    0  502    0 -0.00000000000E+00 -0.00000000000E+00 -0.17108624720E+03  0.17108624720E+03  0.00000000000E+00 0. -1.
         23    2    1    2    0    0  0.11698328090E+03  0.18176911468E+02  0.43251263905E+03  0.45747441996E+03  0.90554811369E+02 0.  0.
         23    2    1    2    0    0 -0.81264156077E+02 -0.28961406508E+02 -0.12185644141E+03  0.17582871164E+03  0.92866126199E+02 0.  0.
        -13    1    4    4    0    0 -0.77726789277E+02  0.14228774920E+02 -0.55447736288E+02  0.96531669759E+02  0.00000000000E+00 0. -1.
         13    1    4    4    0    0 -0.35373667999E+01 -0.43190181428E+02 -0.66408705121E+02  0.79297041883E+02  0.00000000000E+00 0.  1.
        -13    1    3    3    0    0  0.10331845275E+03 -0.21216880704E+02  0.27490884123E+03  0.29444817828E+03  0.00000000000E+00 0.  1.
         13    1    3    3    0    0  0.13664828145E+02  0.39393792172E+02  0.15760379781E+03  0.16302624168E+03  0.00000000000E+00 0. -1.
          1    1    1    2  501    0 -0.35719124822E+02  0.10784495040E+02  0.25886931747E+02  0.45412492186E+02  0.00000000000E+00 0. -1.
<scales pt_clust_5="13000.00000" pt_clust_6="13000.00000" pt_clust_7="13000.00000" pt_clust_8="13000.00000" pt_clust_9="13000.00000"></scales>
<clustering>
<clus scale="   90.555">  7  8 -1 -1</clus>
<clus scale="   92.866">  5  6 -1 -1</clus>
<clus scale="   37.312">  5  9 -1 -1</clus>
<clus scale="  149.049">  2  7  1 -1</clus>
<clus scale="  199.343">  1  5  2 -1</clus>
</clustering>
</event>
<event>
 9    1  0.3312826E-006  0.1440742E+03  0.7546771E-02  0.1223361E+00
         21   -1    0    0  501  502  0.00000000000E+00  0.00000000000E+00  0.11308975897E+03  0.11308975897E+03  0.00000000000E+00 0. -1.
          2   -1    0    0  502    0 -0.00000000000E+00 -0.00000000000E+00 -0.19961141138E+03  0.19961141138E+03  0.00000000000E+00 0. -1.
         23    2    1    2    0    0  0.46133757256E+02  0.99402179202E+01 -0.12594385914E+03  0.16333089354E+03  0.92671428393E+02 0.  0.
         23    2    1    2    0    0 -0.20180480898E+01  0.15324749799E+02  0.10088269900E+02  0.90676203526E+02  0.88777701152E+02 0.  0.
        -11    1    4    4    0    0  0.32525118484E+02 -0.21248756469E+02 -0.21193430085E+01  0.38908669968E+02  0.00000000000E+00 0. -1.
         11    1    4    4    0    0 -0.34543166574E+02  0.36573506268E+02  0.12207612909E+02  0.51767533558E+02  0.00000000000E+00 0.  1.
        -13    1    3    3    0    0  0.39194463291E+02  0.31911782190E+02 -0.19100771730E+02  0.54031539640E+02  0.00000000000E+00 0. -1.
         13    1    3    3    0    0  0.69392939657E+01 -0.21971564270E+02 -0.10684308740E+03  0.10929935390E+03  0.00000000000E+00 0.  1.
          2    1    1    2  501    0 -0.44115709167E+02 -0.25264967719E+02  0.29333936824E+02  0.58694073284E+02  0.00000000000E+00 0. -1.
<scales pt_clust_5="13000.00000" pt_clust_6="13000.00000" pt_clust_7="13000.00000" pt_clust_8="13000.00000" pt_clust_9="13000.00000"></scales>
<clustering>
<clus scale="   88.778">  5  6 -1 -1</clus>
<clus scale="   50.838">  5  9 -1 -1</clus>
<clus scale="   92.671">  7  8 -1 -1</clus>
<clus scale="  103.996">  2  7  1 -1</clus>
<clus scale="  144.074">  1  5  2 -1</clus>
</clustering>
</event>
<event>
 9    1  0.3312826E-006  0.1784293E+03  0.7546771E-02  0.1194048E+00
          1   -1    0    0  502    0 -0.00000000000E+00  0.00000000000E+00  0.50633794550E+03  0.50633794550E+03  0.00000000000E+00 0. -1.
         21   -1    0    0  501  502  0.00000000000E+00 -0.00000000000E+00 -0.80274530879E+02  0.80274530879E+02  0.00000000000E+00 0.  1.
         23    2    1    2    0    0 -0.48378146658E+02 -0.14288839098E+02  0.39170932198E+03  0.40490604075E+03  0.89264174829E+02 0.  0.
         23    2    1    2    0    0 -0.29039100265E+02  0.20256090156E+02  0.96109031744E+01  0.10021248720E+03  0.93255533875E+02 0.  0.
        -13    1    3    3    0    0  0.82872701529E+01 -0.37802768453E+02  0.11046584207E+03  0.11704883773E+03  0.00000000000E+00 0.  1.
         13    1    3    3    0    0 -0.56665416811E+02  0.23513929355E+02  0.28124347991E+03  0.28785720302E+03  0.00000000000E+00 0. -1.
        -13    1    4    4    0    0 -0.26988741899E+02 -0.28141714906E+02 -0.19604959766E+02  0.43642900392E+02  0.00000000000E+00 0.  1.
         13    1    4    4    0    0 -0.20503583656E+01  0.48397805062E+02  0.29215862941E+02  0.56569586808E+02  0.00000000000E+00 0. -1.
          1    1    1    2  501    0  0.77417246923E+02 -0.59672510579E+01  0.24743189462E+02  0.81493948432E+02  0.00000000000E+00 0. -1.
<scales pt_clust_5="13000.00000" pt_clust_6="13000.00000" pt_clust_7="13000.00000" pt_clust_8="13000.00000" pt_clust_9="13000.00000"></scales>
<clustering>
<clus scale="   89.264">  5  6 -1 -1</clus>
<clus scale="   93.256">  7  8 -1 -1</clus>
<clus scale="   77.647">  7  9 -1 -1</clus>
<clus scale="  102.532">  1  5  2 -1</clus>
<clus scale="  178.429">  2  5  1 -1</clus>
</clustering>
</event>
<event>
 9    1  0.3312826E-006  0.8387506E+03  0.7546771E-02  0.1007954E+00
          1   -1    0    0  502    0 -0.00000000000E+00  0.00000000000E+00  0.64064861241E+03  0.64064861241E+03  0.00000000000E+00 0. -1.
         21   -1    0    0  501  502  0.00000000000E+00 -0.00000000000E+00 -0.40929026779E+03  0.40929026779E+03  0.00000000000E+00 0. -1.
         23    2    1    2    0    0 -0.64135792354E+02 -0.58339522139E+02 -0.85975488307E+02  0.15316502614E+03  0.92470757210E+02 0.  0.
         23    2    1    2    0    0 -0.20372186543E+03  0.12647605172E+03  0.50236191828E+03  0.56416942856E+03  0.91765227995E+02 0.  0.
        -11    1    4    4    0    0 -0.46059962058E+02  0.79133721356E+02  0.16186906629E+03  0.18597112835E+03  0.00000000000E+00 0.  1.
         11    1    4    4    0    0 -0.15766190337E+03  0.47342330360E+02  0.34049285199E+03  0.37819830020E+03  0.00000000000E+00 0. -1.
        -13    1    3    3    0    0  0.11339464741E+02 -0.20034068456E+02  0.10087803948E+02  0.25133864566E+02  0.00000000000E+00 0.  1.
         13    1    3    3    0    0 -0.75475257095E+02 -0.38305453683E+02 -0.96063292255E+02  0.12803116157E+03  0.00000000000E+00 0. -1.
          1    1    1    2  501    0  0.26785765779E+03 -0.68136529577E+02 -0.18502808535E+03  0.33260442551E+03  0.00000000000E+00 0. -1.
<scales pt_clust_5="13000.00000" pt_clust_6="13000.00000" pt_clust_7="13000.00000" pt_clust_8="13000.00000" pt_clust_9="13000.00000"></scales>
<clustering>
<clus scale="   91.765">  5  6 -1 -1</clus>
<clus scale="   92.471">  7  8 -1 -1</clus>
<clus scale="  126.759">  1  7  2 -1</clus>
<clus scale="  270.724">  5  9 -1 -1</clus>
<clus scale="  838.751">  2  5  1 -1</clus>
</clustering>
</event>
<event>
 9    1  0.3312826E-006  0.3126598E+03  0.7546771E-02  0.1117706E+00
         21   -1    0    0  501  502  0.00000000000E+00  0.00000000000E+00  0.30335061511E+03  0.30335061511E+03  0.00000000000E+00 0. -1.
          1   -1    0    0  502    0 -0.00000000000E+00 -0.00000000000E+00 -0.15038130746E+03  0.15038130746E+03  0.00000000000E+00 0. -1.
         23    2    1    2    0    0  0.64996128904E+02 -0.20888598624E+02  0.45931696613E+02  0.12325768518E+03  0.91770942439E+02 0.  0.
         23    2    1    2    0    0 -0.18736543297E+02  0.51794667333E+00 -0.88456608808E+02  0.12855122554E+03  0.91375705868E+02 0.  0.
        -13    1    4    4    0    0  0.25757315571E+02 -0.29688050288E+02 -0.41492101972E+02  0.57152551661E+02  0.00000000000E+00 0.  1.
         13    1    4    4    0    0 -0.44493858869E+02  0.30205996962E+02 -0.46964506836E+02  0.71398673880E+02  0.00000000000E+00 0. -1.
        -13    1    3    3    0    0  0.30207824741E+02 -0.29042982910E+02  0.68999231749E+02  0.80727328172E+02  0.00000000000E+00 0.  1.
         13    1    3    3    0    0  0.34788304163E+02  0.81543842856E+01 -0.23067535136E+02  0.42530357003E+02  0.00000000000E+00 0. -1.
          1    1    1    2  501    0 -0.46259585607E+02  0.20370651951E+02  0.19549421985E+03  0.20192301185E+03  0.00000000000E+00 0. -1.
<scales pt_clust_5="13000.00000" pt_clust_6="13000.00000" pt_clust_7="13000.00000" pt_clust_8="13000.00000" pt_clust_9="13000.00000"></scales>
<clustering>
<clus scale="   91.376">  5  6 -1 -1</clus>
<clus scale="   50.546">  5  9 -1 -1</clus>
<clus scale="   91.771">  7  8 -1 -1</clus>
<clus scale="  114.380">  2  7  1 -1</clus>
<clus scale="  312.660">  1  5  2 -1</clus>
</clustering>
</event>
<event>
 9    1  0.3312826E-006  0.1639717E+03  0.7546771E-02  0.1207173E+00
         21   -1    0    0  501  502  0.00000000000E+00  0.00000000000E+00  0.42986933988E+03  0.42986933988E+03  0.00000000000E+00 0. -1.
          1   -1    0    0  502    0 -0.00000000000E+00 -0.00000000000E+00 -0.44549959561E+02  0.44549959561E+02  0.00000000000E+00 0. -1.
         23    2    1    2    0    0 -0.38002501878E+02  0.95965474177E+01  0.78904974359E+02  0.12689015657E+03  0.91317210786E+02 0.  0.
         23    2    1    2    0    0  0.34972127654E+00 -0.20132585671E+02  0.94762653457E+02  0.13229623570E+03  0.90093785468E+02 0.  0.
        -13    1    4    4    0    0 -0.25969734055E+02  0.23184424038E+02  0.64412439883E+02  0.73218215059E+02  0.00000000000E+00 0. -1.
         13    1    4    4    0    0  0.26319455332E+02 -0.43317009708E+02  0.30350213575E+02  0.59078020643E+02  0.00000000000E+00 0.  1.
        -13    1    3    3    0    0 -0.12508088750E+02  0.40463153489E+02  0.75682314481E+02  0.86726765187E+02  0.00000000000E+00 0.  1.
         13    1    3    3    0    0 -0.25494413127E+02 -0.30866606072E+02  0.32226598772E+01  0.40163391388E+02  0.00000000000E+00 0. -1.
          1    1    1    2  501    0  0.37652780601E+02  0.10536038253E+02  0.21165175250E+03  0.21523290716E+03  0.00000000000E+00 0. -1.
<scales pt_clust_5="13000.00000" pt_clust_6="13000.00000" pt_clust_7="13000.00000" pt_clust_8="13000.00000" pt_clust_9="13000.00000"></scales>
<clustering>
<clus scale="   90.094">  5  6 -1 -1</clus>
<clus scale="   39.099">  5  9 -1 -1</clus>
<clus scale="   91.317">  7  8 -1 -1</clus>
<clus scale="   99.374">  2  7  1 -1</clus>
<clus scale="  163.972">  1  5  2 -1</clus>
</clustering>
</event>
<event>
 9    1  0.3312826E-006  0.2380909E+03  0.7546771E-02  0.1143293E+00
          1   -1    0    0  502    0 -0.00000000000E+00  0.00000000000E+00  0.50809465762E+02  0.50809465762E+02  0.00000000000E+00 0. -1.
         21   -1    0    0  501  502  0.00000000000E+00 -0.00000000000E+00 -0.71529334554E+03  0.71529334554E+03  0.00000000000E+00 0.  1.
         23    2    1    2    0    0 -0.27946731434E+02 -0.93987984354E+02 -0.18699730609E+03  0.23254801304E+03  0.97446523206E+02 0.  0.
         23    2    1    2    0    0  0.89744078503E+02  0.11262778922E+03 -0.29491936308E+03  0.33991301346E+03  0.88455680824E+02 0.  0.
        -11    1    4    4    0    0  0.65678079212E+02  0.24371087256E+02 -0.17917298480E+03  0.19238118013E+03  0.00000000000E+00 0.  1.
         11    1    4    4    0    0  0.24065999291E+02  0.88256701963E+02 -0.11574637828E+03  0.14753183333E+03  0.00000000000E+00 0. -1.
        -13    1    3    3    0    0 -0.13789960425E+01 -0.86641712920E+02 -0.18573540017E+03  0.20495445085E+03  0.00000000000E+00 0.  1.
         13    1    3    3    0    0 -0.26567735392E+02 -0.73462714330E+01 -0.12619059195E+01  0.27593562191E+02  0.00000000000E+00 0. -1.
          1    1    1    2  501    0 -0.61797347069E+02 -0.18639804865E+02 -0.18256721060E+03  0.19364178479E+03  0.00000000000E+00 0. -1.
<scales pt_clust_5="13000.00000" pt_clust_6="13000.00000" pt_clust_7="13000.00000" pt_clust_8="13000.00000" pt_clust_9="13000.00000"></scales>
<clustering>
<clus scale="   88.456">  5  6 -1 -1</clus>
<clus scale="   64.547">  5  9 -1 -1</clus>
<clus scale="   97.447">  7  8 -1 -1</clus>
<clus scale="  138.241">  1  7  2 -1</clus>
<clus scale="  238.091">  2  5  1 -1</clus>
</clustering>
</event>
<event>
 9    1  0.3312826E-006  0.3965904E+03  0.7546771E-02  0.1088412E+00
          1   -1    0    0  502    0 -0.00000000000E+00  0.00000000000E+00  0.10185899503E+04  0.10185899503E+04  0.00000000000E+00 0. -1.
         21   -1    0    0  501  502  0.00000000000E+00 -0.00000000000E+00 -0.71158107246E+02  0.71158107246E+02  0.00000000000E+00 0. -1.
         23    2    1    2    0    0 -0.46783047585E+01 -0.77405197096E+02  0.37362230334E+03  0.39222292703E+03  0.90728980258E+02 0.  0.
         23    2    1    2    0    0  0.13991838303E+03  0.23319221360E+02  0.51236195008E+03  0.53943978076E+03  0.91430679652E+02 0.  0.
        -11    1    3    3    0    0  0.34651449631E+02 -0.65492829848E+01  0.76319969022E+02  0.84073502013E+02  0.00000000000E+00 0. -1.
         11    1    3    3    0    0 -0.39329754390E+02 -0.70855914111E+02  0.29730233432E+03  0.30814942501E+03  0.00000000000E+00 0.  1.
        -13    1    4    4    0    0  0.58631130430E+02  0.33105205242E+02  0.11110408955E+03  0.12991413620E+03  0.00000000000E+00 0. -1.
         13    1    4    4    0    0  0.81287252600E+02 -0.97859838819E+01  0.40125786053E+03  0.40952564456E+03  0.00000000000E+00 0.  1.
          1    1    1    2  501    0 -0.13524007827E+03  0.54085975736E+02  0.61447589662E+02  0.15808534979E+03  0.00000000000E+00 0. -1.
<scales pt_clust_5="13000.00000" pt_clust_6="13000.00000" pt_clust_7="13000.00000" pt_clust_8="13000.00000" pt_clust_9="13000.00000"></scales>
<clustering>
<clus scale="   90.729">  5  6 -1 -1</clus>
<clus scale="   91.431">  7  8 -1 -1</clus>
<clus scale="  119.353">  1  5  2 -1</clus>
<clus scale="  142.011">  7  9 -1 -1</clus>
<clus scale="  396.590">  2  5  1 -1</clus>
</clustering>
</event>
<event>
 9    1  0.3312826E-006  0.5363638E+03  0.7546771E-02  0.1025150E+00
          2   -1    0    0  502    0 -0.00000000000E+00  0.00000000000E+00  0.87833819457E+03  0.87833819457E+03  0.00000000000E+00 0. -1.
         21   -1    0    0  501  502  0.00000000000E+00 -0.00000000000E+00 -0.19914363295E+03  0.19914363295E+03  0.00000000000E+00 0. -1.
         23    2    1    2    0    0 -0.22016063395E+03 -0.15576274313E+03  0.33062456032E+03  0.43780443164E+03  0.98119231481E+02 0.  0.
         23    2    1    2    0    0 -0.11235438207E+03  0.12415372191E+03  0.19071349746E+03  0.27023992904E+03  0.92845717722E+02 0.  0.
        -13    1    3    3    0    0 -0.17295297429E+02 -0.26401443439E+02  0.35415757849E+01  0.31760136773E+02  0.00000000000E+00 0.  1.
         13    1    3    3    0    0 -0.20286533652E+03 -0.12936129969E+03  0.32708298454E+03  0.40604429487E+03  0.00000000000E+00 0. -1.
        -13    1    4    4    0    0 -0.62187436003E+02  0.64662197631E+02  0.16582369660E+03  0.18853640326E+03  0.00000000000E+00 0.  1.
         13    1    4    4    0    0 -0.50166946069E+02  0.59491524278E+02  0.24889800864E+02  0.81703525786E+02  0.00000000000E+00 0. -1.
          2    1    1    2  501    0  0.33251501602E+03  0.31609021220E+02  0.15785650384E+03  0.36943746684E+03  0.00000000000E+00 0. -1.
<scales pt_clust_5="13000.00000" pt_clust_6="13000.00000" pt_clust_7="13000.00000" pt_clust_8="13000.00000" pt_clust_9="13000.00000"></scales>
<clustering>
<clus scale="   92.846">  7  8 -1 -1</clus>
<clus scale="   98.119">  5  6 -1 -1</clus>
<clus scale="  286.985">  1  5  2 -1</clus>
<clus scale="  221.126">  7  9 -1 -1</clus>
<clus scale="  536.364">  2  5  1 -1</clus>
</clustering>
</event>
<event>
 9    1  0.3312826E-006  0.1839243E+03  0.7546771E-02  0.1193510E+00
          1   -1    0    0  502    0 -0.00000000000E+00  0.00000000000E+00  0.37687305079E+02  0.37687305079E+02  0.00000000000E+00 0. -1.
         21   -1    0    0  501  502  0.00000000000E+00 -0.00000000000E+00 -0.58591136590E+03  0.58591136590E+03  0.00000000000E+00 0. -1.
         23    2    1    2    0    0  0.23616720764E+02 -0.22554869562E+00 -0.30040142946E+03  0.31498207822E+03  0.91732711789E+02 0.  0.
         23    2    1    2    0    0 -0.68971777550E+02  0.15294899413E+01 -0.91741399468E+02  0.14607388332E+03  0.90341848413E+02 0.  0.
        -11    1    3    3    0    0  0.56050038513E+02  0.14704951879E+02 -0.20804120623E+03  0.21596061196E+03  0.00000000000E+00 0. -1.
         11    1    3    3    0    0 -0.32433317749E+02 -0.14930500575E+02 -0.92360223221E+02  0.99021466264E+02  0.00000000000E+00 0.  1.
        -13    1    4    4    0    0 -0.68589718866E+02  0.35707752867E+02 -0.49832781542E+02  0.91994017551E+02  0.00000000000E+00 0. -1.
         13    1    4    4    0    0 -0.38205868411E+00 -0.34178262926E+02 -0.41908617926E+02  0.54079865772E+02  0.00000000000E+00 0.  1.
          1    1    1    2  501    0  0.45355056786E+02 -0.13039412457E+01 -0.15608123189E+03  0.16254270943E+03  0.00000000000E+00 0. -1.
<scales pt_clust_5="13000.00000" pt_clust_6="13000.00000" pt_clust_7="13000.00000" pt_clust_8="13000.00000" pt_clust_9="13000.00000"></scales>
<clustering>
<clus scale="   90.342">  7  8 -1 -1</clus>
<clus scale="   45.374">  7  9 -1 -1</clus>
<clus scale="   91.733">  5  6 -1 -1</clus>
<clus scale="   94.724">  1  5  2 -1</clus>
<clus scale="  183.924">  2  5  1 -1</clus>
</clustering>
</event>
<event>
 9    1  0.3312826E-006  0.1386313E+03  0.7546771E-02  0.1229780E+00
          4   -1    0    0  502    0 -0.00000000000E+00  0.00000000000E+00  0.13247707099E+03  0.13247707099E+03  0.00000000000E+00 0. -1.
         21   -1    0    0  501  502  0.00000000000E+00 -0.00000000000E+00 -0.21207896285E+03  0.21207896285E+03  0.00000000000E+00 0. -1.
         23    2    1    2    0    0 -0.18990939634E+02  0.41366358266E+02  0.82458731304E+02  0.13129024548E+03  0.91465046902E+02 0.  0.
         23    2    1    2    0    0  0.15704182514E+01 -0.22214335465E+01 -0.13105104389E+03  0.16037539506E+03  0.92403951505E+02 0.  0.
        -11    1    4    4    0    0 -0.29773322438E+02 -0.35726402087E+02 -0.68793356267E+02  0.83038258661E+02  0.00000000000E+00 0.  1.
         11    1    4    4    0    0  0.31343740689E+02  0.33504968540E+02 -0.62257687627E+02  0.77337136396E+02  0.00000000000E+00 0. -1.
        -11    1    3    3    0    0 -0.10189277747E+02 -0.26488606176E+02  0.45223767184E+02  0.53391541994E+02  0.00000000000E+00 0.  1.
         11    1    3    3    0    0 -0.88016618871E+01  0.67854964442E+02  0.37234964120E+02  0.77898703483E+02  0.00000000000E+00 0. -1.
          4    1    1    2  501    0  0.17420521383E+02 -0.39144924719E+02 -0.31009579271E+02  0.52890393297E+02  0.00000000000E+00 0. -1.
<scales pt_clust_5="13000.00000" pt_clust_6="13000.00000" pt_clust_7="13000.00000" pt_clust_8="13000.00000" pt_clust_9="13000.00000"></scales>
<clustering>
<clus scale="   91.465">  7  8 -1 -1</clus>
<clus scale="   92.404">  5  6 -1 -1</clus>
<clus scale="   42.846">  5  9 -1 -1</clus>
<clus scale="  102.165">  1  7  2 -1</clus>
<clus scale="  138.631">  2  5  1 -1</clus>
</clustering>
</event>
<event>
 9    1  0.3312826E-006  0.1870224E+03  0.7546771E-02  0.1164851E+00
          1   -1    0    0  502    0 -0.00000000000E+00  0.00000000000E+00  0.17182335039E+03  0.17182335039E+03  0.00000000000E+00 0. -1.
         21   -1    0    0  501  502  0.00000000000E+00 -0.00000000000E+00 -0.20865678162E+03  0.20865678162E+03  0.00000000000E+00 0.  1.
         23    2    1    2    0    0  0.10274210403E+03 -0.10184031280E+03  0.43112366110E+02  0.17708716442E+03  0.92594807837E+02 0.  0.
         23    2    1    2    0    0 -0.77938259848E+02  0.10003308958E+03 -0.84649357865E+02  0.17808249104E+03  0.92015588181E+02 0.  0.
        -11    1    4    4    0    0 -0.25794050560E+02  0.41225095835E+02  0.15255958366E+02  0.50966516818E+02  0.00000000000E+00 0. -1.
         11    1    4    4    0    0 -0.52144209288E+02  0.58807993741E+02 -0.99905316231E+02  0.12711597422E+03  0.00000000000E+00 0.  1.
        -13    1    3    3    0    0  0.43145392319E+01 -0.52610145037E+02 -0.11808824830E+02  0.54091505372E+02  0.00000000000E+00 0.  1.
         13    1    3    3    0    0  0.98427564797E+02 -0.49230167765E+02  0.54921190940E+02  0.12299565905E+03  0.00000000000E+00 0. -1.
          1    1    1    2  501    0 -0.24803844181E+02  0.18072232251E+01  0.47035605161E+01  0.25310476556E+02  0.00000000000E+00 0. -1.
<scales pt_clust_5="13000.00000" pt_clust_6="13000.00000" pt_clust_7="13000.00000" pt_clust_8="13000.00000" pt_clust_9="13000.00000"></scales>
<clustering>
<clus scale="   92.016">  5  6 -1 -1</clus>
<clus scale="   24.870">  5  9 -1 -1</clus>
<clus scale="   92.595">  7  8 -1 -1</clus>
<clus scale="  171.759">  1  7  2 -1</clus>
<clus scale="  187.022">  2  5  1 -1</clus>
</clustering>
</event>
<event>
 9    1  0.3312826E-006  0.5690961E+03  0.7546771E-02  0.1055062E+00
          2   -1    0    0  502    0 -0.00000000000E+00  0.00000000000E+00  0.16737557821E+04  0.16737557821E+04  0.00000000000E+00 0. -1.
         21   -1    0    0  501  502  0.00000000000E+00 -0.00000000000E+00 -0.10350284716E+03  0.10350284716E+03  0.00000000000E+00 0. -1.
         23    2    1    2    0    0 -0.14402929687E+02 -0.41931266999E+02 -0.66085734251E+01  0.10084502831E+03  0.90334771583E+02 0.  0.
         23    2    1    2    0    0  0.17483590663E+03  0.14584092356E+03  0.13813354128E+04  0.14029791282E+04  0.91791842704E+02 0.  0.
        -11    1    3    3    0    0 -0.35796251544E+02  0.27247655298E+01  0.23487107957E+02  0.42900352119E+02  0.00000000000E+00 0.  1.
         11    1    3    3    0    0  0.21393321857E+02 -0.44656032529E+02 -0.30095681382E+02  0.57944676193E+02  0.00000000000E+00 0. -1.
        -13    1    4    4    0    0  0.17200608163E+03  0.98962802422E+02  0.11027730799E+04  0.11204856957E+04  0.00000000000E+00 0. -1.
         13    1    4    4    0    0  0.28298249975E+01  0.46878121138E+02  0.27856233285E+03  0.28249343255E+03  0.00000000000E+00 0.  1.
          2    1    1    2  501    0 -0.16043297694E+03 -0.10390965656E+03  0.19552609553E+03  0.27343447268E+03  0.00000000000E+00 0. -1.
<scales pt_clust_5="13000.00000" pt_clust_6="13000.00000" pt_clust_7="13000.00000" pt_clust_8="13000.00000" pt_clust_9="13000.00000"></scales>
<clustering>
<clus scale="   90.335">  5  6 -1 -1</clus>
<clus scale="   91.792">  7  8 -1 -1</clus>
<clus scale="  100.628">  1  5  2 -1</clus>
<clus scale="  196.212">  7  9 -1 -1</clus>
<clus scale="  569.096">  2  5  1 -1</clus>
</clustering>
</event>
<event>
 9    1  0.3312826E-006  0.1762558E+03  0.7546771E-02  0.1195799E+00
         21   -1    0    0  501  502  0.00000000000E+00  0.00000000000E+00  0.55744433435E+02  0.55744433435E+02  0.00000000000E+00 0. -1.
          1   -1    0    0  502    0 -0.00000000000E+00 -0.00000000000E+00 -0.41013506993E+03  0.41013506993E+03  0.00000000000E+00 0. -1.
         23    2    1    2    0    0 -0.39391589730E+02  0.30995722717E+02 -0.49496342256E+02  0.11370536515E+03  0.89255756117E+02 0.  0.
         23    2    1    2    0    0  0.47688934472E+01 -0.50034116689E+02 -0.29428851927E+03  0.31126357716E+03  0.88051841061E+02 0.  0.
        -11    1    4    4    0    0  0.42369540404E+02 -0.41204455467E+02 -0.21638581162E+03  0.22431184671E+03  0.00000000000E+00 0.  1.
         11    1    4    4    0    0 -0.37600646956E+02 -0.88296612226E+01 -0.77902707655E+02  0.86951730453E+02  0.00000000000E+00 0. -1.
        -13    1    3    3    0    0 -0.48883279896E+02  0.51301364955E+02 -0.56053351616E+02  0.90351443414E+02  0.00000000000E+00 0. -1.
         13    1    3    3    0    0  0.94916901669E+01 -0.20305642238E+02  0.65570093598E+01  0.23353921740E+02  0.00000000000E+00 0.  1.
          1    1    1    2  501    0  0.34622696282E+02  0.19038393972E+02 -0.10605774971E+02  0.40910561053E+02  0.00000000000E+00 0. -1.
<scales pt_clust_5="13000.00000" pt_clust_6="13000.00000" pt_clust_7="13000.00000" pt_clust_8="13000.00000" pt_clust_9="13000.00000"></scales>
<clustering>
<clus scale="   88.052">  5  6 -1 -1</clus>
<clus scale="   39.512">  5  9 -1 -1</clus>
<clus scale="   89.256">  7  8 -1 -1</clus>
<clus scale="  102.367">  2  7  1 -1</clus>
<clus scale="  176.256">  1  5  2 -1</clus>
</clustering>
</event>
<event>
 9    1  0.6540448E-006  0.4401557E+03  0.7546771E-02  0.1069208E+00
          1   -1    0    0  502    0 -0.00000000000E+00  0.00000000000E+00  0.42809678471E+03  0.42809678471E+03  0.00000000000E+00 0. -1.
         21   -1    0    0  501  502  0.00000000000E+00 -0.00000000000E+00 -0.25400369729E+03  0.25400369729E+03  0.00000000000E+00 0. -1.
         23    2    1    2    0    0  0.11869651886E+03  0.20832857348E+02  0.19199066420E+03  0.24158104587E+03  0.83535112673E+02 0.  0.
         23    2    1    2    0    0  0.61426375846E+02 -0.11224728551E+02  0.15388913017E+03  0.19142658994E+03  0.95200214130E+02 0.  0.
        -11    1    3    3    0    0  0.41405210030E+02 -0.12362374919E+02  0.15214490214E+02  0.45811575434E+02  0.00000000000E+00 0.  1.
         11    1    3    3    0    0  0.77291308828E+02  0.33195232267E+02  0.17677617399E+03  0.19576947044E+03  0.00000000000E+00 0. -1.
        -11    1    4    4    0    0 -0.22604815935E+02  0.10278901116E+02  0.51942653300E+02  0.57573194661E+02  0.00000000000E+00 0.  1.
         11    1    4    4    0    0  0.84031191781E+02 -0.21503629667E+02  0.10194647687E+03  0.13385339528E+03  0.00000000000E+00 0. -1.
          1    1    1    2  501    0 -0.18012289470E+03 -0.96081287967E+01 -0.17178670695E+03  0.24909284618E+03  0.00000000000E+00 0. -1.
<scales pt_clust_5="13000.00000" pt_clust_6="13000.00000" pt_clust_7="13000.00000" pt_clust_8="13000.00000" pt_clust_9="13000.00000"></scales>
<clustering>
<clus scale="   83.535">  5  6 -1 -1</clus>
<clus scale="   95.200">  7  8 -1 -1</clus>
<clus scale="  146.632">  1  5  2 -1</clus>
<clus scale="  158.517">  7  9 -1 -1</clus>
<clus scale="  440.156">  2  5  1 -1</clus>
</clustering>
</event>
<event>
 9    1  0.3312826E-006  0.2236145E+03  0.7546771E-02  0.1167806E+00
         21   -1    0    0  501  502  0.00000000000E+00  0.00000000000E+00  0.10521326401E+04  0.10521326401E+04  0.00000000000E+00 0.  1.
         -3   -1    0    0    0  501 -0.00000000000E+00 -0.00000000000E+00 -0.31897192308E+02  0.31897192308E+02  0.00000000000E+00 0.  1.
         23    2    1    2    0    0 -0.19558398265E+02 -0.11103940577E+02  0.10059985185E+03  0.13759807238E+03  0.91143134088E+02 0.  0.
         23    2    1    2    0    0  0.42379202162E+02  0.87516268795E+02  0.41722385785E+03  0.43773028808E+03  0.89871928099E+02 0.  0.
        -11    1    4    4    0    0 -0.25857150622E+02  0.43548644510E+02  0.18076340427E+03  0.18772449227E+03  0.00000000000E+00 0. -1.
         11    1    4    4    0    0  0.68236352784E+02  0.43967624286E+02  0.23646045358E+03  0.25000579580E+03  0.00000000000E+00 0.  1.
        -13    1    3    3    0    0 -0.20333650602E+02  0.38871174824E+02  0.45359743848E+02  0.63102550987E+02  0.00000000000E+00 0.  1.
         13    1    3    3    0    0  0.77525233681E+00 -0.49975115401E+02  0.55240108004E+02  0.74495521395E+02  0.00000000000E+00 0. -1.
         -3    1    1    2    0  502 -0.22820803897E+02 -0.76412328218E+02  0.50241173808E+03  0.50870147194E+03  0.00000000000E+00 0.  1.
<scales pt_clust_5="13000.00000" pt_clust_6="13000.00000" pt_clust_7="13000.00000" pt_clust_8="13000.00000" pt_clust_9="13000.00000"></scales>
<clustering>
<clus scale="   89.872">  5  6 -1 -1</clus>
<clus scale="   79.747">  5  9 -1 -1</clus>
<clus scale="   91.143">  7  8 -1 -1</clus>
<clus scale="   93.877">  2  7  1 -1</clus>
<clus scale="  223.615">  1  5  2 -1</clus>
</clustering>
</event>
<event>
 9    1  0.3312826E-006  0.2053179E+03  0.7546771E-02  0.1176293E+00
         21   -1    0    0  501  502  0.00000000000E+00  0.00000000000E+00  0.13720036737E+03  0.13720036737E+03  0.00000000000E+00 0.  1.
          3   -1    0    0  502    0 -0.00000000000E+00 -0.00000000000E+00 -0.17078127398E+03  0.17078127398E+03  0.00000000000E+00 0. -1.
         23    2    1    2    0    0 -0.12867401286E+02  0.35406259596E+02 -0.69703376185E-01  0.99946951698E+02  0.92575456039E+02 0.  0.
         23    2    1    2    0    0 -0.63661830352E+02 -0.43598727940E+02  0.56093610421E+01  0.12169664253E+03  0.93941099359E+02 0.  0.
        -11    1    3    3    0    0  0.26079475443E+02  0.49067510386E+02 -0.12274012777E+02  0.56907038269E+02  0.00000000000E+00 0. -1.
         11    1    3    3    0    0 -0.38946876729E+02 -0.13661250791E+02  0.12204309401E+02  0.43039913430E+02  0.00000000000E+00 0.  1.
        -13    1    4    4    0    0 -0.43121439074E+01 -0.49169453085E+02 -0.24286260261E+02  0.55009564071E+02  0.00000000000E+00 0. -1.
         13    1    4    4    0    0 -0.59349686445E+02  0.55707251445E+01  0.29895621304E+02  0.66687078455E+02  0.00000000000E+00 0.  1.
          3    1    1    2  501    0  0.76529231638E+02  0.81924683448E+01 -0.39120564271E+02  0.86338047126E+02  0.00000000000E+00 0. -1.
<scales pt_clust_5="13000.00000" pt_clust_6="13000.00000" pt_clust_7="13000.00000" pt_clust_8="13000.00000" pt_clust_9="13000.00000"></scales>
<clustering>
<clus scale="   92.575">  5  6 -1 -1</clus>
<clus scale="   93.941">  7  8 -1 -1</clus>
<clus scale="   76.967">  7  9 -1 -1</clus>
<clus scale="   99.947">  2  5  1 -1</clus>
<clus scale="  205.318">  1  5  2 -1</clus>
</clustering>
</event>
<event>
 9    1  0.3312826E-006  0.2647029E+03  0.7546771E-02  0.1140325E+00
          2   -1    0    0  502    0 -0.00000000000E+00  0.00000000000E+00  0.26279752372E+03  0.26279752372E+03  0.00000000000E+00 0. -1.
         21   -1    0    0  501  502  0.00000000000E+00 -0.00000000000E+00 -0.13424658905E+03  0.13424658905E+03  0.00000000000E+00 0. -1.
         23    2    1    2    0    0 -0.51051046785E+02 -0.26686143810E+02  0.15239031408E+02  0.10910802217E+03  0.91400069882E+02 0.  0.
         23    2    1    2    0    0  0.13661765448E+02 -0.64795292557E+02  0.14539555995E+03  0.18403145844E+03  0.91338026419E+02 0.  0.
        -11    1    3    3    0    0 -0.17055894364E+02 -0.55809369641E+02 -0.76066796658E+01  0.58851090455E+02  0.00000000000E+00 0. -1.
         11    1    3    3    0    0 -0.33995152421E+02  0.29123225831E+02  0.22845711074E+02  0.50256931715E+02  0.00000000000E+00 0.  1.
        -13    1    4    4    0    0 -0.21868454939E+02 -0.59723137232E+02  0.13049858486E+03  0.14517218429E+03  0.00000000000E+00 0. -1.
         13    1    4    4    0    0  0.35530220387E+02 -0.50721553252E+01  0.14896975089E+02  0.38859274147E+02  0.00000000000E+00 0.  1.
          2    1    1    2  501    0  0.37389281337E+02  0.91481436366E+02 -0.32083656679E+02  0.10390463216E+03  0.00000000000E+00 0. -1.
<scales pt_clust_5="13000.00000" pt_clust_6="13000.00000" pt_clust_7="13000.00000" pt_clust_8="13000.00000" pt_clust_9="13000.00000"></scales>
<clustering>
<clus scale="   91.338">  7  8 -1 -1</clus>
<clus scale="   91.400">  5  6 -1 -1</clus>
<clus scale="   98.827">  7  9 -1 -1</clus>
<clus scale="  108.039">  1  5  2 -1</clus>
<clus scale="  264.703">  2  5  1 -1</clus>
</clustering>
</event>
<event>
 9    1  0.3312826E-006  0.2050222E+03  0.7546771E-02  0.1167293E+00
         21   -1    0    0  501  502  0.00000000000E+00  0.00000000000E+00  0.79449622926E+02  0.79449622926E+02  0.00000000000E+00 0. -1.
          1   -1    0    0  502    0 -0.00000000000E+00 -0.00000000000E+00 -0.38037851455E+03  0.38037851455E+03  0.00000000000E+00 0. -1.
         23    2    1    2    0    0  0.66394505531E+02 -0.47043244152E+02 -0.19068066569E+03  0.22704331705E+03  0.92564865725E+02 0.  0.
         23    2    1    2    0    0  0.12558057708E+02 -0.27190709942E+02 -0.67604051234E+02  0.11632575973E+03  0.89801643151E+02 0.  0.
        -11    1    3    3    0    0  0.21624698853E+02 -0.44130372851E+02 -0.17123216211E+03  0.17814480275E+03  0.00000000000E+00 0.  1.
         11    1    3    3    0    0  0.44769806678E+02 -0.29128713004E+01 -0.19448503580E+02  0.48898514299E+02  0.00000000000E+00 0. -1.
        -13    1    4    4    0    0 -0.13868826867E+01  0.32870267626E+02 -0.20917589406E+02  0.38986196069E+02  0.00000000000E+00 0.  1.
         13    1    4    4    0    0  0.13944940395E+02 -0.60060977567E+02 -0.46686461828E+02  0.77339563659E+02  0.00000000000E+00 0. -1.
          1    1    1    2  501    0 -0.78952563239E+02  0.74233954093E+02 -0.42644174707E+02  0.11645906070E+03  0.00000000000E+00 0. -1.
<scales pt_clust_5="13000.00000" pt_clust_6="13000.00000" pt_clust_7="13000.00000" pt_clust_8="13000.00000" pt_clust_9="13000.00000"></scales>
<clustering>
<clus scale="   89.802">  7  8 -1 -1</clus>
<clus scale="   92.565">  5  6 -1 -1</clus>
<clus scale="  108.371">  7  9 -1 -1</clus>
<clus scale="  123.246">  2  5  1 -1</clus>
<clus scale="  205.022">  1  5  2 -1</clus>
</clustering>
</event>
<event>
 9    1  0.3312826E-006  0.5475070E+03  0.7546771E-02  0.1020494E+00
          2   -1    0    0  502    0 -0.00000000000E+00  0.00000000000E+00  0.24513929587E+03  0.24513929587E+03  0.00000000000E+00 0. -1.
         21   -1    0    0  501  502  0.00000000000E+00 -0.00000000000E+00 -0.78493118551E+03  0.78493118551E+03  0.00000000000E+00 0.  1.
         23    2    1    2    0    0  0.16852755720E+03  0.24472230991E+03 -0.30226475455E+03  0.43325978209E+03  0.89774776113E+02 0.  0.
         23    2    1    2    0    0 -0.78284387746E+02 -0.60108504111E+02  0.12277821675E+03  0.18202637764E+03  0.91201063682E+02 0.  0.
        -11    1    4    4    0    0 -0.19199535442E+02 -0.48549746952E+02  0.85502516364E+01  0.52903751222E+02  0.00000000000E+00 0.  1.
         11    1    4    4    0    0 -0.59084852304E+02 -0.11558757159E+02  0.11422796511E+03  0.12912262642E+03  0.00000000000E+00 0. -1.
        -11    1    3    3    0    0  0.13855666106E+03  0.23830474436E+03 -0.24731624248E+03  0.37034095547E+03  0.00000000000E+00 0.  1.
         11    1    3    3    0    0  0.29970896142E+02  0.64175655486E+01 -0.54948512073E+02  0.62918826612E+02  0.00000000000E+00 0. -1.
          2    1    1    2  501    0 -0.90243169455E+02 -0.18461380580E+03 -0.36030535184E+03  0.41478432165E+03  0.00000000000E+00 0. -1.
<scales pt_clust_5="13000.00000" pt_clust_6="13000.00000" pt_clust_7="13000.00000" pt_clust_8="13000.00000" pt_clust_9="13000.00000"></scales>
<clustering>
<clus scale="   89.775">  7  8 -1 -1</clus>
<clus scale="   91.201">  5  6 -1 -1</clus>
<clus scale="  205.490">  5  9 -1 -1</clus>
<clus scale="  310.403">  1  7  2 -1</clus>
<clus scale="  547.507">  2  5  1 -1</clus>
</clustering>
</event>
<event>
 9    1  0.3312826E-006  0.3203693E+03  0.7546771E-02  0.1098826E+00
         21   -1    0    0  501  502  0.00000000000E+00  0.00000000000E+00  0.26166700996E+03  0.26166700996E+03  0.00000000000E+00 0.  1.
         -3   -1    0    0    0  501 -0.00000000000E+00 -0.00000000000E+00 -0.23200922710E+03  0.23200922710E+03  0.00000000000E+00 0.  1.
         23    2    1    2    0    0 -0.13346497522E+03 -0.57321956654E+02  0.16521108122E+02  0.17303776300E+03  0.92576530970E+02 0.  0.
         23    2    1    2    0    0  0.81872881839E+02  0.29311702350E+01  0.13260463107E+03  0.17959701087E+03  0.89215119768E+02 0.  0.
        -13    1    4    4    0    0  0.59788891902E+02  0.42861969949E+02  0.65821306532E+02  0.98713243571E+02  0.00000000000E+00 0. -1.
         13    1    4    4    0    0  0.22083989937E+02 -0.39930799714E+02  0.66783324534E+02  0.80883767303E+02  0.00000000000E+00 0.  1.
        -13    1    3    3    0    0 -0.11499815304E+03 -0.80271083664E+02  0.21421012497E+01  0.14025908410E+03  0.00000000000E+00 0.  1.
         13    1    3    3    0    0 -0.18466822179E+02  0.22949127009E+02  0.14379006873E+02  0.32778678902E+02  0.00000000000E+00 0. -1.
         -3    1    1    2    0  502  0.51592093381E+02  0.54390786419E+02 -0.11946795633E+03  0.14104146318E+03  0.00000000000E+00 0.  1.
<scales pt_clust_5="13000.00000" pt_clust_6="13000.00000" pt_clust_7="13000.00000" pt_clust_8="13000.00000" pt_clust_9="13000.00000"></scales>
<clustering>
<clus scale="   89.215">  5  6 -1 -1</clus>
<clus scale="   74.967">  5  9 -1 -1</clus>
<clus scale="   92.577">  7  8 -1 -1</clus>
<clus scale="  172.247">  2  7  1 -1</clus>
<clus scale="  320.369">  1  5  2 -1</clus>
</clustering>
</event>
<event>
 9    1  0.3312826E-006  0.2130417E+03  0.7546771E-02  0.1173773E+00
         21   -1    0    0  501  502  0.00000000000E+00  0.00000000000E+00  0.12053302007E+03  0.12053302007E+03  0.00000000000E+00 0.  1.
          1   -1    0    0  502    0 -0.00000000000E+00 -0.00000000000E+00 -0.32455269285E+03  0.32455269285E+03  0.00000000000E+00 0. -1.
         23    2    1    2    0    0 -0.15270900558E+02  0.27071873420E+02 -0.21167733873E+03  0.23190645232E+03  0.89483071918E+02 0.  0.
         23    2    1    2    0    0 -0.62558738828E+02  0.77100622388E+01  0.40085038789E+02  0.12197196745E+03  0.96422557767E+02 0.  0.
        -11    1    4    4    0    0 -0.71452358441E+02  0.37886897943E+02  0.16224305496E+02  0.82486875631E+02  0.00000000000E+00 0. -1.
         11    1    4    4    0    0  0.88936196131E+01 -0.30176835705E+02  0.23860733293E+02  0.39485091823E+02  0.00000000000E+00 0.  1.
        -13    1    3    3    0    0 -0.55137643918E+01  0.54866462950E+02 -0.81258251554E+02  0.98202005071E+02  0.00000000000E+00 0. -1.
         13    1    3    3    0    0 -0.97571361664E+01 -0.27794589530E+02 -0.13041908718E+03  0.13370444724E+03  0.00000000000E+00 0.  1.
          1    1    1    2  501    0  0.77829639386E+02 -0.34781935659E+02 -0.32427372839E+02  0.91207293154E+02  0.00000000000E+00 0. -1.
<scales pt_clust_5="13000.00000" pt_clust_6="13000.00000" pt_clust_7="13000.00000" pt_clust_8="13000.00000" pt_clust_9="13000.00000"></scales>
<clustering>
<clus scale="   89.483">  7  8 -1 -1</clus>
<clus scale="   94.728">  2  7  1 -1</clus>
<clus scale="   96.423">  5  6 -1 -1</clus>
<clus scale="   71.092">  5  9 -1 -1</clus>
<clus scale="  213.042">  1  5  2 -1</clus>
</clustering>
</event>
<event>
 9    1  0.3312826E-006  0.3743634E+03  0.7546771E-02  0.1098255E+00
         21   -1    0    0  501  502  0.00000000000E+00  0.00000000000E+00  0.29294167890E+03  0.29294167890E+03  0.00000000000E+00 0.  1.
         -4   -1    0    0    0  501 -0.00000000000E+00 -0.00000000000E+00 -0.21822233113E+03  0.21822233113E+03  0.00000000000E+00 0.  1.
         23    2    1    2    0    0  0.36215493358E+01  0.61998536292E+02  0.81801772637E+02  0.13673364633E+03  0.90264200605E+02 0.  0.
         23    2    1    2    0    0 -0.52680517490E+02  0.67482101183E+02 -0.13638858609E+03  0.18497825586E+03  0.91027676136E+02 0.  0.
        -11    1    3    3    0    0  0.29231738666E+02  0.71521875186E+02  0.76828934116E+02  0.10896126969E+03  0.00000000000E+00 0.  1.
         11    1    3    3    0    0 -0.25610189330E+02 -0.95233388948E+01  0.49728385210E+01  0.27772376639E+02  0.00000000000E+00 0. -1.
        -13    1    4    4    0    0 -0.72728939973E+02  0.27152679831E+02 -0.68639263583E+02  0.10362487750E+03  0.00000000000E+00 0. -1.
         13    1    4    4    0    0  0.20048422484E+02  0.40329421352E+02 -0.67749322505E+02  0.81353378360E+02  0.00000000000E+00 0.  1.
         -4    1    1    2    0  502  0.49058968154E+02 -0.12948063747E+03  0.12930616122E+03  0.18945210784E+03  0.00000000000E+00 0.  1.
<scales pt_clust_5="13000.00000" pt_clust_6="13000.00000" pt_clust_7="13000.00000" pt_clust_8="13000.00000" pt_clust_9="13000.00000"></scales>
<clustering>
<clus scale="   90.264">  5  6 -1 -1</clus>
<clus scale="   91.028">  7  8 -1 -1</clus>
<clus scale="  109.565">  2  5  1 -1</clus>
<clus scale="  129.587">  7  9 -1 -1</clus>
<clus scale="  374.363">  1  5  2 -1</clus>
</clustering>
</event>
<event>
 9    1  0.3312826E-006  0.1363869E+03  0.7546771E-02  0.1233592E+00
         21   -1    0    0  501  502  0.00000000000E+00  0.00000000000E+00  0.90366203680E+02  0.90366203680E+02  0.00000000000E+00 0.  1.
         -2   -1    0    0    0  501 -0.00000000000E+00 -0.00000000000E+00 -0.17798623449E+03  0.17798623449E+03  0.00000000000E+00 0.  1.
         23    2    1    2    0    0 -0.37609405468E+02 -0.12519377377E+02 -0.87037490696E+02  0.13196425370E+03  0.90927648588E+02 0.  0.
         23    2    1    2    0    0 -0.61890597056E+01 -0.62010421767E+01  0.98888309108E+01  0.87619246908E+02  0.86617469761E+02 0.  0.
        -13    1    3    3    0    0  0.14885306631E+01 -0.47016339387E+02 -0.40300225551E+02  0.61942393176E+02  0.00000000000E+00 0.  1.
         13    1    3    3    0    0 -0.39097936131E+02  0.34496962011E+02 -0.46737265145E+02  0.70021860522E+02  0.00000000000E+00 0. -1.
        -13    1    4    4    0    0  0.16803438125E+02 -0.32586725058E+02 -0.19849998528E+02  0.41692596758E+02  0.00000000000E+00 0.  1.
         13    1    4    4    0    0 -0.22992497831E+02  0.26385682881E+02  0.29738829439E+02  0.45926650150E+02  0.00000000000E+00 0. -1.
         -2    1    1    2    0  502  0.43798465173E+02  0.18720419554E+02 -0.10471371021E+02  0.48768937561E+02  0.00000000000E+00 0.  1.
<scales pt_clust_5="13000.00000" pt_clust_6="13000.00000" pt_clust_7="13000.00000" pt_clust_8="13000.00000" pt_clust_9="13000.00000"></scales>
<clustering>
<clus scale="   86.617">  7  8 -1 -1</clus>
<clus scale="   47.632">  7  9 -1 -1</clus>
<clus scale="   90.928">  5  6 -1 -1</clus>
<clus scale="   99.192">  2  5  1 -1</clus>
<clus scale="  136.387">  1  5  2 -1</clus>
</clustering>
</event>
<event>
 9    1  0.3312826E-006  0.6178692E+03  0.7546771E-02  0.1046586E+00
          1   -1    0    0  502    0 -0.00000000000E+00  0.00000000000E+00  0.25939732133E+03  0.25939732133E+03  0.00000000000E+00 0. -1.
         21   -1    0    0  501  502  0.00000000000E+00 -0.00000000000E+00 -0.51732265150E+03  0.51732265150E+03  0.00000000000E+00 0.  1.
         23    2    1    2    0    0  0.61781624089E+01  0.24850543046E+02  0.15062474107E+02  0.10123147691E+03  0.96774038932E+02 0.  0.
         23    2    1    2    0    0  0.14172942413E+03 -0.18952338805E+03 -0.35745922736E+03  0.43857243197E+03  0.92532883770E+02 0.  0.
        -11    1    3    3    0    0 -0.28284625526E+02  0.15486378936E+02 -0.29788061634E+02  0.43899619469E+02  0.00000000000E+00 0.  1.
         11    1    3    3    0    0  0.34462787935E+02  0.93641641098E+01  0.44850535740E+02  0.57331857443E+02  0.00000000000E+00 0. -1.
        -13    1    4    4    0    0  0.10243661555E+03 -0.62401648624E+02 -0.14918438597E+03  0.19142415462E+03  0.00000000000E+00 0.  1.
         13    1    4    4    0    0  0.39292808586E+02 -0.12712173942E+03 -0.20827484140E+03  0.24714827735E+03  0.00000000000E+00 0. -1.
          1    1    1    2  501    0 -0.14790758654E+03  0.16467284500E+03  0.84471423084E+02  0.23691606394E+03  0.00000000000E+00 0. -1.
<scales pt_clust_5="13000.00000" pt_clust_6="13000.00000" pt_clust_7="13000.00000" pt_clust_8="13000.00000" pt_clust_9="13000.00000"></scales>
<clustering>
<clus scale="   92.533">  7  8 -1 -1</clus>
<clus scale="   96.774">  5  6 -1 -1</clus>
<clus scale="  100.105">  1  5  2 -1</clus>
<clus scale="  233.426">  7  9 -1 -1</clus>
<clus scale="  617.869">  2  5  1 -1</clus>
</clustering>
</event>
<event>
 9    1  0.3312826E-006  0.8646054E+03  0.7546771E-02  0.9747738E-01
          2   -1    0    0  502    0 -0.00000000000E+00  0.00000000000E+00  0.45128898817E+03  0.45128898817E+03  0.00000000000E+00 0. -1.
         21   -1    0    0  501  502  0.00000000000E+00 -0.00000000000E+00 -0.84708028998E+03  0.84708028998E+03  0.00000000000E+00 0. -1.
         23    2    1    2    0    0  0.29266873528E+03 -0.13631400978E+03 -0.25700129887E+03  0.42269518861E+03  0.91569956739E+02 0.  0.
         23    2    1    2    0    0 -0.19605231558E+03  0.48612234936E+02  0.32489760005E+03  0.39397654229E+03  0.94124415131E+02 0.  0.
        -11    1    4    4    0    0 -0.17298539580E+03  0.44769871066E+01  0.25250744727E+03  0.30611109340E+03  0.00000000000E+00 0. -1.
         11    1    4    4    0    0 -0.23066919782E+02  0.44135247830E+02  0.72390152774E+02  0.87865448886E+02  0.00000000000E+00 0.  1.
        -13    1    3    3    0    0  0.93914897704E+02 -0.83216680077E+02 -0.13125356065E+03  0.18158337214E+03  0.00000000000E+00 0.  1.
         13    1    3    3    0    0  0.19875383758E+03 -0.53097329705E+02 -0.12574773822E+03  0.24111181647E+03  0.00000000000E+00 0. -1.
          2    1    1    2  501    0 -0.96616419698E+02  0.87701774846E+02 -0.46368760298E+03  0.48169754725E+03  0.00000000000E+00 0. -1.
<scales pt_clust_5="13000.00000" pt_clust_6="13000.00000" pt_clust_7="13000.00000" pt_clust_8="13000.00000" pt_clust_9="13000.00000"></scales>
<clustering>
<clus scale="   91.570">  7  8 -1 -1</clus>
<clus scale="   94.124">  5  6 -1 -1</clus>
<clus scale="  130.485">  5  9 -1 -1</clus>
<clus scale="  335.592">  1  7  2 -1</clus>
<clus scale="  864.605">  2  5  1 -1</clus>
</clustering>
</event>
<event>
 9    1  0.3312826E-006  0.2211097E+03  0.7546771E-02  0.1172182E+00
         21   -1    0    0  501  502  0.00000000000E+00  0.00000000000E+00  0.12414115311E+03  0.12414115311E+03  0.00000000000E+00 0.  1.
          1   -1    0    0  502    0 -0.00000000000E+00 -0.00000000000E+00 -0.27571790439E+03  0.27571790439E+03  0.00000000000E+00 0. -1.
         23    2    1    2    0    0  0.19675360605E+02 -0.14949292142E+02 -0.15562618378E+03  0.17871223939E+03  0.84308684480E+02 0.  0.
         23    2    1    2    0    0 -0.77629756157E+02 -0.40317612611E+02 -0.35188982308E+02  0.13196836823E+03  0.92333616907E+02 0.  0.
        -11    1    4    4    0    0  0.13997263312E+02 -0.20140198716E+02 -0.28944276621E+02  0.37938399197E+02  0.00000000000E+00 0. -1.
         11    1    4    4    0    0 -0.91627019468E+02 -0.20177413895E+02 -0.62447056874E+01  0.94029969038E+02  0.00000000000E+00 0.  1.
        -11    1    3    3    0    0  0.49749428407E+02  0.69732681699E+01 -0.80833782846E+02  0.95172120629E+02  0.00000000000E+00 0.  1.
         11    1    3    3    0    0 -0.30074067802E+02 -0.21922560312E+02 -0.74792400935E+02  0.83540118760E+02  0.00000000000E+00 0. -1.
          1    1    1    2  501    0  0.57954395551E+02  0.55266904752E+02  0.39238414817E+02  0.89178449875E+02  0.00000000000E+00 0. -1.
<scales pt_clust_5="13000.00000" pt_clust_6="13000.00000" pt_clust_7="13000.00000" pt_clust_8="13000.00000" pt_clust_9="13000.00000"></scales>
<clustering>
<clus scale="   84.309">  7  8 -1 -1</clus>
<clus scale="   87.855">  2  7  1 -1</clus>
<clus scale="   92.334">  5  6 -1 -1</clus>
<clus scale="   81.179">  5  9 -1 -1</clus>
<clus scale="  221.110">  1  5  2 -1</clus>
</clustering>
</event>
<event>
 9    1  0.3312826E-006  0.1999683E+03  0.7546771E-02  0.1182316E+00
         21   -1    0    0  501  502  0.00000000000E+00  0.00000000000E+00  0.10306511552E+03  0.10306511552E+03  0.00000000000E+00 0.  1.
         -1   -1    0    0    0  501 -0.00000000000E+00 -0.00000000000E+00 -0.35627479220E+03  0.35627479220E+03  0.00000000000E+00 0.  1.
         23    2    1    2    0    0 -0.18136068735E+02 -0.14245577799E+02 -0.24116582062E+03  0.25900920511E+03  0.91613109435E+02 0.  0.
         23    2    1    2    0    0 -0.11212674441E+02 -0.66129383926E+02  0.31134613573E+01  0.11343290362E+03  0.91424889913E+02 0.  0.
        -11    1    4    4    0    0  0.11457108360E+02 -0.37921779768E+02 -0.40572537982E+02  0.56705004639E+02  0.00000000000E+00 0. -1.
         11    1    4    4    0    0 -0.22669782800E+02 -0.28207604158E+02  0.43685999340E+02  0.56727898982E+02  0.00000000000E+00 0.  1.
        -13    1    3    3    0    0  0.37107705886E+02  0.19509789417E+00 -0.85697833052E+02  0.93387035980E+02  0.00000000000E+00 0.  1.
         13    1    3    3    0    0 -0.55243774621E+02 -0.14440675693E+02 -0.15546798757E+03  0.16562216913E+03  0.00000000000E+00 0. -1.
         -1    1    1    2    0  502  0.29348743175E+02  0.80374961725E+02 -0.15157317424E+02  0.86897798992E+02  0.00000000000E+00 0.  1.
<scales pt_clust_5="13000.00000" pt_clust_6="13000.00000" pt_clust_7="13000.00000" pt_clust_8="13000.00000" pt_clust_9="13000.00000"></scales>
<clustering>
<clus scale="   91.425">  5  6 -1 -1</clus>
<clus scale="   85.566">  5  9 -1 -1</clus>
<clus scale="   91.613">  7  8 -1 -1</clus>
<clus scale="   94.471">  2  7  1 -1</clus>
<clus scale="  199.968">  1  5  2 -1</clus>
</clustering>
</event>
<event>
 9    1  0.3312826E-006  0.1689355E+03  0.7546771E-02  0.1203776E+00
         21   -1    0    0  501  502  0.00000000000E+00  0.00000000000E+00  0.29896442236E+02  0.29896442236E+02  0.00000000000E+00 0. -1.
          3   -1    0    0  502    0 -0.00000000000E+00 -0.00000000000E+00 -0.61266433510E+03  0.61266433510E+03  0.00000000000E+00 0. -1.
         23    2    1    2    0    0 -0.25975591439E+02 -0.31685491670E+02 -0.26885843238E+03  0.28608027978E+03  0.88760171734E+02 0.  0.
         23    2    1    2    0    0  0.61994096376E+02  0.58034443102E+02 -0.25127518676E+03  0.27957372162E+03  0.88379758807E+02 0.  0.
        -11    1    4    4    0    0 -0.20856156802E+02  0.12508439951E+02 -0.83822921708E+02  0.87279565479E+02  0.00000000000E+00 0.  1.
         11    1    4    4    0    0  0.82850253177E+02  0.45526003151E+02 -0.16745226505E+03  0.19229415614E+03  0.00000000000E+00 0. -1.
        -13    1    3    3    0    0 -0.29851787022E+02 -0.60367568270E+02 -0.20918386113E+03  0.21975727575E+03  0.00000000000E+00 0.  1.
         13    1    3    3    0    0  0.38761955829E+01  0.28682076601E+02 -0.59674571253E+02  0.66323004037E+02  0.00000000000E+00 0. -1.
          3    1    1    2  501    0 -0.36018504936E+02 -0.26348951433E+02 -0.62634273717E+02  0.76906775928E+02  0.00000000000E+00 0. -1.
<scales pt_clust_5="13000.00000" pt_clust_6="13000.00000" pt_clust_7="13000.00000" pt_clust_8="13000.00000" pt_clust_9="13000.00000"></scales>
<clustering>
<clus scale="   88.380">  5  6 -1 -1</clus>
<clus scale="   44.627">  5  9 -1 -1</clus>
<clus scale="   88.760">  7  8 -1 -1</clus>
<clus scale="   97.760">  2  7  1 -1</clus>
<clus scale="  168.935">  1  5  2 -1</clus>
</clustering>
</event>
<event>
 9    1  0.3312826E-006  0.1427802E+03  0.7546771E-02  0.1223430E+00
         -1   -1    0    0    0  501 -0.00000000000E+00  0.00000000000E+00  0.23890781292E+03  0.23890781292E+03  0.00000000000E+00 0.  1.
         21   -1    0    0  501  502  0.00000000000E+00 -0.00000000000E+00 -0.67675522849E+02  0.67675522849E+02  0.00000000000E+00 0.  1.
         23    2    1    2    0    0 -0.22953921868E+02  0.28880970045E+02  0.10313956921E+03  0.14839734323E+03  0.10011497281E+03 0.  0.
         23    2    1    2    0    0  0.63466590638E+01  0.71583915152E+01  0.74458505268E+02  0.11799693967E+03  0.91036729481E+02 0.  0.
        -11    1    3    3    0    0 -0.42911655143E+02 -0.25130626349E+01  0.10254709030E+03  0.11119186733E+03  0.00000000000E+00 0. -1.
         11    1    3    3    0    0  0.19957733275E+02  0.31394032680E+02  0.59247890834E+00  0.37205475896E+02  0.00000000000E+00 0.  1.
        -11    1    4    4    0    0 -0.28864291697E+02 -0.72616491513E+01 -0.47341031221E+01  0.30137860175E+02  0.00000000000E+00 0. -1.
         11    1    4    4    0    0  0.35210950760E+02  0.14420040666E+02  0.79192608390E+02  0.87859079496E+02  0.00000000000E+00 0.  1.
         -1    1    1    2    0  502  0.16607262804E+02 -0.36039361560E+02 -0.63657844081E+01  0.40189052871E+02  0.00000000000E+00 0.  1.
<scales pt_clust_5="13000.00000" pt_clust_6="13000.00000" pt_clust_7="13000.00000" pt_clust_8="13000.00000" pt_clust_9="13000.00000"></scales>
<clustering>
<clus scale="   91.037">  7  8 -1 -1</clus>
<clus scale="   39.682">  7  9 -1 -1</clus>
<clus scale="  100.115">  5  6 -1 -1</clus>
<clus scale="  106.696">  1  5  2 -1</clus>
<clus scale="  142.780">  2  5  1 -1</clus>
</clustering>
</event>
<event>
 9    1  0.3312826E-006  0.3879612E+03  0.7546771E-02  0.1071979E+00
          2   -1    0    0  502    0 -0.00000000000E+00  0.00000000000E+00  0.36523838461E+03  0.36523838461E+03  0.00000000000E+00 0. -1.
         21   -1    0    0  501  502  0.00000000000E+00 -0.00000000000E+00 -0.25213576104E+03  0.25213576104E+03  0.00000000000E+00 0.  1.
         23    2    1    2    0    0 -0.47877446030E+01 -0.17564362790E+03 -0.36089763977E+02  0.20171535055E+03  0.92265947482E+02 0.  0.
         23    2    1    2    0    0 -0.53648164236E+02  0.16580177483E+01  0.20239529701E+03  0.22456641545E+03  0.81150133381E+02 0.  0.
        -11    1    3    3    0    0  0.13064391821E+02 -0.15209495448E+03 -0.59677198775E+02  0.16390522129E+03  0.00000000000E+00 0.  1.
         11    1    3    3    0    0 -0.17852136424E+02 -0.23548673422E+02  0.23587434798E+02  0.37810129267E+02  0.00000000000E+00 0. -1.
        -13    1    4    4    0    0 -0.98418635750E+01 -0.33980695295E+02  0.44329418697E+02  0.56715494297E+02  0.00000000000E+00 0.  1.
         13    1    4    4    0    0 -0.43806300661E+02  0.35638713044E+02  0.15806587832E+03  0.16785092116E+03  0.00000000000E+00 0. -1.
          2    1    1    2  501    0  0.58435908839E+02  0.17398561015E+03 -0.53202909461E+02  0.19109237964E+03  0.00000000000E+00 0. -1.
<scales pt_clust_5="13000.00000" pt_clust_6="13000.00000" pt_clust_7="13000.00000" pt_clust_8="13000.00000" pt_clust_9="13000.00000"></scales>
<clustering>
<clus scale="   81.150">  7  8 -1 -1</clus>
<clus scale="   92.266">  5  6 -1 -1</clus>
<clus scale="  183.537">  7  9 -1 -1</clus>
<clus scale="  198.461">  1  5  2 -1</clus>
<clus scale="  387.961">  2  5  1 -1</clus>
</clustering>
</event>
<event>
 9    1  0.3312826E-006  0.2651323E+03  0.7546771E-02  0.1124342E+00
         21   -1    0    0  501  502  0.00000000000E+00  0.00000000000E+00  0.10019831599E+03  0.10019831599E+03  0.00000000000E+00 0.  1.
          1   -1    0    0  502    0 -0.00000000000E+00 -0.00000000000E+00 -0.67263184164E+03  0.67263184164E+03  0.00000000000E+00 0. -1.
         23    2    1    2    0    0  0.42920826251E+02  0.12248830762E+03 -0.45664989310E+03  0.48351893958E+03  0.91737981412E+02 0.  0.
         23    2    1    2    0    0  0.20004566989E+02 -0.10961336286E+03 -0.15714063332E+03  0.21291900096E+03  0.90697576112E+02 0.  0.
        -11    1    4    4    0    0 -0.25537071200E+02 -0.11304685556E+02 -0.64801595082E+02  0.70563337834E+02  0.00000000000E+00 0. -1.
         11    1    4    4    0    0  0.45541638189E+02 -0.98308677304E+02 -0.92339038240E+02  0.14235566313E+03  0.00000000000E+00 0.  1.
        -11    1    3    3    0    0  0.14479122863E+02  0.12376242464E+03 -0.30953510493E+03  0.33367463784E+03  0.00000000000E+00 0. -1.
         11    1    3    3    0    0  0.28441703389E+02 -0.12741170238E+01 -0.14711478817E+03  0.14984430174E+03  0.00000000000E+00 0.  1.
          1    1    1    2  501    0 -0.62925393241E+02 -0.12874944759E+02  0.41357000785E+02  0.76392217084E+02  0.00000000000E+00 0. -1.
<scales pt_clust_5="13000.00000" pt_clust_6="13000.00000" pt_clust_7="13000.00000" pt_clust_8="13000.00000" pt_clust_9="13000.00000"></scales>
<clustering>
<clus scale="   90.698">  5  6 -1 -1</clus>
<clus scale="   64.229">  5  9 -1 -1</clus>
<clus scale="   91.738">  7  8 -1 -1</clus>
<clus scale="  158.938">  2  7  1 -1</clus>
<clus scale="  265.132">  1  5  2 -1</clus>
</clustering>
</event>
<event>
 9    1  0.3312826E-006  0.2041384E+03  0.7546771E-02  0.1177536E+00
         -3   -1    0    0    0  501 -0.00000000000E+00  0.00000000000E+00  0.51384778773E+02  0.51384778773E+02  0.00000000000E+00 0.  1.
         21   -1    0    0  501  502  0.00000000000E+00 -0.00000000000E+00 -0.63304551519E+03  0.63304551519E+03  0.00000000000E+00 0.  1.
         23    2    1    2    0    0 -0.18412251067E+02 -0.34043388286E+02 -0.41952098606E+02  0.10740523725E+03  0.90983202490E+02 0.  0.
         23    2    1    2    0    0  0.84472219358E+02 -0.24909230901E+02 -0.30081894334E+03  0.32225532373E+03  0.74836029929E+02 0.  0.
        -11    1    4    4    0    0  0.68289953726E+02 -0.49448887280E+02 -0.24607864235E+03  0.26012191075E+03  0.00000000000E+00 0.  1.
         11    1    4    4    0    0  0.16182265631E+02  0.24539656379E+02 -0.54740300991E+02  0.62133412982E+02  0.00000000000E+00 0. -1.
        -13    1    3    3    0    0 -0.55471195041E+02 -0.16511511809E+02 -0.24548449145E+02  0.62867398999E+02  0.00000000000E+00 0.  1.
         13    1    3    3    0    0  0.37058943974E+02 -0.17531876477E+02 -0.17403649461E+02  0.44537838248E+02  0.00000000000E+00 0. -1.
         -3    1    1    2    0  502 -0.66059968291E+02  0.58952619187E+02 -0.23888969447E+03  0.25476973298E+03  0.00000000000E+00 0.  1.
<scales pt_clust_5="13000.00000" pt_clust_6="13000.00000" pt_clust_7="13000.00000" pt_clust_8="13000.00000" pt_clust_9="13000.00000"></scales>
<clustering>
<clus scale="   74.836">  5  6 -1 -1</clus>
<clus scale="   88.540">  5  9 -1 -1</clus>
<clus scale="   90.983">  7  8 -1 -1</clus>
<clus scale="   98.873">  1  7  2 -1</clus>
<clus scale="  204.138">  2  5  1 -1</clus>
</clustering>
</event>
<event>
 9    1  0.3312826E-006  0.2052466E+03  0.7546771E-02  0.1175547E+00
         21   -1    0    0  501  502  0.00000000000E+00  0.00000000000E+00  0.51739117395E+02  0.51739117395E+02  0.00000000000E+00 0. -1.
          2   -1    0    0  502    0 -0.00000000000E+00 -0.00000000000E+00 -0.52127599668E+03  0.52127599668E+03  0.00000000000E+00 0. -1.
         23    2    1    2    0    0 -0.29248598090E+01  0.46441185952E+02 -0.68974216952E+02  0.12293000798E+03  0.90493125152E+02 0.  0.
         23    2    1    2    0    0  0.37116689986E+02  0.21334571703E+02 -0.33287009228E+03  0.34837513305E+03  0.93434053587E+02 0.  0.
        -11    1    3    3    0    0  0.11188867283E+02 -0.23365540503E+02 -0.36241891406E+02  0.44549005901E+02  0.00000000000E+00 0.  1.
         11    1    3    3    0    0 -0.14113727092E+02  0.69806726456E+02 -0.32732325546E+02  0.78381002076E+02  0.00000000000E+00 0. -1.
        -13    1    4    4    0    0  0.60091358617E+02  0.14026803076E+02 -0.30648094005E+03  0.31263123516E+03  0.00000000000E+00 0. -1.
         13    1    4    4    0    0 -0.22974668630E+02  0.73077686277E+01 -0.26389152228E+02  0.35743897889E+02  0.00000000000E+00 0.  1.
          2    1    1    2  501    0 -0.34191830177E+02 -0.67775757656E+02 -0.67692570056E+02  0.10170997305E+03  0.00000000000E+00 0. -1.
<scales pt_clust_5="13000.00000" pt_clust_6="13000.00000" pt_clust_7="13000.00000" pt_clust_8="13000.00000" pt_clust_9="13000.00000"></scales>
<clustering>
<clus scale="   90.493">  5  6 -1 -1</clus>
<clus scale="   93.434">  7  8 -1 -1</clus>
<clus scale="   75.912">  7  9 -1 -1</clus>
<clus scale="  101.756">  2  5  1 -1</clus>
<clus scale="  205.247">  1  5  2 -1</clus>
</clustering>
</event>
<event>
 9    1  0.3312826E-006  0.6731491E+03  0.7546771E-02  0.1040003E+00
         21   -1    0    0  501  502  0.00000000000E+00  0.00000000000E+00  0.43285099617E+03  0.43285099617E+03  0.00000000000E+00 0. -1.
          1   -1    0    0  502    0 -0.00000000000E+00 -0.00000000000E+00 -0.34586154971E+03  0.34586154971E+03  0.00000000000E+00 0. -1.
         23    2    1    2    0    0  0.96332933317E+01 -0.18382695248E+02 -0.23538243220E+02  0.96549741497E+02  0.91307611207E+02 0.  0.
         23    2    1    2    0    0 -0.19205146372E+03 -0.81489090531E+02 -0.20417141922E+03  0.30495425248E+03  0.88243362868E+02 0.  0.
        -11    1    4    4    0    0 -0.88114552463E+02 -0.92628777660E+01 -0.38843553375E+02  0.96740875017E+02  0.00000000000E+00 0. -1.
         11    1    4    4    0    0 -0.10393691126E+03 -0.72226212765E+02 -0.16532786584E+03  0.20821337747E+03  0.00000000000E+00 0.  1.
        -13    1    3    3    0    0 -0.32846249025E+02  0.16457382605E+02 -0.19163928712E+02  0.41436429394E+02  0.00000000000E+00 0. -1.
         13    1    3    3    0    0  0.42479542356E+02 -0.34840077853E+02 -0.43743145076E+01  0.55113312104E+02  0.00000000000E+00 0.  1.
          1    1    1    2  501    0  0.18241817039E+03  0.99871785779E+02  0.31469910890E+03  0.37720855190E+03  0.00000000000E+00 0. -1.
<scales pt_clust_5="13000.00000" pt_clust_6="13000.00000" pt_clust_7="13000.00000" pt_clust_8="13000.00000" pt_clust_9="13000.00000"></scales>
<clustering>
<clus scale="   88.243">  5  6 -1 -1</clus>
<clus scale="   91.308">  7  8 -1 -1</clus>
<clus scale="   93.637">  2  7  1 -1</clus>
<clus scale="  207.939">  5  9 -1 -1</clus>
<clus scale="  673.149">  1  5  2 -1</clus>
</clustering>
</event>
<event>
 9    1  0.3312826E-006  0.2602438E+03  0.7546771E-02  0.1147409E+00
         -1   -1    0    0    0  501 -0.00000000000E+00  0.00000000000E+00  0.36713905185E+03  0.36713905185E+03  0.00000000000E+00 0.  1.
         21   -1    0    0  501  502  0.00000000000E+00 -0.00000000000E+00 -0.88965547603E+02  0.88965547603E+02  0.00000000000E+00 0.  1.
         23    2    1    2    0    0  0.13723857922E+02 -0.26863640527E+02  0.42226835028E+02  0.10482456728E+03  0.91077356407E+02 0.  0.
         23    2    1    2    0    0  0.79707479374E+02  0.64397844807E+02  0.18003481610E+03  0.23610900023E+03  0.11328971841E+03 0.  0.
        -11    1    3    3    0    0 -0.36708166910E+02 -0.25307738471E+02  0.12683474495E+02  0.46355600198E+02  0.00000000000E+00 0.  1.
         11    1    3    3    0    0  0.50432024832E+02 -0.15559020557E+01  0.29543360533E+02  0.58468967081E+02  0.00000000000E+00 0. -1.
        -13    1    4    4    0    0  0.94446498991E+02  0.84178690229E+02  0.13681786047E+03  0.18634731016E+03  0.00000000000E+00 0.  1.
         13    1    4    4    0    0 -0.14739019617E+02 -0.19780845421E+02  0.43216955631E+02  0.49761690072E+02  0.00000000000E+00 0. -1.
         -1    1    1    2    0  502 -0.93431337296E+02 -0.37534204280E+02  0.55911853122E+02  0.11517103195E+03  0.00000000000E+00 0.  1.
<scales pt_clust_5="13000.00000" pt_clust_6="13000.00000" pt_clust_7="13000.00000" pt_clust_8="13000.00000" pt_clust_9="13000.00000"></scales>
<clustering>
<clus scale="   91.077">  5  6 -1 -1</clus>
<clus scale="   95.943">  1  5  2 -1</clus>
<clus scale="  113.290">  7  8 -1 -1</clus>
<clus scale="  100.279">  7  9 -1 -1</clus>
<clus scale="  260.244">  2  5  1 -1</clus>
</clustering>
</event>
<event>
 9    1  0.3312826E-006  0.3668728E+03  0.7546771E-02  0.1073310E+00
          1   -1    0    0  502    0 -0.00000000000E+00  0.00000000000E+00  0.61562084935E+03  0.61562084935E+03  0.00000000000E+00 0. -1.
         21   -1    0    0  501  502  0.00000000000E+00 -0.00000000000E+00 -0.16535124534E+03  0.16535124534E+03  0.00000000000E+00 0. -1.
         23    2    1    2    0    0 -0.15474730823E+03  0.13804983608E+03  0.31941481522E+03  0.39146131009E+03  0.90618135416E+02 0.  0.
         23    2    1    2    0    0  0.16866138202E+03  0.11173875353E+02  0.14292317587E+03  0.23915466244E+03  0.90533977557E+02 0.  0.
        -13    1    3    3    0    0 -0.94060674740E+02  0.48888883621E+02  0.94456901305E+02  0.14198464593E+03  0.00000000000E+00 0.  1.
         13    1    3    3    0    0 -0.60686633487E+02  0.89160952460E+02  0.22495791392E+03  0.24947666416E+03  0.00000000000E+00 0. -1.
        -13    1    4    4    0    0  0.81923743712E+02 -0.27679843558E+02  0.10694283667E+03  0.13752979255E+03  0.00000000000E+00 0.  1.
         13    1    4    4    0    0  0.86737638308E+02  0.38853718910E+02  0.35980339200E+02  0.10162486990E+03  0.00000000000E+00 0. -1.
          1    1    1    2  501    0 -0.13914073792E+02 -0.14922371143E+03 -0.12068387090E+02  0.15035612216E+03  0.00000000000E+00 0. -1.
<scales pt_clust_5="13000.00000" pt_clust_6="13000.00000" pt_clust_7="13000.00000" pt_clust_8="13000.00000" pt_clust_9="13000.00000"></scales>
<clustering>
<clus scale="   90.534">  7  8 -1 -1</clus>
<clus scale="   90.618">  5  6 -1 -1</clus>
<clus scale="  149.871">  7  9 -1 -1</clus>
<clus scale="  226.310">  1  5  2 -1</clus>
<clus scale="  366.873">  2  5  1 -1</clus>
</clustering>
</event>
<event>
 9    1  0.3312826E-006  0.1648299E+03  0.7546771E-02  0.1207724E+00
         -1   -1    0    0    0  501 -0.00000000000E+00  0.00000000000E+00  0.66214630848E+02  0.66214630848E+02  0.00000000000E+00 0.  1.
         21   -1    0    0  501  502  0.00000000000E+00 -0.00000000000E+00 -0.32121481944E+03  0.32121481944E+03  0.00000000000E+00 0. -1.
         23    2    1    2    0    0 -0.19404528529E+02  0.37912558564E+02 -0.17368557787E+02  0.98227642440E+02  0.86793462400E+02 0.  0.
         23    2    1    2    0    0  0.13116953266E+02  0.27058203010E+02 -0.10416637121E+03  0.14062957296E+03  0.89564742424E+02 0.  0.
        -13    1    3    3    0    0 -0.42257477126E+02  0.14946712903E+01 -0.31765896729E+02  0.52886677058E+02  0.00000000000E+00 0.  1.
         13    1    3    3    0    0  0.22852948597E+02  0.36417887274E+02  0.14397338942E+02  0.45340965381E+02  0.00000000000E+00 0. -1.
        -13    1    4    4    0    0  0.23436840831E+02 -0.29058282183E+01  0.73213061408E+01  0.24725106054E+02  0.00000000000E+00 0.  1.
         13    1    4    4    0    0 -0.10319887564E+02  0.29964031228E+02 -0.11148767735E+03  0.11590446690E+03  0.00000000000E+00 0. -1.
         -1    1    1    2    0  502  0.62875752622E+01 -0.64970761574E+02 -0.13346525960E+03  0.14857223490E+03  0.00000000000E+00 0.  1.
<scales pt_clust_5="13000.00000" pt_clust_6="13000.00000" pt_clust_7="13000.00000" pt_clust_8="13000.00000" pt_clust_9="13000.00000"></scales>
<clustering>
<clus scale="   86.793">  5  6 -1 -1</clus>
<clus scale="   89.565">  7  8 -1 -1</clus>
<clus scale="   65.274">  7  9 -1 -1</clus>
<clus scale="   96.680">  1  5  2 -1</clus>
<clus scale="  164.830">  2  5  1 -1</clus>
</clustering>
</event>
<event>
 9    1  0.3312826E-006  0.2429595E+03  0.7546771E-02  0.1153618E+00
         -1   -1    0    0    0  501 -0.00000000000E+00  0.00000000000E+00  0.71585335412E+03  0.71585335412E+03  0.00000000000E+00 0.  1.
         21   -1    0    0  501  502  0.00000000000E+00 -0.00000000000E+00 -0.77061730843E+02  0.77061730843E+02  0.00000000000E+00 0.  1.
         23    2    1    2    0    0 -0.37782585766E+02  0.38328005165E+02  0.50579389425E+03  0.51593544383E+03  0.86402308785E+02 0.  0.
         23    2    1    2    0    0  0.11011064144E+03 -0.62567673927E+02  0.12580296642E+03  0.20035931884E+03  0.90985730251E+02 0.  0.
        -11    1    3    3    0    0 -0.19732610748E+02  0.65812982584E+02  0.35700272738E+03  0.36355422148E+03  0.00000000000E+00 0.  1.
         11    1    3    3    0    0 -0.18049975019E+02 -0.27484977419E+02  0.14879116688E+03  0.15238122234E+03  0.00000000000E+00 0. -1.
        -11    1    4    4    0    0  0.23227842276E+02 -0.89638414993E+01  0.88069067198E+02  0.91520728299E+02  0.00000000000E+00 0.  1.
         11    1    4    4    0    0  0.86882799164E+02 -0.53603832428E+02  0.37733899218E+02  0.10883859054E+03  0.00000000000E+00 0. -1.
         -1    1    1    2    0  502 -0.72328055674E+02  0.24239668762E+02  0.71947626047E+01  0.76620322292E+02  0.00000000000E+00 0.  1.
<scales pt_clust_5="13000.00000" pt_clust_6="13000.00000" pt_clust_7="13000.00000" pt_clust_8="13000.00000" pt_clust_9="13000.00000"></scales>
<clustering>
<clus scale="   86.402">  5  6 -1 -1</clus>
<clus scale="   90.986">  7  8 -1 -1</clus>
<clus scale="   76.282">  7  9 -1 -1</clus>
<clus scale="  101.794">  1  5  2 -1</clus>
<clus scale="  242.960">  2  5  1 -1</clus>
</clustering>
</event>
<event>
 9    1  0.3312826E-006  0.1669787E+03  0.7546771E-02  0.1203647E+00
         21   -1    0    0  501  502  0.00000000000E+00  0.00000000000E+00  0.55773338838E+02  0.55773338838E+02  0.00000000000E+00 0. -1.
         -3   -1    0    0    0  501 -0.00000000000E+00 -0.00000000000E+00 -0.32360558038E+03  0.32360558038E+03  0.00000000000E+00 0.  1.
         23    2    1    2    0    0  0.39086989510E+02 -0.26015638019E+02 -0.94375752784E+02  0.13861133369E+03  0.90009515855E+02 0.  0.
         23    2    1    2    0    0 -0.65769180525E+02  0.21529030539E+02 -0.17406456207E+03  0.21370398049E+03  0.10286804775E+03 0.  0.
        -13    1    3    3    0    0 -0.29800068567E+00 -0.53203670024E+02 -0.43096890267E+02  0.68469418423E+02  0.00000000000E+00 0.  1.
         13    1    3    3    0    0  0.39384990195E+02  0.27188032005E+02 -0.51278862516E+02  0.70141915271E+02  0.00000000000E+00 0. -1.
        -13    1    4    4    0    0 -0.92316070613E+02  0.25197732970E+02 -0.12109673478E+03  0.15434248221E+03  0.00000000000E+00 0. -1.
         13    1    4    4    0    0  0.26546890088E+02 -0.36687024314E+01 -0.52967827287E+02  0.59361498283E+02  0.00000000000E+00 0.  1.
         -3    1    1    2    0  502  0.26682191016E+02  0.44866074805E+01  0.60807330869E+00  0.27063605030E+02  0.00000000000E+00 0.  1.
<scales pt_clust_5="13000.00000" pt_clust_6="13000.00000" pt_clust_7="13000.00000" pt_clust_8="13000.00000" pt_clust_9="13000.00000"></scales>
<clustering>
<clus scale="   90.010">  5  6 -1 -1</clus>
<clus scale="  101.520">  2  5  1 -1</clus>
<clus scale="  102.868">  7  8 -1 -1</clus>
<clus scale="   29.315">  7  9 -1 -1</clus>
<clus scale="  166.979">  1  5  2 -1</clus>
</clustering>
</event>
<event>
 9    1  0.3312826E-006  0.3716909E+03  0.7546771E-02  0.1105258E+00
          1   -1    0    0  502    0 -0.00000000000E+00  0.00000000000E+00  0.66733076798E+03  0.66733076798E+03  0.00000000000E+00 0. -1.
         21   -1    0    0  501  502  0.00000000000E+00 -0.00000000000E+00 -0.81442583070E+02  0.81442583070E+02  0.00000000000E+00 0. -1.
         23    2    1    2    0    0 -0.72397060543E+01 -0.19365310554E+02  0.97297711779E+02  0.13487206923E+03  0.91083487767E+02 0.  0.
         23    2    1    2    0    0  0.71162515409E+02 -0.13991227938E+03  0.34378909756E+03  0.38935080959E+03  0.93613886832E+02 0.  0.
        -13    1    3    3    0    0 -0.38711450384E+02  0.15962237543E+02  0.65937461333E+02  0.78109655135E+02  0.00000000000E+00 0.  1.
         13    1    3    3    0    0  0.31471744330E+02 -0.35327548097E+02  0.31360250446E+02  0.56762414093E+02  0.00000000000E+00 0. -1.
        -13    1    4    4    0    0  0.70577988114E+02 -0.78117924463E+02  0.13263180673E+03  0.16933652496E+03  0.00000000000E+00 0. -1.
         13    1    4    4    0    0  0.58452729486E+00 -0.61794354919E+02  0.21115729083E+03  0.22001428463E+03  0.00000000000E+00 0.  1.
          1    1    1    2  501    0 -0.63922809355E+02  0.15927758994E+03  0.14480137558E+03  0.22455047223E+03  0.00000000000E+00 0. -1.
<scales pt_clust_5="13000.00000" pt_clust_6="13000.00000" pt_clust_7="13000.00000" pt_clust_8="13000.00000" pt_clust_9="13000.00000"></scales>
<clustering>
<clus scale="   91.083">  5  6 -1 -1</clus>
<clus scale="   93.400">  1  5  2 -1</clus>
<clus scale="   93.614">  7  8 -1 -1</clus>
<clus scale="  166.574">  7  9 -1 -1</clus>
<clus scale="  371.691">  2  5  1 -1</clus>
</clustering>
</event>
<event>
 9    1  0.3312826E-006  0.3874684E+03  0.7546771E-02  0.1080225E+00
         -1   -1    0    0    0  501 -0.00000000000E+00  0.00000000000E+00  0.20528826841E+03  0.20528826841E+03  0.00000000000E+00 0.  1.
         21   -1    0    0  501  502  0.00000000000E+00 -0.00000000000E+00 -0.36404238388E+03  0.36404238388E+03  0.00000000000E+00 0.  1.
         23    2    1    2    0    0 -0.57372408348E+02 -0.11711570645E+03 -0.45198543518E+02  0.16556510799E+03  0.91439677989E+02 0.  0.
         23    2    1    2    0    0  0.11958369622E+02  0.72493687703E+02  0.11597600845E+03  0.16556750512E+03  0.92540946899E+02 0.  0.
        -11    1    4    4    0    0  0.52521619055E+02  0.38201500813E+02  0.60396337080E+02  0.88688176580E+02  0.00000000000E+00 0.  1.
         11    1    4    4    0    0 -0.40563249433E+02  0.34292186890E+02  0.55579671374E+02  0.76879328537E+02  0.00000000000E+00 0. -1.
        -11    1    3    3    0    0 -0.27279836243E+02 -0.12442505594E+03 -0.29096109096E+02  0.13066127037E+03  0.00000000000E+00 0.  1.
         11    1    3    3    0    0 -0.30092572105E+02  0.73093494930E+01 -0.16102434422E+02  0.34903837614E+02  0.00000000000E+00 0. -1.
         -1    1    1    2    0  502  0.45414038726E+02  0.44622018744E+02 -0.22953158040E+03  0.23819803919E+03  0.00000000000E+00 0.  1.
<scales pt_clust_5="13000.00000" pt_clust_6="13000.00000" pt_clust_7="13000.00000" pt_clust_8="13000.00000" pt_clust_9="13000.00000"></scales>
<clustering>
<clus scale="   91.440">  7  8 -1 -1</clus>
<clus scale="   92.541">  5  6 -1 -1</clus>
<clus scale="   63.668">  5  9 -1 -1</clus>
<clus scale="  159.276">  1  7  2 -1</clus>
<clus scale="  387.468">  2  5  1 -1</clus>
</clustering>
</event>
<event>
 9    1  0.3312826E-006  0.1554626E+03  0.7546771E-02  0.1217838E+00
          1   -1    0    0  502    0 -0.00000000000E+00  0.00000000000E+00  0.52676094827E+03  0.52676094827E+03  0.00000000000E+00 0. -1.
         21   -1    0    0  501  502  0.00000000000E+00 -0.00000000000E+00 -0.33371070833E+02  0.33371070833E+02  0.00000000000E+00 0. -1.
         23    2    1    2    0    0 -0.14476830075E+02 -0.13045861166E+02  0.28744670427E+03  0.30209868864E+03  0.90874841291E+02 0.  0.
         23    2    1    2    0    0 -0.63071608293E+00  0.43967895140E+02  0.92735352891E+02  0.13970995700E+03  0.94791628340E+02 0.  0.
        -11    1    4    4    0    0  0.41194086569E+02 -0.32007013337E+01  0.40209440211E+02  0.57654109475E+02  0.00000000000E+00 0.  1.
         11    1    4    4    0    0 -0.41824802652E+02  0.47168596474E+02  0.52525912681E+02  0.82055847525E+02  0.00000000000E+00 0. -1.
        -11    1    3    3    0    0  0.22040622458E+02  0.22590771081E+02  0.18473079413E+03  0.18740757262E+03  0.00000000000E+00 0.  1.
         11    1    3    3    0    0 -0.36517452533E+02 -0.35636632247E+02  0.10271591014E+03  0.11469111602E+03  0.00000000000E+00 0. -1.
          1    1    1    2  501    0  0.15107546158E+02 -0.30922033974E+02  0.11320782027E+03  0.11832337346E+03  0.00000000000E+00 0. -1.
<scales pt_clust_5="13000.00000" pt_clust_6="13000.00000" pt_clust_7="13000.00000" pt_clust_8="13000.00000" pt_clust_9="13000.00000"></scales>
<clustering>
<clus scale="   90.875">  7  8 -1 -1</clus>
<clus scale="   92.941">  1  7  2 -1</clus>
<clus scale="   94.792">  5  6 -1 -1</clus>
<clus scale="   38.253">  5  9 -1 -1</clus>
<clus scale="  155.463">  2  5  1 -1</clus>
</clustering>
</event>
<event>
 9    1  0.3312826E-006  0.3958561E+03  0.7546771E-02  0.1076500E+00
         -4   -1    0    0    0  501 -0.00000000000E+00  0.00000000000E+00  0.73367645062E+03  0.73367645062E+03  0.00000000000E+00 0.  1.
         21   -1    0    0  501  502  0.00000000000E+00 -0.00000000000E+00 -0.17167860013E+03  0.17167860013E+03  0.00000000000E+00 0.  1.
         23    2    1    2    0    0 -0.25624467893E+02  0.13459920056E+03  0.47106765942E+03  0.49918958548E+03  0.92260199219E+02 0.  0.
         23    2    1    2    0    0  0.43389617328E+02 -0.89709634621E+01  0.21008003317E+03  0.23211162486E+03  0.88198917112E+02 0.  0.
        -11    1    4    4    0    0  0.46155360724E+02  0.31347222862E+02  0.95379072023E+02  0.11049947097E+03  0.00000000000E+00 0. -1.
         11    1    4    4    0    0 -0.27657433964E+01 -0.40318186324E+02  0.11470096115E+03  0.12161215389E+03  0.00000000000E+00 0.  1.
        -13    1    3    3    0    0  0.48453489340E+01  0.13462096381E+03  0.38571010525E+03  0.40855668713E+03  0.00000000000E+00 0. -1.
         13    1    3    3    0    0 -0.30469816827E+02 -0.21763252336E-01  0.85357554169E+02  0.90632898358E+02  0.00000000000E+00 0.  1.
         -4    1    1    2    0  502 -0.17765149435E+02 -0.12562823710E+03 -0.11914984210E+03  0.17405384041E+03  0.00000000000E+00 0.  1.
<scales pt_clust_5="13000.00000" pt_clust_6="13000.00000" pt_clust_7="13000.00000" pt_clust_8="13000.00000" pt_clust_9="13000.00000"></scales>
<clustering>
<clus scale="   88.199">  5  6 -1 -1</clus>
<clus scale="   92.260">  7  8 -1 -1</clus>
<clus scale="  126.878">  5  9 -1 -1</clus>
<clus scale="  165.183">  1  7  2 -1</clus>
<clus scale="  395.856">  2  5  1 -1</clus>
</clustering>
</event>
<event>
 9    1  0.3312826E-006  0.2443456E+03  0.7546771E-02  0.1147523E+00
         21   -1    0    0  501  502  0.00000000000E+00  0.00000000000E+00  0.13774542346E+03  0.13774542346E+03  0.00000000000E+00 0.  1.
          3   -1    0    0  502    0 -0.00000000000E+00 -0.00000000000E+00 -0.40029254904E+03  0.40029254904E+03  0.00000000000E+00 0. -1.
         23    2    1    2    0    0  0.67892568365E+02  0.22191405133E+02 -0.26986441527E+03  0.29358278702E+03  0.90896594585E+02 0.  0.
         23    2    1    2    0    0  0.62540731924E+02 -0.92547069337E+01  0.23009700607E+02  0.11244588374E+03  0.90097933932E+02 0.  0.
        -11    1    4    4    0    0  0.31485404896E+02 -0.30379885285E+02 -0.25849957034E+02  0.50818189953E+02  0.00000000000E+00 0. -1.
         11    1    4    4    0    0  0.31055327027E+02  0.21125178351E+02  0.48859657641E+02  0.61627693790E+02  0.00000000000E+00 0.  1.
        -13    1    3    3    0    0  0.18995810994E+02 -0.32626068906E+02 -0.56719110873E+02  0.68134857055E+02  0.00000000000E+00 0. -1.
         13    1    3    3    0    0  0.48896757371E+02  0.54817474039E+02 -0.21314530440E+03  0.22544792997E+03  0.00000000000E+00 0.  1.
          3    1    1    2  501    0 -0.13043330029E+03 -0.12936698199E+02 -0.15692410910E+02  0.13200930174E+03  0.00000000000E+00 0. -1.
<scales pt_clust_5="13000.00000" pt_clust_6="13000.00000" pt_clust_7="13000.00000" pt_clust_8="13000.00000" pt_clust_9="13000.00000"></scales>
<clustering>
<clus scale="   90.098">  5  6 -1 -1</clus>
<clus scale="   90.897">  7  8 -1 -1</clus>
<clus scale="  115.603">  2  7  1 -1</clus>
<clus scale="   88.151">  5  9 -1 -1</clus>
<clus scale="  244.346">  1  5  2 -1</clus>
</clustering>
</event>
<event>
 9    1  0.3312826E-006  0.2713981E+03  0.7546771E-02  0.1140568E+00
         21   -1    0    0  501  502  0.00000000000E+00  0.00000000000E+00  0.13010275620E+03  0.13010275620E+03  0.00000000000E+00 0. -1.
          2   -1    0    0  502    0 -0.00000000000E+00 -0.00000000000E+00 -0.36395985991E+03  0.36395985991E+03  0.00000000000E+00 0. -1.
         23    2    1    2    0    0 -0.89286999750E+01 -0.38605740533E+02 -0.19620892163E+03  0.22006568305E+03  0.91437623775E+02 0.  0.
         23    2    1    2    0    0 -0.29551311029E+02  0.11085680119E+03 -0.93301529484E+02  0.17501096391E+03  0.93601024198E+02 0.  0.
        -11    1    4    4    0    0  0.19343639868E+02  0.69322981747E+01 -0.46780980301E+02  0.51094943774E+02  0.00000000000E+00 0.  1.
         11    1    4    4    0    0 -0.48894950898E+02  0.10392450301E+03 -0.46520549183E+02  0.12391602013E+03  0.00000000000E+00 0. -1.
        -13    1    3    3    0    0 -0.23046148494E+02  0.24006853047E+02 -0.46531526193E+02  0.57206965341E+02  0.00000000000E+00 0. -1.
         13    1    3    3    0    0  0.14117448519E+02 -0.62612593580E+02 -0.14967739544E+03  0.16285871771E+03  0.00000000000E+00 0.  1.
          2    1    1    2  501    0  0.38480011004E+02 -0.72251060652E+02  0.55653347409E+02  0.98985969158E+02  0.00000000000E+00 0. -1.
<scales pt_clust_5="13000.00000" pt_clust_6="13000.00000" pt_clust_7="13000.00000" pt_clust_8="13000.00000" pt_clust_9="13000.00000"></scales>
<clustering>
<clus scale="   91.438">  7  8 -1 -1</clus>
<clus scale="   93.601">  5  6 -1 -1</clus>
<clus scale="   81.859">  5  9 -1 -1</clus>
<clus scale="   99.654">  2  7  1 -1</clus>
<clus scale="  271.398">  1  5  2 -1</clus>
</clustering>
</event>
<event>
 9    1  0.3312826E-006  0.5339233E+03  0.7546771E-02  0.1058843E+00
         21   -1    0    0  501  502  0.00000000000E+00  0.00000000000E+00  0.47571410332E+03  0.47571410332E+03  0.00000000000E+00 0.  1.
         -3   -1    0    0    0  501 -0.00000000000E+00 -0.00000000000E+00 -0.34464982903E+03  0.34464982903E+03  0.00000000000E+00 0.  1.
         23    2    1    2    0    0  0.56449994708E+02  0.17976953506E+02 -0.17386562696E+03  0.20550106668E+03  0.92150200267E+02 0.  0.
         23    2    1    2    0    0  0.72679848302E+02  0.11013748143E+03 -0.88225804046E+02  0.18166633592E+03  0.88352928306E+02 0.  0.
        -11    1    4    4    0    0  0.24122549268E+02 -0.89871236481E+01 -0.32537095745E+02  0.41488894588E+02  0.00000000000E+00 0.  1.
         11    1    4    4    0    0  0.48557299034E+02  0.11912460508E+03 -0.55688708302E+02  0.14017744133E+03  0.00000000000E+00 0. -1.
        -11    1    3    3    0    0  0.50313392396E+02 -0.30745329693E+01 -0.17636900186E+03  0.18343095438E+03  0.00000000000E+00 0.  1.
         11    1    3    3    0    0  0.61366023124E+01  0.21051486476E+02  0.25033749086E+01  0.22070112295E+02  0.00000000000E+00 0. -1.
         -3    1    1    2    0  502 -0.12912984301E+03 -0.12811443494E+03  0.39315570529E+03  0.43319652976E+03  0.00000000000E+00 0.  1.
<scales pt_clust_5="13000.00000" pt_clust_6="13000.00000" pt_clust_7="13000.00000" pt_clust_8="13000.00000" pt_clust_9="13000.00000"></scales>
<clustering>
<clus scale="   88.353">  5  6 -1 -1</clus>
<clus scale="   92.150">  7  8 -1 -1</clus>
<clus scale="  109.551">  2  7  1 -1</clus>
<clus scale="  175.123">  5  9 -1 -1</clus>
<clus scale="  533.923">  1  5  2 -1</clus>
</clustering>
</event>
<event>
 9    1  0.3312826E-006  0.2230196E+03  0.7546771E-02  0.1136072E+00
         -3   -1    0    0    0  501 -0.00000000000E+00  0.00000000000E+00  0.88837274786E+03  0.88837274786E+03  0.00000000000E+00 0.  1.
         21   -1    0    0  501  502  0.00000000000E+00 -0.00000000000E+00 -0.73036781729E+02  0.73036781729E+02  0.00000000000E+00 0.  1.
         23    2    1    2    0    0  0.16744332635E+03  0.62248753285E+02  0.65979409396E+03  0.68950694227E+03  0.90440047490E+02 0.  0.
         23    2    1    2    0    0 -0.12517378723E+03 -0.61264277241E+02  0.15834143795E+03  0.22952900240E+03  0.90497310987E+02 0.  0.
        -13    1    4    4    0    0 -0.12687928928E+03 -0.36010147215E+02  0.15574093974E+03  0.20408411271E+03  0.00000000000E+00 0.  1.
         13    1    4    4    0    0  0.17055020409E+01 -0.25254130026E+02  0.26004982101E+01  0.25444889694E+02  0.00000000000E+00 0. -1.
        -13    1    3    3    0    0  0.11940964522E+03  0.13890968152E+02  0.52343020350E+03  0.53705753910E+03  0.00000000000E+00 0.  1.
         13    1    3    3    0    0  0.48033681128E+02  0.48357785132E+02  0.13636389046E+03  0.15244940317E+03  0.00000000000E+00 0. -1.
         -3    1    1    2    0  502 -0.42269539113E+02 -0.98447604406E+00 -0.27995657820E+01  0.42373584914E+02  0.00000000000E+00 0.  1.
<scales pt_clust_5="13000.00000" pt_clust_6="13000.00000" pt_clust_7="13000.00000" pt_clust_8="13000.00000" pt_clust_9="13000.00000"></scales>
<clustering>
<clus scale="   90.440">  7  8 -1 -1</clus>
<clus scale="   90.497">  5  6 -1 -1</clus>
<clus scale="   42.281">  5  9 -1 -1</clus>
<clus scale="  200.229">  1  7  2 -1</clus>
<clus scale="  223.020">  2  5  1 -1</clus>
</clustering>
</event>
<event>
 9    1  0.3312826E-006  0.1937293E+03  0.7546771E-02  0.1166196E+00
          2   -1    0    0  502    0 -0.00000000000E+00  0.00000000000E+00  0.27014901675E+03  0.27014901675E+03  0.00000000000E+00 0. -1.
         21   -1    0    0  501  502  0.00000000000E+00 -0.00000000000E+00 -0.13516589966E+03  0.13516589966E+03  0.00000000000E+00 0. -1.
         23    2    1    2    0    0 -0.43694462059E+02 -0.11132373341E+03  0.14872451881E+03  0.21109883370E+03  0.90230568313E+02 0.  0.
         23    2    1    2    0    0 -0.31855500667E+01 -0.26480516601E+01 -0.36453063999E+00  0.70255427627E+02  0.70132248800E+02 0.  0.
        -11    1    3    3    0    0 -0.29404182658E-01 -0.99956566272E+02  0.12522161999E+03  0.16022412464E+03  0.00000000000E+00 0. -1.
         11    1    3    3    0    0 -0.43665057877E+02 -0.11367167137E+02  0.23502898820E+02  0.50874709051E+02  0.00000000000E+00 0.  1.
        -13    1    4    4    0    0 -0.20422761582E+01 -0.36128878032E+02 -0.46421244843E+01  0.36483092516E+02  0.00000000000E+00 0. -1.
         13    1    4    4    0    0 -0.11432739085E+01  0.33480826372E+02  0.42775938444E+01  0.33772335112E+02  0.00000000000E+00 0.  1.
          2    1    1    2  501    0  0.46880012126E+02  0.11397178507E+03 -0.13376871079E+02  0.12396065508E+03  0.00000000000E+00 0. -1.
<scales pt_clust_5="13000.00000" pt_clust_6="13000.00000" pt_clust_7="13000.00000" pt_clust_8="13000.00000" pt_clust_9="13000.00000"></scales>
<clustering>
<clus scale="   70.132">  7  8 -1 -1</clus>
<clus scale="   90.231">  5  6 -1 -1</clus>
<clus scale="  123.237">  7  9 -1 -1</clus>
<clus scale="  149.812">  1  5  2 -1</clus>
<clus scale="  193.729">  2  5  1 -1</clus>
</clustering>
</event>
<event>
 9    1  0.3312826E-006  0.2735163E+03  0.7546771E-02  0.1126946E+00
         21   -1    0    0  501  502  0.00000000000E+00  0.00000000000E+00  0.40529933782E+03  0.40529933782E+03  0.00000000000E+00 0.  1.
         -1   -1    0    0    0  501 -0.00000000000E+00 -0.00000000000E+00 -0.14205049781E+03  0.14205049781E+03  0.00000000000E+00 0.  1.
         23    2    1    2    0    0  0.27095584265E+02 -0.10376552520E+03 -0.37510074604E+02  0.14081928943E+03  0.83196223906E+02 0.  0.
         23    2    1    2    0    0 -0.61573421665E+02 -0.28004079634E+02  0.55448644086E+02  0.12594352074E+03  0.90618450405E+02 0.  0.
        -11    1    3    3    0    0  0.18622141334E+02 -0.20091996416E+02  0.24162868366E+02  0.36528299652E+02  0.00000000000E+00 0. -1.
         11    1    3    3    0    0  0.84734429312E+01 -0.83673528788E+02 -0.61672942970E+02  0.10429098978E+03  0.00000000000E+00 0.  1.
        -13    1    4    4    0    0  0.73118218599E+01  0.22855985680E+02  0.12147681054E+00  0.23997366041E+02  0.00000000000E+00 0. -1.
         13    1    4    4    0    0 -0.68885243525E+02 -0.50860065313E+02  0.55327167276E+02  0.10194615470E+03  0.00000000000E+00 0.  1.
         -1    1    1    2    0  502  0.34477837400E+02  0.13176960484E+03  0.24531027053E+03  0.28058702546E+03  0.00000000000E+00 0.  1.
<scales pt_clust_5="13000.00000" pt_clust_6="13000.00000" pt_clust_7="13000.00000" pt_clust_8="13000.00000" pt_clust_9="13000.00000"></scales>
<clustering>
<clus scale="   83.196">  5  6 -1 -1</clus>
<clus scale="   90.618">  7  8 -1 -1</clus>
<clus scale="  135.732">  2  5  1 -1</clus>
<clus scale="  106.461">  7  9 -1 -1</clus>
<clus scale="  273.516">  1  5  2 -1</clus>
</clustering>
</event>
<event>
 9    1  0.3312826E-006  0.1858272E+03  0.7546771E-02  0.1192477E+00
         -4   -1    0    0    0  501 -0.00000000000E+00  0.00000000000E+00  0.28091127642E+03  0.28091127642E+03  0.00000000000E+00 0. -1.
         21   -1    0    0  501  502  0.00000000000E+00 -0.00000000000E+00 -0.83676771856E+02  0.83676771856E+02  0.00000000000E+00 0.  1.
         23    2    1    2    0    0 -0.23095233068E+02  0.11986924645E+02  0.14282951457E+03  0.17096046501E+03  0.90278093751E+02 0.  0.
         23    2    1    2    0    0 -0.28261748133E+02  0.36224099682E+02  0.67924241425E+02  0.12190162879E+03  0.90196411926E+02 0.  0.
        -13    1    3    3    0    0 -0.50154650706E+02  0.28031012827E+02  0.63577525762E+02  0.85693222891E+02  0.00000000000E+00 0.  1.
         13    1    3    3    0    0  0.27059417638E+02 -0.16044088182E+02  0.79251988811E+02  0.85267242121E+02  0.00000000000E+00 0. -1.
        -13    1    4    4    0    0 -0.55111931952E+02  0.46526413057E+02  0.43952464590E+02  0.84462129378E+02  0.00000000000E+00 0.  1.
         13    1    4    4    0    0  0.26850183819E+02 -0.10302313375E+02  0.23971776834E+02  0.37439499417E+02  0.00000000000E+00 0. -1.
         -4    1    1    2    0  502  0.51356981201E+02 -0.48211024327E+02 -0.13519251435E+02  0.71725954466E+02  0.00000000000E+00 0. -1.
<scales pt_clust_5="13000.00000" pt_clust_6="13000.00000" pt_clust_7="13000.00000" pt_clust_8="13000.00000" pt_clust_9="13000.00000"></scales>
<clustering>
<clus scale="   90.196">  7  8 -1 -1</clus>
<clus scale="   70.440">  7  9 -1 -1</clus>
<clus scale="   90.278">  5  6 -1 -1</clus>
<clus scale="   93.953">  1  5  2 -1</clus>
<clus scale="  185.827">  2  5  1 -1</clus>
</clustering>
</event>
<event>
 9    1  0.3312826E-006  0.1617889E+03  0.7546771E-02  0.1207927E+00
         21   -1    0    0  501  502  0.00000000000E+00  0.00000000000E+00  0.67281953295E+02  0.67281953295E+02  0.00000000000E+00 0.  1.
         -1   -1    0    0    0  501 -0.00000000000E+00 -0.00000000000E+00 -0.28709584148E+03  0.28709584148E+03  0.00000000000E+00 0.  1.
         23    2    1    2    0    0  0.49316561798E+01  0.49760140587E+02 -0.14234969582E+03  0.17500016517E+03  0.88663572492E+02 0.  0.
         23    2    1    2    0    0 -0.22252398557E+02  0.79255267553E+01 -0.66439033971E+02  0.11814693100E+03  0.94797515023E+02 0.  0.
        -11    1    3    3    0    0  0.24806229755E+02 -0.13518270716E+02 -0.16431257052E+02  0.32681476192E+02  0.00000000000E+00 0. -1.
         11    1    3    3    0    0 -0.19874573575E+02  0.63278411304E+02 -0.12591843876E+03  0.14231868898E+03  0.00000000000E+00 0.  1.
        -11    1    4    4    0    0  0.34842059421E+02  0.46193183215E+01 -0.44934277530E+02  0.57047318110E+02  0.00000000000E+00 0. -1.
         11    1    4    4    0    0 -0.57094457978E+02  0.33062084338E+01 -0.21504756441E+02  0.61099612893E+02  0.00000000000E+00 0.  1.
         -1    1    1    2    0  502  0.17320742377E+02 -0.57685667342E+02 -0.11025158396E+02  0.61230698599E+02  0.00000000000E+00 0.  1.
<scales pt_clust_5="13000.00000" pt_clust_6="13000.00000" pt_clust_7="13000.00000" pt_clust_8="13000.00000" pt_clust_9="13000.00000"></scales>
<clustering>
<clus scale="   88.664">  5  6 -1 -1</clus>
<clus scale="   94.798">  7  8 -1 -1</clus>
<clus scale="   60.230">  7  9 -1 -1</clus>
<clus scale="  101.792">  2  5  1 -1</clus>
<clus scale="  161.789">  1  5  2 -1</clus>
</clustering>
</event>
<event>
 9    1  0.3312826E-006  0.1450519E+03  0.7546771E-02  0.1229299E+00
          1   -1    0    0  502    0 -0.00000000000E+00  0.00000000000E+00  0.47273226720E+03  0.47273226720E+03  0.00000000000E+00 0. -1.
         21   -1    0    0  501  502  0.00000000000E+00 -0.00000000000E+00 -0.30610535925E+02  0.30610535925E+02  0.00000000000E+00 0. -1.
         23    2    1    2    0    0  0.27405870319E+02  0.19200615325E+02  0.22357766064E+03  0.24104226113E+03  0.83634059810E+02 0.  0.
         23    2    1    2    0    0  0.75837514838E+01 -0.45414774396E+02  0.14871311017E+03  0.17991232190E+03  0.90182256654E+02 0.  0.
        -13    1    3    3    0    0  0.50755027638E+02  0.35075321459E+02  0.14679435195E+03  0.15923232326E+03  0.00000000000E+00 0. -1.
         13    1    3    3    0    0 -0.23349157319E+02 -0.15874706135E+02  0.76783308684E+02  0.81809937874E+02  0.00000000000E+00 0.  1.
        -13    1    4    4    0    0  0.15144289844E+02  0.15819816303E+02  0.35565589227E+01  0.22187050595E+02  0.00000000000E+00 0.  1.
         13    1    4    4    0    0 -0.75605383605E+01 -0.61234590699E+02  0.14515655125E+03  0.15772527131E+03  0.00000000000E+00 0. -1.
          1    1    1    2  501    0 -0.34989621802E+02  0.26214159071E+02  0.69830960469E+02  0.82388220091E+02  0.00000000000E+00 0. -1.
<scales pt_clust_5="13000.00000" pt_clust_6="13000.00000" pt_clust_7="13000.00000" pt_clust_8="13000.00000" pt_clust_9="13000.00000"></scales>
<clustering>
<clus scale="   83.634">  5  6 -1 -1</clus>
<clus scale="   90.080">  1  5  2 -1</clus>
<clus scale="   90.182">  7  8 -1 -1</clus>
<clus scale="   41.656">  7  9 -1 -1</clus>
<clus scale="  145.052">  2  5  1 -1</clus>
</clustering>
</event>
<event>
 9    1  0.3312826E-006  0.4789293E+03  0.7546771E-02  0.1075933E+00
         21   -1    0    0  501  502  0.00000000000E+00  0.00000000000E+00  0.91406733215E+02  0.91406733215E+02  0.00000000000E+00 0.  1.
         -1   -1    0    0    0  501 -0.00000000000E+00 -0.00000000000E+00 -0.92248910542E+03  0.92248910542E+03  0.00000000000E+00 0.  1.
         23    2    1    2    0    0  0.36095954587E+01 -0.24724861357E+02 -0.20332594850E+03  0.22430645160E+03  0.91365173605E+02 0.  0.
         23    2    1    2    0    0 -0.50932620198E+01 -0.20922963691E+03 -0.21110419286E+03  0.31174423430E+03  0.93896246455E+02 0.  0.
        -11    1    4    4    0    0  0.40530450534E+02 -0.13986294917E+03 -0.14634787281E+03  0.20645111249E+03  0.00000000000E+00 0. -1.
         11    1    4    4    0    0 -0.45623712553E+02 -0.69366687735E+02 -0.64756320045E+02  0.10529312181E+03  0.00000000000E+00 0.  1.
        -11    1    3    3    0    0  0.66775717823E+01  0.32396929944E+02 -0.44172383965E+02  0.55184694797E+02  0.00000000000E+00 0. -1.
         11    1    3    3    0    0 -0.30679763236E+01 -0.57121791301E+02 -0.15915356453E+03  0.16912175680E+03  0.00000000000E+00 0.  1.
         -1    1    1    2    0  502  0.14836665611E+01  0.23395449826E+03 -0.41665223085E+03  0.47784515274E+03  0.00000000000E+00 0.  1.
<scales pt_clust_5="13000.00000" pt_clust_6="13000.00000" pt_clust_7="13000.00000" pt_clust_8="13000.00000" pt_clust_9="13000.00000"></scales>
<clustering>
<clus scale="   91.365">  7  8 -1 -1</clus>
<clus scale="   93.896">  5  6 -1 -1</clus>
<clus scale="   94.720">  2  7  1 -1</clus>
<clus scale="  218.383">  5  9 -1 -1</clus>
<clus scale="  478.929">  1  5  2 -1</clus>
</clustering>
</event>
<event>
 9    1  0.3312826E-006  0.3947350E+03  0.7546771E-02  0.1054738E+00
         21   -1    0    0  501  502  0.00000000000E+00  0.00000000000E+00  0.20310267410E+03  0.20310267410E+03  0.00000000000E+00 0.  1.
          2   -1    0    0  502    0 -0.00000000000E+00 -0.00000000000E+00 -0.60736551361E+03  0.60736551361E+03  0.00000000000E+00 0. -1.
         23    2    1    2    0    0  0.26667323406E+03  0.11352587631E+03 -0.13680361516E+03  0.33365566158E+03  0.92780024932E+02 0.  0.
         23    2    1    2    0    0 -0.55596101284E+02  0.55056887346E+02 -0.11826347780E+03  0.16821396008E+03  0.90484799078E+02 0.  0.
        -11    1    3    3    0    0  0.21925104334E+03  0.50209975533E+02 -0.94783405837E+02  0.24408186264E+03  0.00000000000E+00 0.  1.
         11    1    3    3    0    0  0.47422190717E+02  0.63315900781E+02 -0.42020209326E+02  0.89573798936E+02  0.00000000000E+00 0. -1.
        -11    1    4    4    0    0 -0.13020570558E+02  0.52902142688E+02 -0.15016839988E+02  0.56512630817E+02  0.00000000000E+00 0.  1.
         11    1    4    4    0    0 -0.42575530726E+02  0.21547446583E+01 -0.10324663781E+03  0.11170132927E+03  0.00000000000E+00 0. -1.
          2    1    1    2  501    0 -0.21107713277E+03 -0.16858276366E+03 -0.14919574655E+03  0.30859856605E+03  0.00000000000E+00 0. -1.
<scales pt_clust_5="13000.00000" pt_clust_6="13000.00000" pt_clust_7="13000.00000" pt_clust_8="13000.00000" pt_clust_9="13000.00000"></scales>
<clustering>
<clus scale="   90.485">  7  8 -1 -1</clus>
<clus scale="   92.780">  5  6 -1 -1</clus>
<clus scale="  270.137">  7  9 -1 -1</clus>
<clus scale="  304.320">  2  5  1 -1</clus>
<clus scale="  394.735">  1  5  2 -1</clus>
</clustering>
</event>
<event>
 9    1  0.4753317E-006  0.3567837E+03  0.7546771E-02  0.1081332E+00
         21   -1    0    0  501  502  0.00000000000E+00  0.00000000000E+00  0.15089784083E+03  0.15089784083E+03  0.00000000000E+00 0.  1.
         -1   -1    0    0    0  501 -0.00000000000E+00 -0.00000000000E+00 -0.64049216183E+03  0.64049216183E+03  0.00000000000E+00 0.  1.
         23    2    1    2    0    0  0.39448731652E+02  0.17073433973E+03 -0.16309005672E+02  0.19868972376E+03  0.92223670863E+02 0.  0.
         23    2    1    2    0    0 -0.49028958069E+01  0.32936168256E+02 -0.32314874743E+03  0.33732588782E+03  0.90855996305E+02 0.  0.
        -11    1    3    3    0    0  0.58242484856E+02  0.69938409017E+02  0.13267640633E+02  0.91976075074E+02  0.00000000000E+00 0. -1.
         11    1    3    3    0    0 -0.18793753204E+02  0.10079593072E+03 -0.29576646305E+02  0.10671364868E+03  0.00000000000E+00 0.  1.
        -13    1    4    4    0    0 -0.46967924440E+02  0.18543117971E+02 -0.20387819187E+03  0.21003844950E+03  0.00000000000E+00 0.  1.
         13    1    4    4    0    0  0.42065028633E+02  0.14393050285E+02 -0.11927055556E+03  0.12728743832E+03  0.00000000000E+00 0. -1.
         -1    1    1    2    0  502 -0.34545835845E+02 -0.20367050799E+03 -0.15013656791E+03  0.25537439108E+03  0.00000000000E+00 0.  1.
<scales pt_clust_5="13000.00000" pt_clust_6="13000.00000" pt_clust_7="13000.00000" pt_clust_8="13000.00000" pt_clust_9="13000.00000"></scales>
<clustering>
<clus scale="   90.856">  7  8 -1 -1</clus>
<clus scale="   92.224">  5  6 -1 -1</clus>
<clus scale="  198.019">  2  5  1 -1</clus>
<clus scale="  140.091">  7  9 -1 -1</clus>
<clus scale="  356.784">  1  5  2 -1</clus>
</clustering>
</event>
<event>
 9    1  0.3312826E-006  0.2630301E+03  0.7546771E-02  0.1126391E+00
         21   -1    0    0  501  502  0.00000000000E+00  0.00000000000E+00  0.12114213299E+03  0.12114213299E+03  0.00000000000E+00 0. -1.
          1   -1    0    0  502    0 -0.00000000000E+00 -0.00000000000E+00 -0.43100129224E+03  0.43100129224E+03  0.00000000000E+00 0. -1.
         23    2    1    2    0    0 -0.10856306934E+03  0.64881182884E+02 -0.23010323847E+03  0.27728735904E+03  0.89136250827E+02 0.  0.
         23    2    1    2    0    0  0.45762611774E+02 -0.52474315256E+02 -0.14352801119E+03  0.18449729599E+03  0.92688682336E+02 0.  0.
        -11    1    3    3    0    0 -0.71624967029E+01 -0.20284814537E+02 -0.23220004239E+02  0.31653493594E+02  0.00000000000E+00 0.  1.
         11    1    3    3    0    0 -0.10140057264E+03  0.85165997421E+02 -0.20688323423E+03  0.24563386545E+03  0.00000000000E+00 0. -1.
        -13    1    4    4    0    0 -0.23669543328E+02 -0.30083886174E+02 -0.26372504161E+02  0.46484367958E+02  0.00000000000E+00 0.  1.
         13    1    4    4    0    0  0.69432155102E+02 -0.22390429081E+02 -0.11715550703E+03  0.13801292803E+03  0.00000000000E+00 0. -1.
          1    1    1    2  501    0  0.62800457564E+02 -0.12406867629E+02  0.63772090417E+02  0.90358770193E+02  0.00000000000E+00 0. -1.
<scales pt_clust_5="13000.00000" pt_clust_6="13000.00000" pt_clust_7="13000.00000" pt_clust_8="13000.00000" pt_clust_9="13000.00000"></scales>
<clustering>
<clus scale="   89.136">  5  6 -1 -1</clus>
<clus scale="   92.689">  7  8 -1 -1</clus>
<clus scale="   64.014">  7  9 -1 -1</clus>
<clus scale="  154.728">  2  5  1 -1</clus>
<clus scale="  263.030">  1  5  2 -1</clus>
</clustering>
</event>
<event>
 9    1  0.3312826E-006  0.1970362E+03  0.7546771E-02  0.1176520E+00
          1   -1    0    0  502    0 -0.00000000000E+00  0.00000000000E+00  0.14720301381E+03  0.14720301381E+03  0.00000000000E+00 0. -1.
         21   -1    0    0  501  502  0.00000000000E+00 -0.00000000000E+00 -0.18540142730E+03  0.18540142730E+03  0.00000000000E+00 0. -1.
         23    2    1    2    0    0  0.61086289738E+02  0.10892155107E+02 -0.70741123076E+02  0.13289893280E+03  0.93849059703E+02 0.  0.
         23    2    1    2    0    0 -0.78802703341E+01 -0.50358561435E+02  0.67081904666E+02  0.12499651470E+03  0.92336684925E+02 0.  0.
        -11    1    4    4    0    0 -0.19419223861E+02 -0.70063496368E+02  0.71235976952E+02  0.10178685667E+03  0.00000000000E+00 0. -1.
         11    1    4    4    0    0  0.11538953527E+02  0.19704934933E+02 -0.41540722864E+01  0.23209658028E+02  0.00000000000E+00 0.  1.
        -13    1    3    3    0    0  0.33350427823E+02 -0.10065231089E+02 -0.87593204742E+02  0.94266268781E+02  0.00000000000E+00 0. -1.
         13    1    3    3    0    0  0.27735861915E+02  0.20957386196E+02  0.16852081666E+02  0.38632664014E+02  0.00000000000E+00 0.  1.
          1    1    1    2  501    0 -0.53206019404E+02  0.39466406327E+02 -0.34539195082E+02  0.74708993609E+02  0.00000000000E+00 0. -1.
<scales pt_clust_5="13000.00000" pt_clust_6="13000.00000" pt_clust_7="13000.00000" pt_clust_8="13000.00000" pt_clust_9="13000.00000"></scales>
<clustering>
<clus scale="   92.337">  5  6 -1 -1</clus>
<clus scale="   66.246">  5  9 -1 -1</clus>
<clus scale="   93.849">  7  8 -1 -1</clus>
<clus scale="  112.507">  1  7  2 -1</clus>
<clus scale="  197.036">  2  5  1 -1</clus>
</clustering>
</event>
<event>
 9    1  0.3312826E-006  0.4636577E+03  0.7546771E-02  0.1069733E+00
         21   -1    0    0  501  502  0.00000000000E+00  0.00000000000E+00  0.30154747518E+03  0.30154747518E+03  0.00000000000E+00 0. -1.
         -2   -1    0    0    0  501 -0.00000000000E+00 -0.00000000000E+00 -0.28645726624E+03  0.28645726624E+03  0.00000000000E+00 0.  1.
         23    2    1    2    0    0 -0.83959970921E+02 -0.28847444089E+01  0.13135317688E+02  0.12434288521E+03  0.90724958325E+02 0.  0.
         23    2    1    2    0    0  0.10597870554E+03 -0.20023821254E+02 -0.20746394111E+03  0.25184619485E+03  0.93556290816E+02 0.  0.
        -11    1    3    3    0    0 -0.78974879424E+02  0.26693159766E+02 -0.13230289229E+02  0.84407327356E+02  0.00000000000E+00 0.  1.
         11    1    3    3    0    0 -0.49850914971E+01 -0.29577904175E+02  0.26365606917E+02  0.39935557849E+02  0.00000000000E+00 0. -1.
        -11    1    4    4    0    0  0.23311951343E+02 -0.49429378627E+02 -0.88745704319E+02  0.10422336869E+03  0.00000000000E+00 0. -1.
         11    1    4    4    0    0  0.82666754196E+02  0.29405557373E+02 -0.11871823679E+03  0.14762282615E+03  0.00000000000E+00 0.  1.
         -2    1    1    2    0  502 -0.22018734619E+02  0.22908565663E+02  0.20941883236E+03  0.21181566137E+03  0.00000000000E+00 0.  1.
<scales pt_clust_5="13000.00000" pt_clust_6="13000.00000" pt_clust_7="13000.00000" pt_clust_8="13000.00000" pt_clust_9="13000.00000"></scales>
<clustering>
<clus scale="   90.725">  5  6 -1 -1</clus>
<clus scale="   93.556">  7  8 -1 -1</clus>
<clus scale="   31.775">  7  9 -1 -1</clus>
<clus scale="  123.647">  2  5  1 -1</clus>
<clus scale="  463.658">  1  5  2 -1</clus>
</clustering>
</event>
<event>
 9    1  0.3312826E-006  0.4076306E+03  0.7546771E-02  0.1092485E+00
         21   -1    0    0  501  502  0.00000000000E+00  0.00000000000E+00  0.18727897015E+03  0.18727897015E+03  0.00000000000E+00 0. -1.
          1   -1    0    0  502    0 -0.00000000000E+00 -0.00000000000E+00 -0.34357892526E+03  0.34357892526E+03  0.00000000000E+00 0. -1.
         23    2    1    2    0    0  0.35401787515E+02  0.17908690322E+02 -0.43812986943E+02  0.10799146845E+03  0.90380150943E+02 0.  0.
         23    2    1    2    0    0 -0.15096692771E+03 -0.14347872885E+03 -0.10786830466E+03  0.25214891685E+03  0.92554558098E+02 0.  0.
        -13    1    3    3    0    0  0.60588831308E+02 -0.95824124621E+01 -0.29321871054E+02  0.67989714148E+02  0.00000000000E+00 0.  1.
         13    1    3    3    0    0 -0.25187043793E+02  0.27491102784E+02 -0.14491115889E+02  0.40001754300E+02  0.00000000000E+00 0. -1.
        -13    1    4    4    0    0 -0.54621220312E+02 -0.25889739820E+00 -0.17777299663E+02  0.57441945645E+02  0.00000000000E+00 0.  1.
         13    1    4    4    0    0 -0.96345707399E+02 -0.14321983145E+03 -0.90091005000E+02  0.19470697121E+03  0.00000000000E+00 0. -1.
          1    1    1    2  501    0  0.11556514020E+03  0.12557003853E+03 -0.46186635054E+01  0.17071751010E+03  0.00000000000E+00 0. -1.
<scales pt_clust_5="13000.00000" pt_clust_6="13000.00000" pt_clust_7="13000.00000" pt_clust_8="13000.00000" pt_clust_9="13000.00000"></scales>
<clustering>
<clus scale="   90.380">  5  6 -1 -1</clus>
<clus scale="   92.555">  7  8 -1 -1</clus>
<clus scale="   98.705">  2  5  1 -1</clus>
<clus scale="  182.879">  7  9 -1 -1</clus>
<clus scale="  407.631">  1  5  2 -1</clus>
</clustering>
</event>
<event>
 9    1  0.3312826E-006  0.7739914E+03  0.7546771E-02  0.1008063E+00
          1   -1    0    0  502    0 -0.00000000000E+00  0.00000000000E+00  0.92262058418E+03  0.92262058418E+03  0.00000000000E+00 0. -1.
         21   -1    0    0  501  502  0.00000000000E+00 -0.00000000000E+00 -0.23745371554E+03  0.23745371554E+03  0.00000000000E+00 0. -1.
         23    2    1    2    0    0  0.13076822165E+03 -0.12303114642E+02  0.14213301891E+03  0.21458585810E+03  0.92701677486E+02 0.  0.
         23    2    1    2    0    0 -0.38078353367E+03 -0.20068418718E+03  0.25820235001E+03  0.51074687446E+03  0.94465198481E+02 0.  0.
        -11    1    4    4    0    0 -0.96479247649E+01 -0.28852917589E+02  0.28423814452E+02  0.41635159825E+02  0.00000000000E+00 0.  1.
         11    1    4    4    0    0 -0.37113560891E+03 -0.17183126960E+03  0.22977853555E+03  0.46911171464E+03  0.00000000000E+00 0. -1.
        -13    1    3    3    0    0  0.38069404679E+02 -0.30280411241E+02  0.99965568577E+02  0.11117237867E+03  0.00000000000E+00 0.  1.
         13    1    3    3    0    0  0.92698816973E+02  0.17977296599E+02  0.42167450335E+02  0.10341347944E+03  0.00000000000E+00 0. -1.
          1    1    1    2  501    0  0.25001531202E+03  0.21298730183E+03  0.28483149971E+03  0.43474156716E+03  0.00000000000E+00 0. -1.
<scales pt_clust_5="13000.00000" pt_clust_6="13000.00000" pt_clust_7="13000.00000" pt_clust_8="13000.00000" pt_clust_9="13000.00000"></scales>
<clustering>
<clus scale="   92.702">  7  8 -1 -1</clus>
<clus scale="   94.465">  5  6 -1 -1</clus>
<clus scale="  160.765">  1  7  2 -1</clus>
<clus scale="  375.472">  5  9 -1 -1</clus>
<clus scale="  773.991">  2  5  1 -1</clus>
</clustering>
</event>
<event>
 9    1  0.3312826E-006  0.2858368E+03  0.7546771E-02  0.1119182E+00
          2   -1    0    0  502    0 -0.00000000000E+00  0.00000000000E+00  0.47648855356E+03  0.47648855356E+03  0.00000000000E+00 0. -1.
         21   -1    0    0  501  502  0.00000000000E+00 -0.00000000000E+00 -0.10732385196E+03  0.10732385196E+03  0.00000000000E+00 0. -1.
         23    2    1    2    0    0  0.49730715071E+02 -0.96602977757E+02  0.21539941440E+03  0.25924124716E+03  0.94888551336E+02 0.  0.
         23    2    1    2    0    0 -0.10768042023E+03  0.12579889394E+03  0.17340270828E+03  0.25677589189E+03  0.91896271941E+02 0.  0.
        -11    1    3    3    0    0 -0.11207386448E+02 -0.37024317963E+02  0.14067743500E+03  0.14589909646E+03  0.00000000000E+00 0.  1.
         11    1    3    3    0    0  0.60938101519E+02 -0.59578659794E+02  0.74721979400E+02  0.11334215070E+03  0.00000000000E+00 0. -1.
        -11    1    4    4    0    0 -0.89146998741E+02  0.13610685516E+03  0.12924470245E+03  0.20778945237E+03  0.00000000000E+00 0. -1.
         11    1    4    4    0    0 -0.18533421494E+02 -0.10307961225E+02  0.44158005835E+02  0.48986439514E+02  0.00000000000E+00 0.  1.
          2    1    1    2  501    0  0.57949705164E+02 -0.29195916179E+02 -0.19637421080E+02  0.67795266478E+02  0.00000000000E+00 0. -1.
<scales pt_clust_5="13000.00000" pt_clust_6="13000.00000" pt_clust_7="13000.00000" pt_clust_8="13000.00000" pt_clust_9="13000.00000"></scales>
<clustering>
<clus scale="   91.896">  7  8 -1 -1</clus>
<clus scale="   64.889">  7  9 -1 -1</clus>
<clus scale="   94.889">  5  6 -1 -1</clus>
<clus scale="  144.254">  1  5  2 -1</clus>
<clus scale="  285.837">  2  5  1 -1</clus>
</clustering>
</event>
<event>
 9    1  0.3312826E-006  0.2594896E+03  0.7546771E-02  0.1134113E+00
         -3   -1    0    0    0  501 -0.00000000000E+00  0.00000000000E+00  0.23606817994E+03  0.23606817994E+03  0.00000000000E+00 0.  1.
         21   -1    0    0  501  502  0.00000000000E+00 -0.00000000000E+00 -0.16340850210E+03  0.16340850210E+03  0.00000000000E+00 0.  1.
         23    2    1    2    0    0  0.20371608160E+02 -0.10299975678E+03  0.25426207267E+02  0.13572328974E+03  0.82160617378E+02 0.  0.
         23    2    1    2    0    0 -0.10349604095E+03  0.39648900708E+02  0.66414264962E+02  0.15749472129E+03  0.90057019837E+02 0.  0.
        -13    1    3    3    0    0  0.31800141626E+02 -0.23718756496E+01  0.32920872492E+01  0.32057957515E+02  0.00000000000E+00 0. -1.
         13    1    3    3    0    0 -0.11428533467E+02 -0.10062788113E+03  0.22134120017E+02  0.10366533223E+03  0.00000000000E+00 0.  1.
        -13    1    4    4    0    0 -0.30155546513E+02  0.55915343761E+02  0.11793835882E+02  0.64614063625E+02  0.00000000000E+00 0. -1.
         13    1    4    4    0    0 -0.73340494442E+02 -0.16266443052E+02  0.54620429081E+02  0.92880657661E+02  0.00000000000E+00 0.  1.
         -3    1    1    2    0  502  0.83124432795E+02  0.63350856068E+02 -0.19180794391E+02  0.10625867101E+03  0.00000000000E+00 0.  1.
<scales pt_clust_5="13000.00000" pt_clust_6="13000.00000" pt_clust_7="13000.00000" pt_clust_8="13000.00000" pt_clust_9="13000.00000"></scales>
<clustering>
<clus scale="   82.161">  5  6 -1 -1</clus>
<clus scale="   90.057">  7  8 -1 -1</clus>
<clus scale="  104.513">  7  9 -1 -1</clus>
<clus scale="  133.320">  1  5  2 -1</clus>
<clus scale="  259.490">  2  5  1 -1</clus>
</clustering>
</event>
<event>
 9    1  0.3312826E-006  0.1812531E+03  0.7546771E-02  0.1188600E+00
         21   -1    0    0  501  502  0.00000000000E+00  0.00000000000E+00  0.75604393516E+02  0.75604393516E+02  0.00000000000E+00 0.  1.
         -3   -1    0    0    0  501 -0.00000000000E+00 -0.00000000000E+00 -0.28175416981E+03  0.28175416981E+03  0.00000000000E+00 0.  1.
         23    2    1    2    0    0 -0.26144899850E+02 -0.54709478188E+02 -0.86607398615E+02  0.14023401106E+03  0.92130633193E+02 0.  0.
         23    2    1    2    0    0  0.57849983221E+02 -0.99911484970E+01 -0.66695697247E+02  0.12777045310E+03  0.91817912449E+02 0.  0.
        -13    1    4    4    0    0  0.65297248503E+02  0.26487140984E+02 -0.52716250413E+02  0.88001717922E+02  0.00000000000E+00 0. -1.
         13    1    4    4    0    0 -0.74472652824E+01 -0.36478289481E+02 -0.13979446834E+02  0.39768735175E+02  0.00000000000E+00 0.  1.
        -13    1    3    3    0    0 -0.48624738367E+02 -0.62438379953E+02 -0.85402066422E+02  0.11643208072E+03  0.00000000000E+00 0.  1.
         13    1    3    3    0    0  0.22479838517E+02  0.77289017647E+01 -0.12053321931E+01  0.23801930341E+02  0.00000000000E+00 0. -1.
         -3    1    1    2    0  502 -0.31705083371E+02  0.64700626685E+02 -0.52846680435E+02  0.89354099168E+02  0.00000000000E+00 0.  1.
<scales pt_clust_5="13000.00000" pt_clust_6="13000.00000" pt_clust_7="13000.00000" pt_clust_8="13000.00000" pt_clust_9="13000.00000"></scales>
<clustering>
<clus scale="   91.818">  5  6 -1 -1</clus>
<clus scale="   72.051">  5  9 -1 -1</clus>
<clus scale="   92.131">  7  8 -1 -1</clus>
<clus scale="  110.294">  2  7  1 -1</clus>
<clus scale="  181.253">  1  5  2 -1</clus>
</clustering>
</event>
<event>
 9    1  0.3312826E-006  0.1635523E+03  0.7546771E-02  0.1197353E+00
         21   -1    0    0  501  502  0.00000000000E+00  0.00000000000E+00  0.30739768117E+02  0.30739768117E+02  0.00000000000E+00 0. -1.
          2   -1    0    0  502    0 -0.00000000000E+00 -0.00000000000E+00 -0.73029341829E+03  0.73029341829E+03  0.00000000000E+00 0. -1.
         23    2    1    2    0    0  0.71044614430E+02  0.32122443228E+02 -0.41211232405E+03  0.43031898280E+03  0.96221986721E+02 0.  0.
         23    2    1    2    0    0 -0.62273941963E+02 -0.65403159929E+02 -0.23884600537E+03  0.27116560161E+03  0.91256517806E+02 0.  0.
        -11    1    3    3    0    0  0.43872363702E+02  0.65674581860E+02 -0.23090047403E+03  0.24403475962E+03  0.00000000000E+00 0.  1.
         11    1    3    3    0    0  0.27172250728E+02 -0.33552138632E+02 -0.18121185002E+03  0.18628422318E+03  0.00000000000E+00 0. -1.
        -11    1    4    4    0    0 -0.25355562218E+02 -0.40721966739E+02 -0.21592715691E+03  0.22119159162E+03  0.00000000000E+00 0. -1.
         11    1    4    4    0    0 -0.36918379745E+02 -0.24681193190E+02 -0.22918848452E+02  0.49974009992E+02  0.00000000000E+00 0.  1.
          2    1    1    2  501    0 -0.87706724668E+01  0.33280716701E+02 -0.48595320753E+02  0.59548601988E+02  0.00000000000E+00 0. -1.
<scales pt_clust_5="13000.00000" pt_clust_6="13000.00000" pt_clust_7="13000.00000" pt_clust_8="13000.00000" pt_clust_9="13000.00000"></scales>
<clustering>
<clus scale="   91.257">  7  8 -1 -1</clus>
<clus scale="   34.417">  7  9 -1 -1</clus>
<clus scale="   96.222">  5  6 -1 -1</clus>
<clus scale="  123.846">  2  5  1 -1</clus>
<clus scale="  163.552">  1  5  2 -1</clus>
</clustering>
</event>
<event>
 9    1  0.3312826E-006  0.3390609E+03  0.7546771E-02  0.1085794E+00
         -1   -1    0    0    0  501 -0.00000000000E+00  0.00000000000E+00  0.57205126247E+02  0.57205126247E+02  0.00000000000E+00 0.  1.
         21   -1    0    0  501  502  0.00000000000E+00 -0.00000000000E+00 -0.13233694429E+04  0.13233694429E+04  0.00000000000E+00 0.  1.
         23    2    1    2    0    0  0.18085697874E+03  0.33157425945E+02 -0.58269567570E+03  0.61762522947E+03  0.90100010796E+02 0.  0.
         23    2    1    2    0    0 -0.42138658460E+02 -0.13373847433E+03 -0.33338392056E+03  0.37318193322E+03  0.91968857455E+02 0.  0.
        -13    1    4    4    0    0 -0.47437739579E+02 -0.32730612837E+02 -0.67780064309E+02  0.88970609028E+02  0.00000000000E+00 0. -1.
         13    1    4    4    0    0  0.52990811191E+01 -0.10100786150E+03 -0.26560385625E+03  0.28421132420E+03  0.00000000000E+00 0.  1.
        -13    1    3    3    0    0  0.14406516900E+03  0.63101950302E+02 -0.45299286377E+03  0.47951972188E+03  0.00000000000E+00 0.  1.
         13    1    3    3    0    0  0.36791809743E+02 -0.29944524356E+02 -0.12970281193E+03  0.13810550759E+03  0.00000000000E+00 0. -1.
         -1    1    1    2    0  502 -0.13871832028E+03  0.10058104839E+03 -0.35008472035E+03  0.38976740641E+03  0.00000000000E+00 0.  1.
<scales pt_clust_5="13000.00000" pt_clust_6="13000.00000" pt_clust_7="13000.00000" pt_clust_8="13000.00000" pt_clust_9="13000.00000"></scales>
<clustering>
<clus scale="   90.100">  7  8 -1 -1</clus>
<clus scale="   91.969">  5  6 -1 -1</clus>
<clus scale="  171.346">  5  9 -1 -1</clus>
<clus scale="  204.760">  1  7  2 -1</clus>
<clus scale="  339.061">  2  5  1 -1</clus>
</clustering>
</event>
<event>
 9    1  0.3312826E-006  0.4099554E+03  0.7546771E-02  0.1044576E+00
         21   -1    0    0  501  502  0.00000000000E+00  0.00000000000E+00  0.13959168422E+03  0.13959168422E+03  0.00000000000E+00 0. -1.
          2   -1    0    0  502    0 -0.00000000000E+00 -0.00000000000E+00 -0.12057770002E+04  0.12057770002E+04  0.00000000000E+00 0. -1.
         23    2    1    2    0    0  0.33209305764E+02 -0.34975174356E+03 -0.72949037000E+03  0.81487186049E+03  0.91819436870E+02 0.  0.
         23    2    1    2    0    0  0.35199380136E+02  0.12729381610E+03 -0.21334506810E+03  0.26709129974E+03  0.91536508196E+02 0.  0.
        -13    1    3    3    0    0 -0.23390973973E+02 -0.12946727684E+03 -0.21048956069E+03  0.24822322332E+03  0.00000000000E+00 0.  1.
         13    1    3    3    0    0  0.56600279737E+02 -0.22028446671E+03 -0.51900080931E+03  0.56664863717E+03  0.00000000000E+00 0. -1.
        -13    1    4    4    0    0 -0.37366185152E+01  0.50096618648E+02 -0.15461238763E+03  0.16256882827E+03  0.00000000000E+00 0.  1.
         13    1    4    4    0    0  0.38935998651E+02  0.77197197454E+02 -0.58732680475E+02  0.10452247147E+03  0.00000000000E+00 0. -1.
          2    1    1    2  501    0 -0.68408685900E+02  0.22245792746E+03 -0.12334987784E+03  0.26340552416E+03  0.00000000000E+00 0. -1.
<scales pt_clust_5="13000.00000" pt_clust_6="13000.00000" pt_clust_7="13000.00000" pt_clust_8="13000.00000" pt_clust_9="13000.00000"></scales>
<clustering>
<clus scale="   91.537">  7  8 -1 -1</clus>
<clus scale="   91.819">  5  6 -1 -1</clus>
<clus scale="  232.739">  7  9 -1 -1</clus>
<clus scale="  363.125">  2  5  1 -1</clus>
<clus scale="  409.955">  1  5  2 -1</clus>
</clustering>
</event>
<event>
 9    1  0.3312826E-006  0.2710309E+03  0.7546771E-02  0.1135399E+00
          2   -1    0    0  502    0 -0.00000000000E+00  0.00000000000E+00  0.11164489716E+04  0.11164489716E+04  0.00000000000E+00 0. -1.
         21   -1    0    0  501  502  0.00000000000E+00 -0.00000000000E+00 -0.35530178536E+02  0.35530178536E+02  0.00000000000E+00 0. -1.
         23    2    1    2    0    0  0.55745902388E+02 -0.33077814154E+02  0.19548910111E+03  0.22599669686E+03  0.93041769742E+02 0.  0.
         23    2    1    2    0    0 -0.22924542519E+02  0.12589443975E+03  0.68554782888E+03  0.70317103786E+03  0.89992989725E+02 0.  0.
        -13    1    4    4    0    0 -0.55564114675E+02  0.97420731783E+02  0.45748364758E+03  0.47103020882E+03  0.00000000000E+00 0. -1.
         13    1    4    4    0    0  0.32639572156E+02  0.28473707962E+02  0.22806418130E+03  0.23214082904E+03  0.00000000000E+00 0.  1.
        -13    1    3    3    0    0 -0.17212372438E+02 -0.34959557758E+02  0.85955980345E+02  0.94376199334E+02  0.00000000000E+00 0.  1.
         13    1    3    3    0    0  0.72958274826E+02  0.18817436043E+01  0.10953312076E+03  0.13162049753E+03  0.00000000000E+00 0. -1.
          2    1    1    2  501    0 -0.32821359869E+02 -0.92816625591E+02  0.19988186303E+03  0.22281141537E+03  0.00000000000E+00 0. -1.
<scales pt_clust_5="13000.00000" pt_clust_6="13000.00000" pt_clust_7="13000.00000" pt_clust_8="13000.00000" pt_clust_9="13000.00000"></scales>
<clustering>
<clus scale="   89.993">  5  6 -1 -1</clus>
<clus scale="   93.042">  7  8 -1 -1</clus>
<clus scale="   98.449">  5  9 -1 -1</clus>
<clus scale="  113.395">  1  7  2 -1</clus>
<clus scale="  271.031">  2  5  1 -1</clus>
</clustering>
</event>
<event>
 9    1  0.3836569E-006  0.3286955E+03  0.7546771E-02  0.1089544E+00
          1   -1    0    0  502    0 -0.00000000000E+00  0.00000000000E+00  0.45228803327E+03  0.45228803327E+03  0.00000000000E+00 0. -1.
         21   -1    0    0  501  502  0.00000000000E+00 -0.00000000000E+00 -0.26186611584E+03  0.26186611584E+03  0.00000000000E+00 0. -1.
         23    2    1    2    0    0  0.16952641441E+03 -0.68540115211E+02 -0.14087844104E+03  0.24746297227E+03  0.89186517578E+02 0.  0.
         23    2    1    2    0    0 -0.21301963481E+02 -0.13776831093E+01  0.28018578521E+03  0.29501798156E+03  0.89865808588E+02 0.  0.
        -13    1    4    4    0    0 -0.47249389806E+02  0.16713516735E+01  0.25274556709E+03  0.25712957811E+03  0.00000000000E+00 0. -1.
         13    1    4    4    0    0  0.25947426325E+02 -0.30490347829E+01  0.27440218117E+02  0.37888403454E+02  0.00000000000E+00 0.  1.
        -13    1    3    3    0    0  0.74069218382E+02 -0.37346752364E+02 -0.11837749440E+03  0.14454847009E+03  0.00000000000E+00 0. -1.
         13    1    3    3    0    0  0.95457196032E+02 -0.31193362846E+02 -0.22500946641E+02  0.10291450218E+03  0.00000000000E+00 0.  1.
          1    1    1    2  501    0 -0.14822445093E+03  0.69917798320E+02  0.51114573272E+02  0.17167319528E+03  0.00000000000E+00 0. -1.
<scales pt_clust_5="13000.00000" pt_clust_6="13000.00000" pt_clust_7="13000.00000" pt_clust_8="13000.00000" pt_clust_9="13000.00000"></scales>
<clustering>
<clus scale="   89.187">  7  8 -1 -1</clus>
<clus scale="   89.866">  5  6 -1 -1</clus>
<clus scale="  163.887">  5  9 -1 -1</clus>
<clus scale="  203.448">  1  7  2 -1</clus>
<clus scale="  328.695">  2  5  1 -1</clus>
</clustering>
</event>
<event>
 9    1  0.3312826E-006  0.1967318E+03  0.7546771E-02  0.1171564E+00
         -1   -1    0    0    0  501 -0.00000000000E+00  0.00000000000E+00  0.31351152030E+03  0.31351152030E+03  0.00000000000E+00 0.  1.
         21   -1    0    0  501  502  0.00000000000E+00 -0.00000000000E+00 -0.25749162670E+03  0.25749162670E+03  0.00000000000E+00 0. -1.
         23    2    1    2    0    0  0.40549459008E+02 -0.74616652382E+02  0.25905466625E+03  0.28829038050E+03  0.93755639535E+02 0.  0.
         23    2    1    2    0    0  0.30031164182E+02  0.40806108754E+01 -0.10085963143E+03  0.13989569117E+03  0.92084835611E+02 0.  0.
        -11    1    4    4    0    0 -0.22353290433E+02  0.11383348369E+00 -0.80513374283E+02  0.83558877384E+02  0.00000000000E+00 0. -1.
         11    1    4    4    0    0  0.52384454615E+02  0.39667773917E+01 -0.20346257148E+02  0.56336813791E+02  0.00000000000E+00 0.  1.
        -13    1    3    3    0    0  0.25824487565E+02 -0.94765766812E+02  0.17582625512E+03  0.20140091039E+03  0.00000000000E+00 0.  1.
         13    1    3    3    0    0  0.14724971443E+02  0.20149114430E+02  0.83228411133E+02  0.86889470111E+02  0.00000000000E+00 0. -1.
         -1    1    1    2    0  502 -0.70580623190E+02  0.70536041507E+02 -0.10217514122E+03  0.14281707533E+03  0.00000000000E+00 0.  1.
<scales pt_clust_5="13000.00000" pt_clust_6="13000.00000" pt_clust_7="13000.00000" pt_clust_8="13000.00000" pt_clust_9="13000.00000"></scales>
<clustering>
<clus scale="   92.085">  5  6 -1 -1</clus>
<clus scale="   93.756">  7  8 -1 -1</clus>
<clus scale="   99.785">  5  9 -1 -1</clus>
<clus scale="  126.499">  1  7  2 -1</clus>
<clus scale="  196.732">  2  5  1 -1</clus>
</clustering>
</event>
<event>
 9    1  0.3312826E-006  0.3139108E+03  0.7546771E-02  0.1122788E+00
         -4   -1    0    0    0  501 -0.00000000000E+00  0.00000000000E+00  0.18210070390E+03  0.18210070390E+03  0.00000000000E+00 0.  1.
         21   -1    0    0  501  502  0.00000000000E+00 -0.00000000000E+00 -0.23503305337E+03  0.23503305337E+03  0.00000000000E+00 0.  1.
         23    2    1    2    0    0 -0.37442188522E+02  0.12992484118E+02 -0.57883818818E+01  0.99702565870E+02  0.91303746645E+02 0.  0.
         23    2    1    2    0    0  0.19486481798E+02  0.23641081252E+02  0.11431565597E+03  0.15089700405E+03  0.93612034149E+02 0.  0.
        -11    1    4    4    0    0 -0.18350243589E+02  0.23336311423E+02  0.10865548024E+03  0.11263804090E+03  0.00000000000E+00 0.  1.
         11    1    4    4    0    0  0.37836725386E+02  0.30476982886E+00  0.56601757263E+01  0.38258963157E+02  0.00000000000E+00 0. -1.
        -13    1    3    3    0    0 -0.51295994582E+02  0.39774994258E+02  0.99834758955E+01  0.65673427041E+02  0.00000000000E+00 0.  1.
         13    1    3    3    0    0  0.13853806060E+02 -0.26782510139E+02 -0.15771857777E+02  0.34029138829E+02  0.00000000000E+00 0. -1.
         -4    1    1    2    0  502  0.17955706725E+02 -0.36633565371E+02 -0.16145962356E+03  0.16653418734E+03  0.00000000000E+00 0.  1.
<scales pt_clust_5="13000.00000" pt_clust_6="13000.00000" pt_clust_7="13000.00000" pt_clust_8="13000.00000" pt_clust_9="13000.00000"></scales>
<clustering>
<clus scale="   91.304">  7  8 -1 -1</clus>
<clus scale="   93.612">  5  6 -1 -1</clus>
<clus scale="   40.797">  5  9 -1 -1</clus>
<clus scale="   99.534">  1  7  2 -1</clus>
<clus scale="  313.911">  2  5  1 -1</clus>
</clustering>
</event>
<event>
 9    1  0.3312826E-006  0.1406349E+03  0.7546771E-02  0.1229955E+00
          2   -1    0    0  502    0 -0.00000000000E+00  0.00000000000E+00  0.16537005477E+03  0.16537005477E+03  0.00000000000E+00 0. -1.
         21   -1    0    0  501  502  0.00000000000E+00 -0.00000000000E+00 -0.86114201036E+02  0.86114201036E+02  0.00000000000E+00 0.  1.
         23    2    1    2    0    0  0.23481150771E+00  0.94282417096E+01  0.24261753171E+02  0.10047917821E+03  0.97048883092E+02 0.  0.
         23    2    1    2    0    0  0.39995695923E+02 -0.10980866504E+02  0.51563345586E+02  0.11059871112E+03  0.88617499241E+02 0.  0.
        -11    1    4    4    0    0  0.58390540113E+02  0.16663602961E+02  0.17878481847E+02  0.63299059642E+02  0.00000000000E+00 0.  1.
         11    1    4    4    0    0 -0.18394844190E+02 -0.27644469465E+02  0.33684863740E+02  0.47299651478E+02  0.00000000000E+00 0. -1.
        -11    1    3    3    0    0 -0.25036356375E+02 -0.11636537369E+02 -0.27615656053E+02  0.39049361092E+02  0.00000000000E+00 0.  1.
         11    1    3    3    0    0  0.25271167883E+02  0.21064779078E+02  0.51877409224E+02  0.61429817121E+02  0.00000000000E+00 0. -1.
          2    1    1    2  501    0 -0.40230507431E+02  0.15526247945E+01  0.34307549774E+01  0.40406366474E+02  0.00000000000E+00 0. -1.
<scales pt_clust_5="13000.00000" pt_clust_6="13000.00000" pt_clust_7="13000.00000" pt_clust_8="13000.00000" pt_clust_9="13000.00000"></scales>
<clustering>
<clus scale="   88.617">  5  6 -1 -1</clus>
<clus scale="   40.260">  5  9 -1 -1</clus>
<clus scale="   97.049">  7  8 -1 -1</clus>
<clus scale="   97.506">  1  7  2 -1</clus>
<clus scale="  140.635">  2  5  1 -1</clus>
</clustering>
</event>
<event>
 9    1  0.3312826E-006  0.5180097E+03  0.7546771E-02  0.1066553E+00
         21   -1    0    0  501  502  0.00000000000E+00  0.00000000000E+00  0.25941335763E+03  0.25941335763E+03  0.00000000000E+00 0. -1.
          1   -1    0    0  502    0 -0.00000000000E+00 -0.00000000000E+00 -0.54830523668E+03  0.54830523668E+03  0.00000000000E+00 0. -1.
         23    2    1    2    0    0  0.28374024851E+02 -0.18736093983E+02 -0.27279757869E+03  0.28945889975E+03  0.90619033320E+02 0.  0.
         23    2    1    2    0    0  0.11703920131E+03 -0.13237275508E+03 -0.16724840628E+03  0.25975156251E+03  0.90984195838E+02 0.  0.
        -11    1    4    4    0    0  0.58636314159E+02 -0.12425043497E+03 -0.13466618551E+03  0.19238339182E+03  0.00000000000E+00 0.  1.
         11    1    4    4    0    0  0.58402887147E+02 -0.81223201027E+01 -0.32582220770E+02  0.67368170684E+02  0.00000000000E+00 0. -1.
        -13    1    3    3    0    0 -0.93611656799E+01  0.24696143319E+02 -0.30143012811E+02  0.40076578435E+02  0.00000000000E+00 0.  1.
         13    1    3    3    0    0  0.37735190531E+02 -0.43432237301E+02 -0.24265456588E+03  0.24938232131E+03  0.00000000000E+00 0. -1.
          1    1    1    2  501    0 -0.14541322616E+03  0.15110884906E+03  0.15115410591E+03  0.25850813206E+03  0.00000000000E+00 0. -1.
<scales pt_clust_5="13000.00000" pt_clust_6="13000.00000" pt_clust_7="13000.00000" pt_clust_8="13000.00000" pt_clust_9="13000.00000"></scales>
<clustering>
<clus scale="   90.619">  7  8 -1 -1</clus>
<clus scale="   90.984">  5  6 -1 -1</clus>
<clus scale="   96.788">  2  7  1 -1</clus>
<clus scale="  203.052">  5  9 -1 -1</clus>
<clus scale="  518.010">  1  5  2 -1</clus>
</clustering>
</event>
<event>
 9    1  0.3312826E-006  0.2004254E+03  0.7546771E-02  0.1170445E+00
         21   -1    0    0  501  502  0.00000000000E+00  0.00000000000E+00  0.18235286130E+03  0.18235286130E+03  0.00000000000E+00 0. -1.
          3   -1    0    0  502    0 -0.00000000000E+00 -0.00000000000E+00 -0.14366464690E+03  0.14366464690E+03  0.00000000000E+00 0. -1.
         23    2    1    2    0    0  0.81463327307E+02 -0.93771411151E+01  0.24013343886E+02  0.12505554734E+03  0.91312894845E+02 0.  0.
         23    2    1    2    0    0  0.39861667921E+01 -0.22170819812E+02 -0.36191454687E+02  0.96634242014E+02  0.86723241179E+02 0.  0.
        -11    1    3    3    0    0  0.26666910096E+01 -0.36242318135E+02 -0.54466830149E+01  0.36746200084E+02  0.00000000000E+00 0.  1.
         11    1    3    3    0    0  0.78796636298E+02  0.26865177020E+02  0.29460026901E+02  0.88309347258E+02  0.00000000000E+00 0. -1.
        -13    1    4    4    0    0  0.21502301193E+02 -0.70490647085E+00  0.22869113292E+02  0.31398124028E+02  0.00000000000E+00 0.  1.
         13    1    4    4    0    0 -0.17516134401E+02 -0.21465913341E+02 -0.59060567979E+02  0.65236117986E+02  0.00000000000E+00 0. -1.
          3    1    1    2  501    0 -0.85449494100E+02  0.31547960927E+02  0.50866325200E+02  0.10432771885E+03  0.00000000000E+00 0. -1.
<scales pt_clust_5="13000.00000" pt_clust_6="13000.00000" pt_clust_7="13000.00000" pt_clust_8="13000.00000" pt_clust_9="13000.00000"></scales>
<clustering>
<clus scale="   86.723">  7  8 -1 -1</clus>
<clus scale="   91.087">  7  9 -1 -1</clus>
<clus scale="   91.313">  5  6 -1 -1</clus>
<clus scale="  122.728">  2  5  1 -1</clus>
<clus scale="  200.425">  1  5  2 -1</clus>
</clustering>
</event>
<event>
 9    1  0.3312826E-006  0.1766926E+03  0.7546771E-02  0.1200826E+00
          3   -1    0    0  502    0 -0.00000000000E+00  0.00000000000E+00  0.37688061896E+03  0.37688061896E+03  0.00000000000E+00 0. -1.
         21   -1    0    0  501  502  0.00000000000E+00 -0.00000000000E+00 -0.54382729249E+02  0.54382729249E+02  0.00000000000E+00 0. -1.
         23    2    1    2    0    0 -0.74233245124E+01 -0.27105893768E+01  0.18903915003E+03  0.20983276851E+03  0.90727820740E+02 0.  0.
         23    2    1    2    0    0 -0.49506001278E+02  0.32424279383E+02  0.10337820517E+03  0.15051732237E+03  0.92012134921E+02 0.  0.
        -11    1    3    3    0    0  0.34877422863E+02 -0.17063685982E+02  0.13076434426E+03  0.13640717626E+03  0.00000000000E+00 0.  1.
         11    1    3    3    0    0 -0.42300747375E+02  0.14353096605E+02  0.58274805772E+02  0.73425592257E+02  0.00000000000E+00 0. -1.
        -13    1    4    4    0    0 -0.46834151437E+02 -0.17935853258E+02  0.21965772575E+02  0.54750595775E+02  0.00000000000E+00 0.  1.
         13    1    4    4    0    0 -0.26718498404E+01  0.50360132641E+02  0.81412432597E+02  0.95766726594E+02  0.00000000000E+00 0. -1.
          3    1    1    2  501    0  0.56929325790E+02 -0.29713690006E+02  0.30080534514E+02  0.70913257331E+02  0.00000000000E+00 0. -1.
<scales pt_clust_5="13000.00000" pt_clust_6="13000.00000" pt_clust_7="13000.00000" pt_clust_8="13000.00000" pt_clust_9="13000.00000"></scales>
<clustering>
<clus scale="   90.728">  5  6 -1 -1</clus>
<clus scale="   91.071">  1  5  2 -1</clus>
<clus scale="   92.012">  7  8 -1 -1</clus>
<clus scale="   62.723">  7  9 -1 -1</clus>
<clus scale="  176.693">  2  5  1 -1</clus>
</clustering>
</event>
<event>
 9    1  0.3312826E-006  0.2137929E+03  0.7546771E-02  0.1156086E+00
         21   -1    0    0  501  502  0.00000000000E+00  0.00000000000E+00  0.23030212915E+03  0.23030212915E+03  0.00000000000E+00 0. -1.
          1   -1    0    0  502    0 -0.00000000000E+00 -0.00000000000E+00 -0.15707571197E+03  0.15707571197E+03  0.00000000000E+00 0. -1.
         23    2    1    2    0    0  0.64769962327E+02  0.88560980693E+02 -0.38507408783E+02  0.14614798003E+03  0.88533701007E+02 0.  0.
         23    2    1    2    0    0 -0.32979322474E+02 -0.80371072245E+02 -0.32797230383E+00  0.12445843474E+03  0.89121543116E+02 0.  0.
        -11    1    3    3    0    0  0.83683852742E+02  0.51477196314E+02 -0.35291582651E+02  0.10439532919E+03  0.00000000000E+00 0.  1.
         11    1    3    3    0    0 -0.18913890415E+02  0.37083784380E+02 -0.32158261321E+01  0.41752650841E+02  0.00000000000E+00 0. -1.
        -11    1    4    4    0    0  0.86971068781E+00 -0.38816821920E+02 -0.41532205083E+02  0.56854429200E+02  0.00000000000E+00 0. -1.
         11    1    4    4    0    0 -0.33849033161E+02 -0.41554250324E+02  0.41204232779E+02  0.67604005539E+02  0.00000000000E+00 0.  1.
          1    1    1    2  501    0 -0.31790639854E+02 -0.81899084486E+01  0.11206179827E+03  0.11677142636E+03  0.00000000000E+00 0. -1.
<scales pt_clust_5="13000.00000" pt_clust_6="13000.00000" pt_clust_7="13000.00000" pt_clust_8="13000.00000" pt_clust_9="13000.00000"></scales>
<clustering>
<clus scale="   88.534">  5  6 -1 -1</clus>
<clus scale="   89.122">  7  8 -1 -1</clus>
<clus scale="   32.829">  7  9 -1 -1</clus>
<clus scale="  140.984">  2  5  1 -1</clus>
<clus scale="  213.793">  1  5  2 -1</clus>
</clustering>
</event>
<event>
 9    1  0.3312826E-006  0.2002599E+03  0.7546771E-02  0.1166409E+00
         21   -1    0    0  501  502  0.00000000000E+00  0.00000000000E+00  0.11205338296E+03  0.11205338296E+03  0.00000000000E+00 0. -1.
          1   -1    0    0  502    0 -0.00000000000E+00 -0.00000000000E+00 -0.41957647703E+03  0.41957647703E+03  0.00000000000E+00 0. -1.
         23    2    1    2    0    0  0.80383542652E+02  0.58839435400E+02 -0.30257119127E+03  0.33130873876E+03  0.91063502572E+02 0.  0.
         23    2    1    2    0    0 -0.88029747309E+02 -0.15002792773E+02 -0.50178704592E+02  0.13687366830E+03  0.90786444351E+02 0.  0.
        -11    1    3    3    0    0  0.64063401315E+02 -0.53628666495E+00 -0.93390234763E+02  0.11325256262E+03  0.00000000000E+00 0.  1.
         11    1    3    3    0    0  0.16320141337E+02  0.59375722065E+02 -0.20918095651E+03  0.21805617613E+03  0.00000000000E+00 0. -1.
        -11    1    4    4    0    0  0.83203946751E+01 -0.27500494977E+02 -0.30618284562E+01  0.28894307138E+02  0.00000000000E+00 0. -1.
         11    1    4    4    0    0 -0.96350141984E+02  0.12497702203E+02 -0.47116876136E+02  0.10797936117E+03  0.00000000000E+00 0.  1.
          1    1    1    2  501    0  0.76462046574E+01 -0.43836642626E+02  0.45226801791E+02  0.63447452925E+02  0.00000000000E+00 0. -1.
<scales pt_clust_5="13000.00000" pt_clust_6="13000.00000" pt_clust_7="13000.00000" pt_clust_8="13000.00000" pt_clust_9="13000.00000"></scales>
<clustering>
<clus scale="   90.786">  7  8 -1 -1</clus>
<clus scale="   44.499">  7  9 -1 -1</clus>
<clus scale="   91.064">  5  6 -1 -1</clus>
<clus scale="  134.967">  2  5  1 -1</clus>
<clus scale="  200.260">  1  5  2 -1</clus>
</clustering>
</event>
<event>
 9    1  0.3312826E-006  0.3866686E+03  0.7546771E-02  0.1098946E+00
         21   -1    0    0  501  502  0.00000000000E+00  0.00000000000E+00  0.32188055865E+03  0.32188055865E+03  0.00000000000E+00 0. -1.
          1   -1    0    0  502    0 -0.00000000000E+00 -0.00000000000E+00 -0.54335215823E+03  0.54335215823E+03  0.00000000000E+00 0. -1.
         23    2    1    2    0    0 -0.24778527635E+02 -0.25548020411E+02 -0.41956020636E+03  0.43077705928E+03  0.90947409324E+02 0.  0.
         23    2    1    2    0    0 -0.16604091735E+03  0.84909125466E+01  0.61306940612E+02  0.19905763358E+03  0.90684721379E+02 0.  0.
        -11    1    3    3    0    0 -0.10139869021E+02  0.34394338497E+02 -0.14485722647E+03  0.14922936549E+03  0.00000000000E+00 0.  1.
         11    1    3    3    0    0 -0.14638658614E+02 -0.59942358908E+02 -0.27470297989E+03  0.28154769379E+03  0.00000000000E+00 0. -1.
        -11    1    4    4    0    0 -0.11107613296E+03 -0.30718254970E+02  0.63351356409E+02  0.13151012456E+03  0.00000000000E+00 0. -1.
         11    1    4    4    0    0 -0.54964784385E+02  0.39209167516E+02 -0.20444157966E+01  0.67547509027E+02  0.00000000000E+00 0.  1.
          1    1    1    2  501    0  0.19081944498E+03  0.17057107865E+02  0.13678166617E+03  0.23539802402E+03  0.00000000000E+00 0. -1.
<scales pt_clust_5="13000.00000" pt_clust_6="13000.00000" pt_clust_7="13000.00000" pt_clust_8="13000.00000" pt_clust_9="13000.00000"></scales>
<clustering>
<clus scale="   90.685">  7  8 -1 -1</clus>
<clus scale="   90.947">  5  6 -1 -1</clus>
<clus scale="   97.663">  2  5  1 -1</clus>
<clus scale="  180.595">  7  9 -1 -1</clus>
<clus scale="  386.669">  1  5  2 -1</clus>
</clustering>
</event>
<event>
 9    1  0.3312826E-006  0.6860524E+03  0.7546771E-02  0.1016148E+00
         21   -1    0    0  501  502  0.00000000000E+00  0.00000000000E+00  0.23299723421E+03  0.23299723421E+03  0.00000000000E+00 0. -1.
          1   -1    0    0  502    0 -0.00000000000E+00 -0.00000000000E+00 -0.81411057942E+03  0.81411057942E+03  0.00000000000E+00 0. -1.
         23    2    1    2    0    0 -0.10966951744E+03  0.10981107992E+03 -0.77263058912E+02  0.19591276850E+03  0.91248869912E+02 0.  0.
         23    2    1    2    0    0  0.92460411191E+02  0.22819143190E+03 -0.43205858274E+03  0.50522409254E+03  0.89199257450E+02 0.  0.
        -13    1    4    4    0    0 -0.53282081091E+01  0.65102294591E+02 -0.66793935603E+02  0.93424452881E+02  0.00000000000E+00 0.  1.
         13    1    4    4    0    0  0.97788619300E+02  0.16308913731E+03 -0.36526464714E+03  0.41179963966E+03  0.00000000000E+00 0. -1.
        -13    1    3    3    0    0  0.15149651019E+02  0.24487149178E+02 -0.13962966957E+02  0.32001513200E+02  0.00000000000E+00 0.  1.
         13    1    3    3    0    0 -0.12481916846E+03  0.85323930739E+02 -0.63300091955E+02  0.16391125530E+03  0.00000000000E+00 0. -1.
          1    1    1    2  501    0  0.17209106254E+02 -0.33800251182E+03 -0.71791703564E+02  0.34597095259E+03  0.00000000000E+00 0. -1.
<scales pt_clust_5="13000.00000" pt_clust_6="13000.00000" pt_clust_7="13000.00000" pt_clust_8="13000.00000" pt_clust_9="13000.00000"></scales>
<clustering>
<clus scale="   89.199">  5  6 -1 -1</clus>
<clus scale="   91.249">  7  8 -1 -1</clus>
<clus scale="  180.034">  2  7  1 -1</clus>
<clus scale="  304.601">  5  9 -1 -1</clus>
<clus scale="  686.052">  1  5  2 -1</clus>
</clustering>
</event>
<event>
 9    1  0.3312826E-006  0.2864852E+03  0.7546771E-02  0.1118448E+00
          3   -1    0    0  502    0 -0.00000000000E+00  0.00000000000E+00  0.10503075598E+03  0.10503075598E+03  0.00000000000E+00 0. -1.
         21   -1    0    0  501  502  0.00000000000E+00 -0.00000000000E+00 -0.82932683907E+03  0.82932683907E+03  0.00000000000E+00 0.  1.
         23    2    1    2    0    0  0.46116506785E+02 -0.10410175067E+03 -0.60782897214E+03  0.62510311632E+03  0.91290415518E+02 0.  0.
         23    2    1    2    0    0  0.83519588184E+02  0.33707383300E+02 -0.10949686020E+02  0.12788521165E+03  0.90127811665E+02 0.  0.
        -13    1    3    3    0    0  0.71225970505E+02 -0.76370395201E+02 -0.50489669270E+03  0.51558340395E+03  0.00000000000E+00 0.  1.
         13    1    3    3    0    0 -0.25109463720E+02 -0.27731355470E+02 -0.10293227945E+03  0.10951971237E+03  0.00000000000E+00 0. -1.
        -13    1    4    4    0    0  0.68405142068E+02  0.62842629329E+02  0.11695315383E+01  0.92896863921E+02  0.00000000000E+00 0.  1.
         13    1    4    4    0    0  0.15114446116E+02 -0.29135246029E+02 -0.12119217559E+02  0.34988347729E+02  0.00000000000E+00 0. -1.
          3    1    1    2  501    0 -0.12963609497E+03  0.70394367371E+02 -0.10551742493E+03  0.18136926708E+03  0.00000000000E+00 0. -1.
<scales pt_clust_5="13000.00000" pt_clust_6="13000.00000" pt_clust_7="13000.00000" pt_clust_8="13000.00000" pt_clust_9="13000.00000"></scales>
<clustering>
<clus scale="   90.128">  7  8 -1 -1</clus>
<clus scale="   91.290">  5  6 -1 -1</clus>
<clus scale="  145.938">  1  5  2 -1</clus>
<clus scale="  115.312">  7  9 -1 -1</clus>
<clus scale="  286.485">  2  5  1 -1</clus>
</clustering>
</event>
<event>
 9    1  0.3312826E-006  0.8775649E+03  0.7546771E-02  0.1011997E+00
         21   -1    0    0  501  502  0.00000000000E+00  0.00000000000E+00  0.59415953767E+03  0.59415953767E+03  0.00000000000E+00 0. -1.
          1   -1    0    0  502    0 -0.00000000000E+00 -0.00000000000E+00 -0.40137711156E+03  0.40137711156E+03  0.00000000000E+00 0. -1.
         23    2    1    2    0    0 -0.16411691364E+01 -0.21970062129E+01  0.35853996418E+02  0.10405096289E+03  0.97640020206E+02 0.  0.
         23    2    1    2    0    0 -0.16353161671E+03  0.25962782239E+03 -0.23321285837E+03  0.39574089419E+03  0.89852224273E+02 0.  0.
        -13    1    4    4    0    0 -0.40401702241E+02  0.92250279992E+02 -0.29956786812E+02  0.10507055143E+03  0.00000000000E+00 0.  1.
         13    1    4    4    0    0 -0.12312991447E+03  0.16737754240E+03 -0.20325607155E+03  0.29067034276E+03  0.00000000000E+00 0. -1.
        -13    1    3    3    0    0 -0.22992556821E+02 -0.32269888748E+02 -0.14011928141E+02  0.42027818397E+02  0.00000000000E+00 0.  1.
         13    1    3    3    0    0  0.21351387685E+02  0.30072882535E+02  0.49865924559E+02  0.62023144488E+02  0.00000000000E+00 0. -1.
          1    1    1    2  501    0  0.16517278584E+03 -0.25743081618E+03  0.39014128805E+03  0.49574479215E+03  0.00000000000E+00 0. -1.
<scales pt_clust_5="13000.00000" pt_clust_6="13000.00000" pt_clust_7="13000.00000" pt_clust_8="13000.00000" pt_clust_9="13000.00000"></scales>
<clustering>
<clus scale="   89.852">  5  6 -1 -1</clus>
<clus scale="   97.640">  7  8 -1 -1</clus>
<clus scale="   97.679">  2  7  1 -1</clus>
<clus scale="  306.003">  5  9 -1 -1</clus>
<clus scale="  877.565">  1  5  2 -1</clus>
</clustering>
</event>
<event>
 9    1  0.3312826E-006  0.6535256E+03  0.7546771E-02  0.1024719E+00
         21   -1    0    0  501  502  0.00000000000E+00  0.00000000000E+00  0.57877361103E+03  0.57877361103E+03  0.00000000000E+00 0. -1.
          1   -1    0    0  502    0 -0.00000000000E+00 -0.00000000000E+00 -0.30508926979E+03  0.30508926979E+03  0.00000000000E+00 0. -1.
         23    2    1    2    0    0 -0.11298751822E+03 -0.65846936081E+02  0.14775921093E+03  0.21831583272E+03  0.93418521383E+02 0.  0.
         23    2    1    2    0    0  0.15730358387E+03  0.25133980195E+03 -0.13856123024E+03  0.33947259052E+03  0.90146057296E+02 0.  0.
        -11    1    3    3    0    0 -0.78040336204E+02  0.48001723754E+01  0.50283915484E+02  0.92961324680E+02  0.00000000000E+00 0. -1.
         11    1    3    3    0    0 -0.34947182014E+02 -0.70647108456E+02  0.97475295446E+02  0.12535450804E+03  0.00000000000E+00 0.  1.
        -13    1    4    4    0    0  0.17353559300E+02  0.15377756616E+02 -0.43198470168E+02  0.49027841517E+02  0.00000000000E+00 0.  1.
         13    1    4    4    0    0  0.13995002457E+03  0.23596204533E+03 -0.95362760075E+02  0.29044474900E+03  0.00000000000E+00 0. -1.
          1    1    1    2  501    0 -0.44316065656E+02 -0.18549286587E+03  0.26448636056E+03  0.32607445758E+03  0.00000000000E+00 0. -1.
<scales pt_clust_5="13000.00000" pt_clust_6="13000.00000" pt_clust_7="13000.00000" pt_clust_8="13000.00000" pt_clust_9="13000.00000"></scales>
<clustering>
<clus scale="   90.146">  7  8 -1 -1</clus>
<clus scale="   93.419">  5  6 -1 -1</clus>
<clus scale="  160.714">  2  5  1 -1</clus>
<clus scale="  201.309">  7  9 -1 -1</clus>
<clus scale="  653.526">  1  5  2 -1</clus>
</clustering>
</event>
<event>
 9    1  0.3312826E-006  0.2586446E+03  0.7546771E-02  0.1123916E+00
         21   -1    0    0  501  502  0.00000000000E+00  0.00000000000E+00  0.14968966384E+03  0.14968966384E+03  0.00000000000E+00 0. -1.
          1   -1    0    0  502    0 -0.00000000000E+00 -0.00000000000E+00 -0.37193387856E+03  0.37193387856E+03  0.00000000000E+00 0. -1.
         23    2    1    2    0    0 -0.10533459639E+03 -0.10141848498E+03 -0.19631788236E+03  0.26168274968E+03  0.92498995958E+02 0.  0.
         23    2    1    2    0    0  0.53437677457E+02  0.27875703866E+02 -0.96480954221E+02  0.14557390277E+03  0.90832518418E+02 0.  0.
        -11    1    3    3    0    0 -0.85241479494E+02 -0.37543329116E+02 -0.62864442357E+02  0.11237236983E+03  0.00000000000E+00 0.  1.
         11    1    3    3    0    0 -0.20093116896E+02 -0.63875155865E+02 -0.13345344001E+03  0.14931037986E+03  0.00000000000E+00 0. -1.
        -11    1    4    4    0    0  0.74226516814E+02  0.20884434495E+02 -0.44199486926E+02  0.88878175314E+02  0.00000000000E+00 0.  1.
         11    1    4    4    0    0 -0.20788839358E+02  0.69912693717E+01 -0.52281467295E+02  0.56695727456E+02  0.00000000000E+00 0. -1.
          1    1    1    2  501    0  0.51896918933E+02  0.73542781114E+02  0.70554621873E+02  0.11436688995E+03  0.00000000000E+00 0. -1.
<scales pt_clust_5="13000.00000" pt_clust_6="13000.00000" pt_clust_7="13000.00000" pt_clust_8="13000.00000" pt_clust_9="13000.00000"></scales>
<clustering>
<clus scale="   90.833">  7  8 -1 -1</clus>
<clus scale="   90.010">  7  9 -1 -1</clus>
<clus scale="   92.499">  5  6 -1 -1</clus>
<clus scale="  173.024">  2  5  1 -1</clus>
<clus scale="  258.645">  1  5  2 -1</clus>
</clustering>
</event>
<event>
 9    1  0.3312826E-006  0.3317800E+03  0.7546771E-02  0.1115639E+00
         21   -1    0    0  501  502  0.00000000000E+00  0.00000000000E+00  0.36245173942E+03  0.36245173942E+03  0.00000000000E+00 0. -1.
          1   -1    0    0  502    0 -0.00000000000E+00 -0.00000000000E+00 -0.21583133190E+03  0.21583133190E+03  0.00000000000E+00 0. -1.
         23    2    1    2    0    0 -0.32082273425E+02  0.31110154313E+02 -0.11704851248E+03  0.15449154647E+03  0.90388990974E+02 0.  0.
         23    2    1    2    0    0  0.13630464425E+03  0.65378807330E+02  0.20139532231E+03  0.26870953599E+03  0.93762435934E+02 0.  0.
        -13    1    4    4    0    0  0.66373539184E+02 -0.18086289136E+02  0.84343772962E+02  0.10884131842E+03  0.00000000000E+00 0.  1.
         13    1    4    4    0    0  0.69931105062E+02  0.83465096466E+02  0.11705154935E+03  0.15986821757E+03  0.00000000000E+00 0. -1.
        -13    1    3    3    0    0 -0.18840937915E+02  0.55066392204E+02 -0.11261147471E+03  0.12676211078E+03  0.00000000000E+00 0. -1.
         13    1    3    3    0    0 -0.13241335510E+02 -0.23956237891E+02 -0.44370377661E+01  0.27729435698E+02  0.00000000000E+00 0.  1.
          1    1    1    2  501    0 -0.10422237082E+03 -0.96488961643E+02  0.62273597689E+02  0.15508198886E+03  0.00000000000E+00 0. -1.
<scales pt_clust_5="13000.00000" pt_clust_6="13000.00000" pt_clust_7="13000.00000" pt_clust_8="13000.00000" pt_clust_9="13000.00000"></scales>
<clustering>
<clus scale="   90.389">  7  8 -1 -1</clus>
<clus scale="   93.762">  5  6 -1 -1</clus>
<clus scale="  100.833">  2  7  1 -1</clus>
<clus scale="  145.738">  5  9 -1 -1</clus>
<clus scale="  331.780">  1  5  2 -1</clus>
</clustering>
</event>
<event>
 9    1  0.3312826E-006  0.1940008E+03  0.7546771E-02  0.1166172E+00
          1   -1    0    0  502    0 -0.00000000000E+00  0.00000000000E+00  0.35968179954E+03  0.35968179954E+03  0.00000000000E+00 0. -1.
         21   -1    0    0  501  502  0.00000000000E+00 -0.00000000000E+00 -0.10578013862E+03  0.10578013862E+03  0.00000000000E+00 0. -1.
         23    2    1    2    0    0  0.85604404265E+02  0.81538533386E+02  0.22398870487E+03  0.26916859375E+03  0.91127084303E+02 0.  0.
         23    2    1    2    0    0 -0.29608720831E+02 -0.26237805904E+00  0.77017177576E+01  0.95126803039E+02  0.90072454216E+02 0.  0.
        -11    1    4    4    0    0 -0.16909998271E+02 -0.27150087963E+02  0.40005825893E+02  0.51220517601E+02  0.00000000000E+00 0.  1.
         11    1    4    4    0    0 -0.12698722560E+02  0.26887709904E+02 -0.32304108135E+02  0.43906285438E+02  0.00000000000E+00 0. -1.
        -13    1    3    3    0    0  0.60117368949E+02  0.12084587762E+02  0.16001600621E+03  0.17136294102E+03  0.00000000000E+00 0.  1.
         13    1    3    3    0    0  0.25487035316E+02  0.69453945624E+02  0.63972698662E+02  0.97805652730E+02  0.00000000000E+00 0. -1.
          1    1    1    2  501    0 -0.55995683434E+02 -0.81276155327E+02  0.22211238299E+02  0.10116654138E+03  0.00000000000E+00 0. -1.
<scales pt_clust_5="13000.00000" pt_clust_6="13000.00000" pt_clust_7="13000.00000" pt_clust_8="13000.00000" pt_clust_9="13000.00000"></scales>
<clustering>
<clus scale="   90.072">  5  6 -1 -1</clus>
<clus scale="   91.127">  7  8 -1 -1</clus>
<clus scale="   98.698">  5  9 -1 -1</clus>
<clus scale="  149.268">  1  7  2 -1</clus>
<clus scale="  194.001">  2  5  1 -1</clus>
</clustering>
</event>
<event>
 9    1  0.3312826E-006  0.1998411E+03  0.7546771E-02  0.1183658E+00
          1   -1    0    0  502    0 -0.00000000000E+00  0.00000000000E+00  0.24403967699E+02  0.24403967699E+02  0.00000000000E+00 0. -1.
         21   -1    0    0  501  502  0.00000000000E+00 -0.00000000000E+00 -0.11095339271E+04  0.11095339271E+04  0.00000000000E+00 0. -1.
         23    2    1    2    0    0 -0.51233890271E+01 -0.68530218960E+01 -0.13677501649E+03  0.16475599760E+03  0.91454472744E+02 0.  0.
         23    2    1    2    0    0  0.72895970690E+02  0.23937258810E+02 -0.44093436936E+03  0.45697038578E+03  0.92260503402E+02 0.  0.
        -11    1    4    4    0    0 -0.16218181674E+02  0.12189071457E+02 -0.29311747993E+02  0.35648021687E+02  0.00000000000E+00 0.  1.
         11    1    4    4    0    0  0.89114152364E+02  0.11748187353E+02 -0.41162262137E+03  0.42132236409E+03  0.00000000000E+00 0. -1.
        -11    1    3    3    0    0 -0.42715862530E+02  0.39613721116E+01 -0.33841956577E+02  0.54640785185E+02  0.00000000000E+00 0. -1.
         11    1    3    3    0    0  0.37592473503E+02 -0.10814394008E+02 -0.10293305992E+03  0.11011521242E+03  0.00000000000E+00 0.  1.
          1    1    1    2  501    0 -0.67772581663E+02 -0.17084236914E+02 -0.50742057354E+03  0.51221151141E+03  0.00000000000E+00 0. -1.
<scales pt_clust_5="13000.00000" pt_clust_6="13000.00000" pt_clust_7="13000.00000" pt_clust_8="13000.00000" pt_clust_9="13000.00000"></scales>
<clustering>
<clus scale="   91.454">  7  8 -1 -1</clus>
<clus scale="   91.854">  1  7  2 -1</clus>
<clus scale="   92.261">  5  6 -1 -1</clus>
<clus scale="   71.432">  5  9 -1 -1</clus>
<clus scale="  199.841">  2  5  1 -1</clus>
</clustering>
</event>
<event>
 9    1  0.3312826E-006  0.2838590E+03  0.7546771E-02  0.1119853E+00
         21   -1    0    0  501  502  0.00000000000E+00  0.00000000000E+00  0.18359843589E+03  0.18359843589E+03  0.00000000000E+00 0. -1.
          2   -1    0    0  502    0 -0.00000000000E+00 -0.00000000000E+00 -0.29641060155E+03  0.29641060155E+03  0.00000000000E+00 0.  1.
         23    2    1    2    0    0 -0.15511165877E+02  0.11147630639E+03 -0.13137621245E+03  0.19554360381E+03  0.91159358484E+02 0.  0.
         23    2    1    2    0    0  0.90625886136E+02 -0.13530282555E+03  0.58681306601E+02  0.19603852172E+03  0.92020108759E+02 0.  0.
        -11    1    3    3    0    0 -0.19549879087E+02 -0.88498331944E+01 -0.73247965151E+01  0.22675316180E+02  0.00000000000E+00 0. -1.
         11    1    3    3    0    0  0.40387132099E+01  0.12032613959E+03 -0.12405141594E+03  0.17286828763E+03  0.00000000000E+00 0.  1.
        -13    1    4    4    0    0  0.19548937985E+02  0.12064197362E+02  0.11891665431E+02  0.25867306413E+02  0.00000000000E+00 0.  1.
         13    1    4    4    0    0  0.71076948151E+02 -0.14736702291E+03  0.46789641169E+02  0.17017121531E+03  0.00000000000E+00 0. -1.
          2    1    1    2  501    0 -0.75114720260E+02  0.23826519152E+02 -0.40117259807E+02  0.88426911905E+02  0.00000000000E+00 0.  1.
<scales pt_clust_5="13000.00000" pt_clust_6="13000.00000" pt_clust_7="13000.00000" pt_clust_8="13000.00000" pt_clust_9="13000.00000"></scales>
<clustering>
<clus scale="   91.159">  5  6 -1 -1</clus>
<clus scale="   92.020">  7  8 -1 -1</clus>
<clus scale="   78.803">  7  9 -1 -1</clus>
<clus scale="  144.836">  2  5  1 -1</clus>
<clus scale="  283.859">  1  5  2 -1</clus>
</clustering>
</event>
<event>
 9    1  0.3312826E-006  0.2326441E+03  0.7546771E-02  0.1132052E+00
          2   -1    0    0  502    0 -0.00000000000E+00  0.00000000000E+00  0.22691170742E+03  0.22691170742E+03  0.00000000000E+00 0. -1.
         21   -1    0    0  501  502  0.00000000000E+00 -0.00000000000E+00 -0.20107056495E+03  0.20107056495E+03  0.00000000000E+00 0. -1.
         23    2    1    2    0    0  0.16388854780E+03 -0.51313197873E+02  0.12601365185E+02  0.19496173354E+03  0.91426378941E+02 0.  0.
         23    2    1    2    0    0 -0.60692693305E+02  0.22310119438E+02  0.43640290374E+02  0.12159902323E+03  0.93276487157E+02 0.  0.
        -13    1    4    4    0    0 -0.53927498600E+02 -0.28865810891E+02  0.30409830632E+02  0.68309354724E+02  0.00000000000E+00 0. -1.
         13    1    4    4    0    0 -0.67651947049E+01  0.51175930329E+02  0.13230459741E+02  0.53289668506E+02  0.00000000000E+00 0.  1.
        -13    1    3    3    0    0  0.11476783994E+03 -0.28281993386E+02 -0.34481575194E+02  0.12312801169E+03  0.00000000000E+00 0. -1.
         13    1    3    3    0    0  0.49120707855E+02 -0.23031204487E+02  0.47082940380E+02  0.71833721852E+02  0.00000000000E+00 0.  1.
          2    1    1    2  501    0 -0.10319585449E+03  0.29003078435E+02 -0.30400513094E+02  0.11142151560E+03  0.00000000000E+00 0. -1.
<scales pt_clust_5="13000.00000" pt_clust_6="13000.00000" pt_clust_7="13000.00000" pt_clust_8="13000.00000" pt_clust_9="13000.00000"></scales>
<clustering>
<clus scale="   91.426">  7  8 -1 -1</clus>
<clus scale="   93.276">  5  6 -1 -1</clus>
<clus scale="  107.194">  5  9 -1 -1</clus>
<clus scale="  194.554">  1  7  2 -1</clus>
<clus scale="  232.644">  2  5  1 -1</clus>
</clustering>
</event>
<event>
 9    1  0.3312826E-006  0.1897103E+03  0.7546771E-02  0.1188219E+00
         21   -1    0    0  501  502  0.00000000000E+00  0.00000000000E+00  0.11518501422E+03  0.11518501422E+03  0.00000000000E+00 0.  1.
         -2   -1    0    0    0  501 -0.00000000000E+00 -0.00000000000E+00 -0.18685520666E+03  0.18685520666E+03  0.00000000000E+00 0.  1.
         23    2    1    2    0    0 -0.22336857542E+02  0.21924740253E+02 -0.55209046425E+02  0.11161706773E+03  0.91818851889E+02 0.  0.
         23    2    1    2    0    0 -0.39782265761E+02  0.27008519774E+02 -0.42677749112E+02  0.10711313157E+03  0.85672305182E+02 0.  0.
        -11    1    4    4    0    0 -0.10140900818E+02  0.53974474636E+02 -0.37967041057E+02  0.66765095584E+02  0.00000000000E+00 0.  1.
         11    1    4    4    0    0 -0.29641364943E+02 -0.26965954862E+02 -0.47107080559E+01  0.40348035983E+02  0.00000000000E+00 0. -1.
        -13    1    3    3    0    0  0.29418422995E+02  0.20697647328E+02 -0.47024572554E+02  0.59204278902E+02  0.00000000000E+00 0. -1.
         13    1    3    3    0    0 -0.51755280537E+02  0.12270929250E+01 -0.81844738709E+01  0.52412788831E+02  0.00000000000E+00 0.  1.
         -2    1    1    2    0  502  0.62119123304E+02 -0.48933260027E+02  0.26216603096E+02  0.83310021575E+02  0.00000000000E+00 0.  1.
<scales pt_clust_5="13000.00000" pt_clust_6="13000.00000" pt_clust_7="13000.00000" pt_clust_8="13000.00000" pt_clust_9="13000.00000"></scales>
<clustering>
<clus scale="   85.672">  5  6 -1 -1</clus>
<clus scale="   79.078">  5  9 -1 -1</clus>
<clus scale="   91.819">  7  8 -1 -1</clus>
<clus scale="   97.007">  2  7  1 -1</clus>
<clus scale="  189.710">  1  5  2 -1</clus>
</clustering>
</event>
<event>
 9    1  0.3312826E-006  0.2270229E+03  0.7546771E-02  0.1160947E+00
         21   -1    0    0  501  502  0.00000000000E+00  0.00000000000E+00  0.32517583444E+03  0.32517583444E+03  0.00000000000E+00 0. -1.
          3   -1    0    0  502    0 -0.00000000000E+00 -0.00000000000E+00 -0.11558042459E+03  0.11558042459E+03  0.00000000000E+00 0. -1.
         23    2    1    2    0    0 -0.26201806280E+02 -0.52236549787E+02 -0.31366629337E+02  0.10969416247E+03  0.87371345753E+02 0.  0.
         23    2    1    2    0    0 -0.11809403471E+02  0.60943124806E+02  0.26867334145E+02  0.11344500337E+03  0.91073534435E+02 0.  0.
        -11    1    3    3    0    0 -0.37747276881E+02 -0.31120558276E+02  0.20091181604E+02  0.52886686771E+02  0.00000000000E+00 0.  1.
         11    1    3    3    0    0  0.11545470601E+02 -0.21115991511E+02 -0.51457810941E+02  0.56807475702E+02  0.00000000000E+00 0. -1.
        -13    1    4    4    0    0 -0.42711103077E+02  0.22100638303E+01  0.28374495095E+01  0.42862265781E+02  0.00000000000E+00 0.  1.
         13    1    4    4    0    0  0.30901699606E+02  0.58733060976E+02  0.24029884636E+02  0.70582737590E+02  0.00000000000E+00 0. -1.
          3    1    1    2  501    0  0.38011209751E+02 -0.87065750190E+01  0.21409470505E+03  0.21761709318E+03  0.00000000000E+00 0. -1.
<scales pt_clust_5="13000.00000" pt_clust_6="13000.00000" pt_clust_7="13000.00000" pt_clust_8="13000.00000" pt_clust_9="13000.00000"></scales>
<clustering>
<clus scale="   87.371">  5  6 -1 -1</clus>
<clus scale="   91.074">  7  8 -1 -1</clus>
<clus scale="   38.996">  7  9 -1 -1</clus>
<clus scale="  105.114">  2  5  1 -1</clus>
<clus scale="  227.023">  1  5  2 -1</clus>
</clustering>
</event>
<event>
 9    1  0.3312826E-006  0.1528837E+03  0.7546771E-02  0.1214030E+00
         21   -1    0    0  501  502  0.00000000000E+00  0.00000000000E+00  0.25921391628E+02  0.25921391628E+02  0.00000000000E+00 0. -1.
         -1   -1    0    0    0  501 -0.00000000000E+00 -0.00000000000E+00 -0.70067621430E+03  0.70067621430E+03  0.00000000000E+00 0.  1.
         23    2    1    2    0    0 -0.25489563424E+02  0.47441837069E+02 -0.18096872689E+03  0.20968550004E+03  0.91202429055E+02 0.  0.
         23    2    1    2    0    0  0.65282970780E+02 -0.46992551386E+02 -0.32562978052E+03  0.34411088053E+03  0.76859468984E+02 0.  0.
        -13    1    3    3    0    0 -0.31256235146E+02 -0.25677195205E+01 -0.12338300025E+02  0.33701321437E+02  0.00000000000E+00 0.  1.
         13    1    3    3    0    0  0.57666717228E+01  0.50009556590E+02 -0.16863042686E+03  0.17598417860E+03  0.00000000000E+00 0. -1.
        -13    1    4    4    0    0  0.81894369091E+02 -0.29517836647E+02 -0.24906531441E+03  0.26383995378E+03  0.00000000000E+00 0. -1.
         13    1    4    4    0    0 -0.16611398311E+02 -0.17474714740E+02 -0.76564466115E+02  0.80270926746E+02  0.00000000000E+00 0.  1.
         -1    1    1    2    0  502 -0.39793407356E+02 -0.44928568342E+00 -0.16815631526E+03  0.17280122537E+03  0.00000000000E+00 0.  1.
<scales pt_clust_5="13000.00000" pt_clust_6="13000.00000" pt_clust_7="13000.00000" pt_clust_8="13000.00000" pt_clust_9="13000.00000"></scales>
<clustering>
<clus scale="   76.859">  7  8 -1 -1</clus>
<clus scale="   39.796">  7  9 -1 -1</clus>
<clus scale="   91.202">  5  6 -1 -1</clus>
<clus scale="  105.917">  2  5  1 -1</clus>
<clus scale="  152.884">  1  5  2 -1</clus>
</clustering>
</event>
<event>
 9    1  0.3312826E-006  0.3407081E+03  0.7546771E-02  0.1114348E+00
         -2   -1    0    0    0  501 -0.00000000000E+00  0.00000000000E+00  0.62014500299E+03  0.62014500299E+03  0.00000000000E+00 0.  1.
         21   -1    0    0  501  502  0.00000000000E+00 -0.00000000000E+00 -0.84378329093E+02  0.84378329093E+02  0.00000000000E+00 0.  1.
         23    2    1    2    0    0  0.17388532842E+02  0.21738265481E+02  0.21948617116E+03  0.23964121792E+03  0.92080512238E+02 0.  0.
         23    2    1    2    0    0  0.47641649978E+02 -0.33762600801E+01 -0.34088103502E+02  0.10805687941E+03  0.90736786602E+02 0.  0.
        -13    1    4    4    0    0  0.73022925049E+02 -0.49216831014E+01 -0.37775945640E+02  0.82362568053E+02  0.00000000000E+00 0.  1.
         13    1    4    4    0    0 -0.25381275071E+02  0.15454230213E+01  0.36878421383E+01  0.25694311358E+02  0.00000000000E+00 0. -1.
        -13    1    3    3    0    0 -0.35439947737E+02  0.19384645181E+02  0.12498374234E+03  0.13134949643E+03  0.00000000000E+00 0.  1.
         13    1    3    3    0    0  0.52828480579E+02  0.23536202998E+01  0.94502428824E+02  0.10829172149E+03  0.00000000000E+00 0. -1.
         -2    1    1    2    0  502 -0.65030182820E+02 -0.18362005401E+02  0.35036860624E+03  0.35682523475E+03  0.00000000000E+00 0.  1.
<scales pt_clust_5="13000.00000" pt_clust_6="13000.00000" pt_clust_7="13000.00000" pt_clust_8="13000.00000" pt_clust_9="13000.00000"></scales>
<clustering>
<clus scale="   90.737">  5  6 -1 -1</clus>
<clus scale="   67.573">  5  9 -1 -1</clus>
<clus scale="   92.081">  7  8 -1 -1</clus>
<clus scale="   96.196">  1  7  2 -1</clus>
<clus scale="  340.708">  2  5  1 -1</clus>
</clustering>
</event>
<event>
 9    1  0.3312826E-006  0.1803868E+03  0.7546771E-02  0.1189650E+00
          2   -1    0    0  502    0 -0.00000000000E+00  0.00000000000E+00  0.17856289039E+03  0.17856289039E+03  0.00000000000E+00 0. -1.
         21   -1    0    0  501  502  0.00000000000E+00 -0.00000000000E+00 -0.11751492443E+03  0.11751492443E+03  0.00000000000E+00 0. -1.
         23    2    1    2    0    0 -0.30738731475E+01 -0.63426403940E+02  0.22076986225E+02  0.11152938492E+03  0.88989060944E+02 0.  0.
         23    2    1    2    0    0 -0.25710092269E+01 -0.23265931280E+02  0.27961367349E+02  0.96977674234E+02  0.89860545230E+02 0.  0.
        -11    1    3    3    0    0  0.32436060428E+02 -0.36318475803E+02  0.40372417119E+02  0.63253946634E+02  0.00000000000E+00 0.  1.
         11    1    3    3    0    0 -0.35509933576E+02 -0.27107928138E+02 -0.18295430894E+02  0.48275438290E+02  0.00000000000E+00 0. -1.
        -13    1    4    4    0    0 -0.44219070901E+02 -0.20832462954E+02  0.44329883695E+01  0.49081250289E+02  0.00000000000E+00 0. -1.
         13    1    4    4    0    0  0.41648061674E+02 -0.24334683264E+01  0.23528378979E+02  0.47896423945E+02  0.00000000000E+00 0.  1.
          2    1    1    2  501    0  0.56448823744E+01  0.86692335221E+02  0.11009612382E+02  0.87570755666E+02  0.00000000000E+00 0. -1.
<scales pt_clust_5="13000.00000" pt_clust_6="13000.00000" pt_clust_7="13000.00000" pt_clust_8="13000.00000" pt_clust_9="13000.00000"></scales>
<clustering>
<clus scale="   88.989">  5  6 -1 -1</clus>
<clus scale="   89.861">  7  8 -1 -1</clus>
<clus scale="   86.876">  7  9 -1 -1</clus>
<clus scale="  109.323">  1  5  2 -1</clus>
<clus scale="  180.387">  2  5  1 -1</clus>
</clustering>
</event>
<event>
 9    1  0.3312826E-006  0.1713618E+03  0.7546771E-02  0.1195484E+00
         21   -1    0    0  501  502  0.00000000000E+00  0.00000000000E+00  0.29643191010E+03  0.29643191010E+03  0.00000000000E+00 0.  1.
          3   -1    0    0  502    0 -0.00000000000E+00 -0.00000000000E+00 -0.90702803237E+02  0.90702803237E+02  0.00000000000E+00 0. -1.
         23    2    1    2    0    0 -0.55154043182E+02  0.41968357468E+02 -0.88711134055E+01  0.11251111078E+03  0.88185837234E+02 0.  0.
         23    2    1    2    0    0 -0.13964071324E+02 -0.42540956093E+02  0.11882432302E+03  0.15651067305E+03  0.91496681934E+02 0.  0.
        -11    1    4    4    0    0  0.12980182247E+02 -0.63158724481E+02  0.57339767848E+02  0.86286491330E+02  0.00000000000E+00 0. -1.
         11    1    4    4    0    0 -0.26944253571E+02  0.20617768388E+02  0.61484555174E+02  0.70224181724E+02  0.00000000000E+00 0.  1.
        -11    1    3    3    0    0 -0.25071841046E+02  0.64976484423E+02 -0.21001731464E+02  0.72743477136E+02  0.00000000000E+00 0.  1.
         11    1    3    3    0    0 -0.30082202136E+02 -0.23008126955E+02  0.12130618058E+02  0.39767633646E+02  0.00000000000E+00 0. -1.
          3    1    1    2  501    0  0.69118114506E+02  0.57259862441E+00  0.95775897249E+02  0.11811292950E+03  0.00000000000E+00 0. -1.
<scales pt_clust_5="13000.00000" pt_clust_6="13000.00000" pt_clust_7="13000.00000" pt_clust_8="13000.00000" pt_clust_9="13000.00000"></scales>
<clustering>
<clus scale="   88.186">  7  8 -1 -1</clus>
<clus scale="   91.497">  5  6 -1 -1</clus>
<clus scale="   69.121">  5  9 -1 -1</clus>
<clus scale="  112.161">  2  7  1 -1</clus>
<clus scale="  171.362">  1  5  2 -1</clus>
</clustering>
</event>
<event>
 9    1  0.3312826E-006  0.2339007E+03  0.7546771E-02  0.1129572E+00
         21   -1    0    0  501  502  0.00000000000E+00  0.00000000000E+00  0.77456362619E+02  0.77456362619E+02  0.00000000000E+00 0.  1.
         -4   -1    0    0    0  501 -0.00000000000E+00 -0.00000000000E+00 -0.64333105848E+03  0.64333105848E+03  0.00000000000E+00 0.  1.
         23    2    1    2    0    0 -0.17001136879E+03  0.65092398512E+02 -0.33630381853E+03  0.39304925007E+03  0.90810620313E+02 0.  0.
         23    2    1    2    0    0  0.85804699432E+02 -0.12001767867E+02 -0.16943003749E+03  0.21143555350E+03  0.92151868152E+02 0.  0.
        -11    1    4    4    0    0  0.96319382464E+02 -0.33740352925E+02 -0.13125236785E+03  0.16626189858E+03  0.00000000000E+00 0. -1.
         11    1    4    4    0    0 -0.10514683033E+02  0.21738585058E+02 -0.38177669647E+02  0.45173654925E+02  0.00000000000E+00 0.  1.
        -13    1    3    3    0    0 -0.10338759736E+03  0.42786373996E+02 -0.11329136323E+03  0.15923128483E+03  0.00000000000E+00 0.  1.
         13    1    3    3    0    0 -0.66623771434E+02  0.22306024516E+02 -0.22301245529E+03  0.23381796523E+03  0.00000000000E+00 0. -1.
         -4    1    1    2    0  502  0.84206669360E+02 -0.53090630644E+02 -0.60140839845E+02  0.11630261753E+03  0.00000000000E+00 0.  1.
<scales pt_clust_5="13000.00000" pt_clust_6="13000.00000" pt_clust_7="13000.00000" pt_clust_8="13000.00000" pt_clust_9="13000.00000"></scales>
<clustering>
<clus scale="   90.811">  7  8 -1 -1</clus>
<clus scale="   92.152">  5  6 -1 -1</clus>
<clus scale="   99.546">  5  9 -1 -1</clus>
<clus scale="  203.439">  2  7  1 -1</clus>
<clus scale="  233.901">  1  5  2 -1</clus>
</clustering>
</event>
<event>
 9    1  0.3312826E-006  0.2163770E+03  0.7546771E-02  0.1143805E+00
         21   -1    0    0  501  502  0.00000000000E+00  0.00000000000E+00  0.37554948389E+02  0.37554948389E+02  0.00000000000E+00 0. -1.
          1   -1    0    0  502    0 -0.00000000000E+00 -0.00000000000E+00 -0.11384832317E+04  0.11384832317E+04  0.00000000000E+00 0. -1.
         23    2    1    2    0    0 -0.12663236091E+03  0.82018992369E+02 -0.34866189859E+03  0.39327146572E+03  0.10165852784E+03 0.  0.
         23    2    1    2    0    0  0.10168094870E+03 -0.30298209678E+02 -0.65598656298E+03  0.67066222556E+03  0.90622586325E+02 0.  0.
        -11    1    3    3    0    0 -0.69100822570E+02  0.38832651658E+01 -0.22890510707E+03  0.23913918849E+03  0.00000000000E+00 0.  1.
         11    1    3    3    0    0 -0.57531538344E+02  0.78135727204E+02 -0.11975679152E+03  0.15413227723E+03  0.00000000000E+00 0. -1.
        -13    1    4    4    0    0  0.70641103249E+02 -0.62849607484E+02 -0.44300625886E+03  0.45298430880E+03  0.00000000000E+00 0.  1.
         13    1    4    4    0    0  0.31039845449E+02  0.32551397806E+02 -0.21298030412E+03  0.21767791676E+03  0.00000000000E+00 0. -1.
          1    1    1    2  501    0  0.24951412215E+02 -0.51720782692E+02 -0.96279821700E+02  0.11210448876E+03  0.00000000000E+00 0. -1.
<scales pt_clust_5="13000.00000" pt_clust_6="13000.00000" pt_clust_7="13000.00000" pt_clust_8="13000.00000" pt_clust_9="13000.00000"></scales>
<clustering>
<clus scale="   90.623">  7  8 -1 -1</clus>
<clus scale="   57.425">  7  9 -1 -1</clus>
<clus scale="  101.659">  5  6 -1 -1</clus>
<clus scale="  181.927">  2  5  1 -1</clus>
<clus scale="  216.377">  1  5  2 -1</clus>
</clustering>
</event>
<event>
 9    1  0.3312826E-006  0.1781103E+03  0.7546771E-02  0.1192370E+00
         21   -1    0    0  501  502  0.00000000000E+00  0.00000000000E+00  0.36934980120E+03  0.36934980120E+03  0.00000000000E+00 0.  1.
         -2   -1    0    0    0  501 -0.00000000000E+00 -0.00000000000E+00 -0.55996554899E+02  0.55996554899E+02  0.00000000000E+00 0.  1.
         23    2    1    2    0    0  0.20396886028E+02 -0.34390236043E+02  0.90811816948E+02  0.14030606079E+03  0.99198202115E+02 0.  0.
         23    2    1    2    0    0  0.46880724309E+02  0.31366049973E+02  0.10082554689E+03  0.14593537592E+03  0.89161155425E+02 0.  0.
        -11    1    3    3    0    0  0.11419906614E+02 -0.69607327195E+02  0.57471625724E+02  0.90986713478E+02  0.00000000000E+00 0.  1.
         11    1    3    3    0    0  0.89769794135E+01  0.35217091152E+02  0.33340191224E+02  0.49319347313E+02  0.00000000000E+00 0. -1.
        -11    1    4    4    0    0  0.69427902182E+02  0.33045513684E+01  0.66102496073E+02  0.95920246289E+02  0.00000000000E+00 0.  1.
         11    1    4    4    0    0 -0.22547177873E+02  0.28061498604E+02  0.34723050821E+02  0.50015129634E+02  0.00000000000E+00 0. -1.
         -2    1    1    2    0  502 -0.67277610337E+02  0.30241860703E+01  0.12171588246E+03  0.13910491939E+03  0.00000000000E+00 0.  1.
<scales pt_clust_5="13000.00000" pt_clust_6="13000.00000" pt_clust_7="13000.00000" pt_clust_8="13000.00000" pt_clust_9="13000.00000"></scales>
<clustering>
<clus scale="   89.161">  7  8 -1 -1</clus>
<clus scale="   67.346">  7  9 -1 -1</clus>
<clus scale="   99.198">  5  6 -1 -1</clus>
<clus scale="  106.953">  2  5  1 -1</clus>
<clus scale="  178.110">  1  5  2 -1</clus>
</clustering>
</event>
<event>
 9    1  0.3312826E-006  0.3147395E+03  0.7546771E-02  0.1108154E+00
         21   -1    0    0  501  502  0.00000000000E+00  0.00000000000E+00  0.14948491319E+04  0.14948491319E+04  0.00000000000E+00 0.  1.
         -1   -1    0    0    0  501 -0.00000000000E+00 -0.00000000000E+00 -0.41633996210E+02  0.41633996210E+02  0.00000000000E+00 0.  1.
         23    2    1    2    0    0 -0.10537372541E+03  0.15137459584E+02  0.78458398081E+03  0.79747802411E+03  0.95217704724E+02 0.  0.
         23    2    1    2    0    0 -0.18304417974E+02 -0.69659515529E+02  0.95960992777E+02  0.15060043688E+03  0.91019116853E+02 0.  0.
        -13    1    4    4    0    0 -0.41087479087E+02 -0.61779184349E+02  0.10163403294E+03  0.12583451517E+03  0.00000000000E+00 0. -1.
         13    1    4    4    0    0  0.22783061113E+02 -0.78803311806E+01 -0.56730401679E+01  0.24765921706E+02  0.00000000000E+00 0.  1.
        -13    1    3    3    0    0 -0.97252466249E+01 -0.33181191984E+02  0.15213642177E+03  0.15601622593E+03  0.00000000000E+00 0. -1.
         13    1    3    3    0    0 -0.95648478781E+02  0.48318651568E+02  0.63244755904E+03  0.64146179818E+03  0.00000000000E+00 0.  1.
         -1    1    1    2    0  502  0.12367814338E+03  0.54522055945E+02  0.57267016209E+03  0.58840466712E+03  0.00000000000E+00 0.  1.
<scales pt_clust_5="13000.00000" pt_clust_6="13000.00000" pt_clust_7="13000.00000" pt_clust_8="13000.00000" pt_clust_9="13000.00000"></scales>
<clustering>
<clus scale="   91.019">  5  6 -1 -1</clus>
<clus scale="   95.218">  7  8 -1 -1</clus>
<clus scale="  135.163">  5  9 -1 -1</clus>
<clus scale="  142.826">  2  7  1 -1</clus>
<clus scale="  314.739">  1  5  2 -1</clus>
</clustering>
</event>
<event>
 9    1  0.3312826E-006  0.2406216E+03  0.7546771E-02  0.1156272E+00
         21   -1    0    0  501  502  0.00000000000E+00  0.00000000000E+00  0.29507934002E+03  0.29507934002E+03  0.00000000000E+00 0. -1.
          3   -1    0    0  502    0 -0.00000000000E+00 -0.00000000000E+00 -0.97517911924E+02  0.97517911924E+02  0.00000000000E+00 0. -1.
         23    2    1    2    0    0  0.16107004216E+02  0.33512409524E+02  0.63341848611E+02  0.11707294710E+03  0.91166704345E+02 0.  0.
         23    2    1    2    0    0  0.58791127868E+01  0.49469611183E+02 -0.14012961203E+02  0.10422838773E+03  0.90473130422E+02 0.  0.
        -11    1    3    3    0    0  0.39035749915E+02  0.16709228989E+02 -0.52872496451E+01  0.42789521073E+02  0.00000000000E+00 0.  1.
         11    1    3    3    0    0 -0.22928745699E+02  0.16803180535E+02  0.68629098257E+02  0.74283426031E+02  0.00000000000E+00 0. -1.
        -13    1    4    4    0    0  0.25419841803E+02 -0.25210679704E+01 -0.36295770314E+02  0.44383635314E+02  0.00000000000E+00 0.  1.
         13    1    4    4    0    0 -0.19540729016E+02  0.51990679153E+02  0.22282809112E+02  0.59844752411E+02  0.00000000000E+00 0. -1.
          3    1    1    2  501    0 -0.21986117002E+02 -0.82982020707E+02  0.14823254069E+03  0.17129591712E+03  0.00000000000E+00 0. -1.
<scales pt_clust_5="13000.00000" pt_clust_6="13000.00000" pt_clust_7="13000.00000" pt_clust_8="13000.00000" pt_clust_9="13000.00000"></scales>
<clustering>
<clus scale="   90.473">  7  8 -1 -1</clus>
<clus scale="   85.845">  7  9 -1 -1</clus>
<clus scale="   91.167">  5  6 -1 -1</clus>
<clus scale="   98.458">  2  5  1 -1</clus>
<clus scale="  240.622">  1  5  2 -1</clus>
</clustering>
</event>
<event>
 9    1  0.3312826E-006  0.1666702E+03  0.7546771E-02  0.1203241E+00
          3   -1    0    0  502    0 -0.00000000000E+00  0.00000000000E+00  0.65406147446E+02  0.65406147446E+02  0.00000000000E+00 0. -1.
         21   -1    0    0  501  502  0.00000000000E+00 -0.00000000000E+00 -0.33188409544E+03  0.33188409544E+03  0.00000000000E+00 0. -1.
         23    2    1    2    0    0  0.27364679177E+02  0.29438626526E+02 -0.18508862141E+03  0.21180931321E+03  0.94815236045E+02 0.  0.
         23    2    1    2    0    0 -0.30023411358E+02  0.31814593057E+02 -0.71041077707E+02  0.12330286264E+03  0.90792002138E+02 0.  0.
        -13    1    3    3    0    0  0.30620214477E+02 -0.99840295293E+01 -0.12178981291E+02  0.34432629373E+02  0.00000000000E+00 0.  1.
         13    1    3    3    0    0 -0.32555353005E+01  0.39422656055E+02 -0.17290964012E+03  0.17737668383E+03  0.00000000000E+00 0. -1.
        -13    1    4    4    0    0 -0.38067276112E+02  0.14574150543E+01  0.74013020207E+01  0.38807484340E+02  0.00000000000E+00 0.  1.
         13    1    4    4    0    0  0.80438647543E+01  0.30357178003E+02 -0.78442379727E+02  0.84495378298E+02  0.00000000000E+00 0. -1.
          3    1    1    2  501    0  0.26587321810E+01 -0.61253219583E+02 -0.10348248874E+02  0.62178067040E+02  0.00000000000E+00 0. -1.
<scales pt_clust_5="13000.00000" pt_clust_6="13000.00000" pt_clust_7="13000.00000" pt_clust_8="13000.00000" pt_clust_9="13000.00000"></scales>
<clustering>
<clus scale="   90.792">  7  8 -1 -1</clus>
<clus scale="   61.311">  7  9 -1 -1</clus>
<clus scale="   94.815">  5  6 -1 -1</clus>
<clus scale="  102.983">  1  5  2 -1</clus>
<clus scale="  166.670">  2  5  1 -1</clus>
</clustering>
</event>
<event>
 9    1  0.3312826E-006  0.2430429E+03  0.7546771E-02  0.1154593E+00
         21   -1    0    0  501  502  0.00000000000E+00  0.00000000000E+00  0.24007790550E+03  0.24007790550E+03  0.00000000000E+00 0.  1.
         -2   -1    0    0    0  501 -0.00000000000E+00 -0.00000000000E+00 -0.17676356566E+03  0.17676356566E+03  0.00000000000E+00 0. -1.
         23    2    1    2    0    0 -0.41214292549E+00  0.35831261214E+02 -0.86144187638E+02  0.13152115934E+03  0.92698139938E+02 0.  0.
         23    2    1    2    0    0 -0.57206610753E+02  0.22917285480E+02  0.16766738405E+03  0.20104175600E+03  0.92236856499E+02 0.  0.
        -13    1    4    4    0    0  0.12363191657E+02  0.16657709349E+02  0.15101538533E+01  0.20799239250E+02  0.00000000000E+00 0. -1.
         13    1    4    4    0    0 -0.69569802410E+02  0.62595761315E+01  0.16615723019E+03  0.18024251675E+03  0.00000000000E+00 0.  1.
        -13    1    3    3    0    0  0.13517341345E+02 -0.25988102097E+02 -0.69720160049E+01  0.30111608638E+02  0.00000000000E+00 0. -1.
         13    1    3    3    0    0 -0.13929484270E+02  0.61819363310E+02 -0.79172171633E+02  0.10140955070E+03  0.00000000000E+00 0.  1.
         -2    1    1    2    0  502  0.57618753678E+02 -0.58748546694E+02 -0.18208856567E+02  0.84278555823E+02  0.00000000000E+00 0. -1.
<scales pt_clust_5="13000.00000" pt_clust_6="13000.00000" pt_clust_7="13000.00000" pt_clust_8="13000.00000" pt_clust_9="13000.00000"></scales>
<clustering>
<clus scale="   92.237">  5  6 -1 -1</clus>
<clus scale="   82.288">  5  9 -1 -1</clus>
<clus scale="   92.698">  7  8 -1 -1</clus>
<clus scale="   99.383">  2  7  1 -1</clus>
<clus scale="  243.043">  1  5  2 -1</clus>
</clustering>
</event>
<event>
 9    1  0.3312826E-006  0.2004242E+03  0.7546771E-02  0.1164453E+00
          2   -1    0    0  502    0 -0.00000000000E+00  0.00000000000E+00  0.48277081744E+03  0.48277081744E+03  0.00000000000E+00 0. -1.
         21   -1    0    0  501  502  0.00000000000E+00 -0.00000000000E+00 -0.10157827568E+03  0.10157827568E+03  0.00000000000E+00 0. -1.
         23    2    1    2    0    0  0.56049023964E+02 -0.90119259611E+02  0.35537596018E+03  0.38226900656E+03  0.92598845884E+02 0.  0.
         23    2    1    2    0    0 -0.60694686730E+02  0.54421826221E+02  0.76644527605E+02  0.13979550557E+03  0.83802264881E+02 0.  0.
        -11    1    4    4    0    0 -0.37840459343E+02  0.76362900523E+02  0.56497375791E+02  0.10225041032E+03  0.00000000000E+00 0.  1.
         11    1    4    4    0    0 -0.22854227387E+02 -0.21941074302E+02  0.20147151813E+02  0.37545095248E+02  0.00000000000E+00 0. -1.
        -13    1    3    3    0    0 -0.21456145333E+02 -0.66267123081E+01  0.29637912899E+02  0.37184477536E+02  0.00000000000E+00 0.  1.
         13    1    3    3    0    0  0.77505169297E+02 -0.83492547303E+02  0.32573804728E+03  0.34508452902E+03  0.00000000000E+00 0. -1.
          2    1    1    2  501    0  0.46456627660E+01  0.35697433389E+02 -0.50827946025E+02  0.62284580999E+02  0.00000000000E+00 0. -1.
<scales pt_clust_5="13000.00000" pt_clust_6="13000.00000" pt_clust_7="13000.00000" pt_clust_8="13000.00000" pt_clust_9="13000.00000"></scales>
<clustering>
<clus scale="   83.802">  5  6 -1 -1</clus>
<clus scale="   35.998">  5  9 -1 -1</clus>
<clus scale="   92.599">  7  8 -1 -1</clus>
<clus scale="  140.846">  1  7  2 -1</clus>
<clus scale="  200.424">  2  5  1 -1</clus>
</clustering>
</event>
<event>
 9    1  0.3312826E-006  0.1827356E+03  0.7546771E-02  0.1189074E+00
          1   -1    0    0  502    0 -0.00000000000E+00  0.00000000000E+00  0.24998241598E+03  0.24998241598E+03  0.00000000000E+00 0. -1.
         21   -1    0    0  501  502  0.00000000000E+00 -0.00000000000E+00 -0.24857629043E+03  0.24857629043E+03  0.00000000000E+00 0. -1.
         23    2    1    2    0    0 -0.36676913512E+01 -0.67655878088E+02  0.20129158803E+03  0.22773309600E+03  0.82178402291E+02 0.  0.
         23    2    1    2    0    0  0.84880618661E+00 -0.11091498737E+01 -0.17279121487E+03  0.19686160945E+03  0.94317223540E+02 0.  0.
        -11    1    4    4    0    0  0.18820079280E+02  0.36742915308E+02 -0.13230508485E+03  0.13859607746E+03  0.00000000000E+00 0.  1.
         11    1    4    4    0    0 -0.17971273094E+02 -0.37852065182E+02 -0.40486130017E+02  0.58265531997E+02  0.00000000000E+00 0. -1.
        -11    1    3    3    0    0 -0.35021700120E+02 -0.37039062224E+01  0.62841785358E+02  0.72036993188E+02  0.00000000000E+00 0.  1.
         11    1    3    3    0    0  0.31354008769E+02 -0.63951971865E+02  0.13844980267E+03  0.15569610281E+03  0.00000000000E+00 0. -1.
          1    1    1    2  501    0  0.28188851646E+01  0.68765027961E+02 -0.27094247609E+02  0.73964000957E+02  0.00000000000E+00 0. -1.
<scales pt_clust_5="13000.00000" pt_clust_6="13000.00000" pt_clust_7="13000.00000" pt_clust_8="13000.00000" pt_clust_9="13000.00000"></scales>
<clustering>
<clus scale="   82.178">  7  8 -1 -1</clus>
<clus scale="   94.317">  5  6 -1 -1</clus>
<clus scale="   68.823">  5  9 -1 -1</clus>
<clus scale="  106.508">  1  7  2 -1</clus>
<clus scale="  182.736">  2  5  1 -1</clus>
</clustering>
</event>
<event>
 9    1  0.3312826E-006  0.2601948E+03  0.7546771E-02  0.1146127E+00
         21   -1    0    0  501  502  0.00000000000E+00  0.00000000000E+00  0.10289623157E+03  0.10289623157E+03  0.00000000000E+00 0.  1.
         -1   -1    0    0    0  501 -0.00000000000E+00 -0.00000000000E+00 -0.32267755560E+03  0.32267755560E+03  0.00000000000E+00 0.  1.
         23    2    1    2    0    0 -0.31813708007E+02  0.21772740878E+02 -0.94280163861E+02  0.13669343605E+03  0.91160199098E+02 0.  0.
         23    2    1    2    0    0 -0.64916978133E+02 -0.70714458713E+02 -0.12250585748E+03  0.18043179546E+03  0.91286357007E+02 0.  0.
        -11    1    3    3    0    0 -0.51629428156E+02  0.27938781790E+02 -0.99288628595E+02  0.11534472310E+03  0.00000000000E+00 0.  1.
         11    1    3    3    0    0  0.19815720149E+02 -0.61660409117E+01  0.50084647338E+01  0.21348712948E+02  0.00000000000E+00 0. -1.
        -13    1    4    4    0    0 -0.28627237484E+02  0.95467522977E+01 -0.79084775999E+00  0.30187491542E+02  0.00000000000E+00 0. -1.
         13    1    4    4    0    0 -0.36289740649E+02 -0.80261211011E+02 -0.12171500972E+03  0.15024430392E+03  0.00000000000E+00 0.  1.
         -1    1    1    2    0  502  0.96730686139E+02  0.48941717835E+02 -0.29953026891E+01  0.10844855566E+03  0.00000000000E+00 0.  1.
<scales pt_clust_5="13000.00000" pt_clust_6="13000.00000" pt_clust_7="13000.00000" pt_clust_8="13000.00000" pt_clust_9="13000.00000"></scales>
<clustering>
<clus scale="   91.160">  5  6 -1 -1</clus>
<clus scale="   91.286">  7  8 -1 -1</clus>
<clus scale="   98.976">  2  5  1 -1</clus>
<clus scale="  103.815">  7  9 -1 -1</clus>
<clus scale="  260.195">  1  5  2 -1</clus>
</clustering>
</event>
<event>
 9    1  0.3312826E-006  0.2891208E+03  0.7546771E-02  0.1134045E+00
          1   -1    0    0  502    0 -0.00000000000E+00  0.00000000000E+00  0.16260126773E+03  0.16260126773E+03  0.00000000000E+00 0. -1.
         21   -1    0    0  501  502  0.00000000000E+00 -0.00000000000E+00 -0.29047015072E+03  0.29047015072E+03  0.00000000000E+00 0. -1.
         23    2    1    2    0    0  0.24753254364E+02  0.24575081031E+02 -0.13246329928E+03  0.16391409148E+03  0.90025804733E+02 0.  0.
         23    2    1    2    0    0 -0.15120810149E+02  0.39294529601E+02  0.12044487987E+03  0.15651705762E+03  0.90652751100E+02 0.  0.
        -11    1    4    4    0    0 -0.36379644518E+02  0.60015079486E+02  0.81625997783E+02  0.10764799959E+03  0.00000000000E+00 0. -1.
         11    1    4    4    0    0  0.21258834369E+02 -0.20720549885E+02  0.38818882085E+02  0.48869058029E+02  0.00000000000E+00 0.  1.
        -13    1    3    3    0    0  0.20194380463E+02  0.52681148194E+02 -0.45724006962E+02  0.72620941814E+02  0.00000000000E+00 0. -1.
         13    1    3    3    0    0  0.45588739011E+01 -0.28106067163E+02 -0.86739292322E+02  0.91293149661E+02  0.00000000000E+00 0.  1.
          1    1    1    2  501    0 -0.96324442148E+01 -0.63869610632E+02 -0.11585046358E+03  0.13264026936E+03  0.00000000000E+00 0. -1.
<scales pt_clust_5="13000.00000" pt_clust_6="13000.00000" pt_clust_7="13000.00000" pt_clust_8="13000.00000" pt_clust_9="13000.00000"></scales>
<clustering>
<clus scale="   90.026">  7  8 -1 -1</clus>
<clus scale="   90.653">  5  6 -1 -1</clus>
<clus scale="   64.592">  5  9 -1 -1</clus>
<clus scale="   96.547">  1  7  2 -1</clus>
<clus scale="  289.121">  2  5  1 -1</clus>
</clustering>
</event>
<event>
 9    1  0.3312826E-006  0.4730389E+03  0.7546771E-02  0.1066488E+00
         21   -1    0    0  501  502  0.00000000000E+00  0.00000000000E+00  0.28294496812E+03  0.28294496812E+03  0.00000000000E+00 0. -1.
         -1   -1    0    0    0  501 -0.00000000000E+00 -0.00000000000E+00 -0.44136501767E+03  0.44136501767E+03  0.00000000000E+00 0. -1.
         23    2    1    2    0    0  0.86188367511E+02  0.18164288157E+02 -0.21297589385E+03  0.24813554165E+03  0.91946395296E+02 0.  0.
         23    2    1    2    0    0  0.91606953963E+02 -0.13985351892E+03 -0.96404427113E+02  0.21309945717E+03  0.90369930344E+02 0.  0.
        -13    1    4    4    0    0  0.53610767497E+02 -0.24228693548E+02 -0.16485767490E+01  0.58854581707E+02  0.00000000000E+00 0.  1.
         13    1    4    4    0    0  0.37996186467E+02 -0.11562482537E+03 -0.94755850364E+02  0.15424487546E+03  0.00000000000E+00 0. -1.
        -13    1    3    3    0    0  0.90760597165E+02 -0.16359658489E+02 -0.16172294569E+03  0.18617044767E+03  0.00000000000E+00 0. -1.
         13    1    3    3    0    0 -0.45722296544E+01  0.34523946646E+02 -0.51252948160E+02  0.61965093973E+02  0.00000000000E+00 0.  1.
         -1    1    1    2    0  502 -0.17779532147E+03  0.12168923076E+03  0.15096027142E+03  0.26307498697E+03  0.00000000000E+00 0. -1.
<scales pt_clust_5="13000.00000" pt_clust_6="13000.00000" pt_clust_7="13000.00000" pt_clust_8="13000.00000" pt_clust_9="13000.00000"></scales>
<clustering>
<clus scale="   90.370">  5  6 -1 -1</clus>
<clus scale="   91.946">  7  8 -1 -1</clus>
<clus scale="  127.328">  2  7  1 -1</clus>
<clus scale="  199.985">  5  9 -1 -1</clus>
<clus scale="  473.039">  1  5  2 -1</clus>
</clustering>
</event>
<event>
 9    1  0.3312826E-006  0.1983089E+03  0.7546771E-02  0.1183517E+00
         21   -1    0    0  501  502  0.00000000000E+00  0.00000000000E+00  0.27797453571E+03  0.27797453571E+03  0.00000000000E+00 0. -1.
          2   -1    0    0  502    0 -0.00000000000E+00 -0.00000000000E+00 -0.77026502800E+02  0.77026502800E+02  0.00000000000E+00 0. -1.
         23    2    1    2    0    0  0.59743684629E+01 -0.19300385269E+02  0.67770349134E+02  0.11612299067E+03  0.92106084440E+02 0.  0.
         23    2    1    2    0    0 -0.75009822095E+02  0.11541117897E+02  0.12218634717E+03  0.16854377761E+03  0.87851185099E+02 0.  0.
        -11    1    4    4    0    0  0.18740035781E+02  0.96155775987E+01  0.32900287791E+02  0.39065038210E+02  0.00000000000E+00 0.  1.
         11    1    4    4    0    0 -0.93749857876E+02  0.19255402982E+01  0.89286059376E+02  0.12947873940E+03  0.00000000000E+00 0. -1.
        -13    1    3    3    0    0 -0.20467981146E+02 -0.48672928931E+02  0.26859917985E+02  0.59240589608E+02  0.00000000000E+00 0. -1.
         13    1    3    3    0    0  0.26442349609E+02  0.29372543662E+02  0.40910431149E+02  0.56882401064E+02  0.00000000000E+00 0.  1.
          2    1    1    2  501    0  0.69035453632E+02  0.77592673723E+01  0.10991336609E+02  0.70334270230E+02  0.00000000000E+00 0. -1.
<scales pt_clust_5="13000.00000" pt_clust_6="13000.00000" pt_clust_7="13000.00000" pt_clust_8="13000.00000" pt_clust_9="13000.00000"></scales>
<clustering>
<clus scale="   87.851">  5  6 -1 -1</clus>
<clus scale="   69.470">  5  9 -1 -1</clus>
<clus scale="   92.106">  7  8 -1 -1</clus>
<clus scale="   94.296">  2  7  1 -1</clus>
<clus scale="  198.309">  1  5  2 -1</clus>
</clustering>
</event>
<event>
 9    1  0.3312826E-006  0.1324498E+03  0.7546771E-02  0.1238253E+00
          1   -1    0    0  502    0 -0.00000000000E+00  0.00000000000E+00  0.16088607191E+03  0.16088607191E+03  0.00000000000E+00 0. -1.
         21   -1    0    0  501  502  0.00000000000E+00 -0.00000000000E+00 -0.92184865453E+02  0.92184865453E+02  0.00000000000E+00 0.  1.
         23    2    1    2    0    0 -0.21798171111E+02  0.13806077133E+02  0.69676609152E+02  0.12061749604E+03  0.95015695849E+02 0.  0.
         23    2    1    2    0    0 -0.58950958634E+01 -0.39679739487E+02  0.49560107433E+01  0.94092717863E+02  0.84968486107E+02 0.  0.
        -11    1    3    3    0    0  0.32410038676E+02 -0.12147842276E+02  0.10250848250E+02  0.36097930256E+02  0.00000000000E+00 0.  1.
         11    1    3    3    0    0 -0.54208209787E+02  0.25953919409E+02  0.59425760903E+02  0.84519565781E+02  0.00000000000E+00 0. -1.
        -13    1    4    4    0    0 -0.67402727735E+01  0.22285457739E+02  0.19578213731E+02  0.30420048596E+02  0.00000000000E+00 0. -1.
         13    1    4    4    0    0  0.84517691014E+00 -0.61965197226E+02 -0.14622202988E+02  0.63672669266E+02  0.00000000000E+00 0.  1.
          1    1    1    2  501    0  0.27693266975E+02  0.25873662354E+02 -0.59314134374E+01  0.38360723464E+02  0.00000000000E+00 0. -1.
<scales pt_clust_5="13000.00000" pt_clust_6="13000.00000" pt_clust_7="13000.00000" pt_clust_8="13000.00000" pt_clust_9="13000.00000"></scales>
<clustering>
<clus scale="   84.968">  7  8 -1 -1</clus>
<clus scale="   37.899">  7  9 -1 -1</clus>
<clus scale="   95.016">  5  6 -1 -1</clus>
<clus scale="   98.457">  1  5  2 -1</clus>
<clus scale="  132.450">  2  5  1 -1</clus>
</clustering>
</event>
<event>
 9    1  0.3312826E-006  0.2382821E+03  0.7546771E-02  0.1149866E+00
         21   -1    0    0  501  502  0.00000000000E+00  0.00000000000E+00  0.20261502046E+03  0.20261502046E+03  0.00000000000E+00 0. -1.
          2   -1    0    0  502    0 -0.00000000000E+00 -0.00000000000E+00 -0.27251533258E+03  0.27251533258E+03  0.00000000000E+00 0. -1.
         23    2    1    2    0    0  0.10523136967E+02  0.83871663393E+02 -0.17797245162E+03  0.21348564102E+03  0.82199349466E+02 0.  0.
         23    2    1    2    0    0 -0.45949067449E+02  0.16096610448E+02 -0.17928740050E+02  0.96948403711E+02  0.81897103703E+02 0.  0.
        -11    1    4    4    0    0 -0.43418650629E+02 -0.26831186730E+02 -0.17458869649E+02  0.53943525406E+02  0.00000000000E+00 0.  1.
         11    1    4    4    0    0 -0.25304168201E+01  0.42927797178E+02 -0.46987040117E+00  0.43004878305E+02  0.00000000000E+00 0. -1.
        -11    1    3    3    0    0 -0.10307365189E+02  0.78951505564E+02 -0.17449379441E+03  0.19180111130E+03  0.00000000000E+00 0. -1.
         11    1    3    3    0    0  0.20830502155E+02  0.49201578293E+01 -0.34786572116E+01  0.21684529718E+02  0.00000000000E+00 0.  1.
          2    1    1    2  501    0  0.35425930483E+02 -0.99968273840E+02  0.12600087955E+03  0.16469630832E+03  0.00000000000E+00 0. -1.
<scales pt_clust_5="13000.00000" pt_clust_6="13000.00000" pt_clust_7="13000.00000" pt_clust_8="13000.00000" pt_clust_9="13000.00000"></scales>
<clustering>
<clus scale="   81.897">  5  6 -1 -1</clus>
<clus scale="   82.199">  7  8 -1 -1</clus>
<clus scale="  106.060">  5  9 -1 -1</clus>
<clus scale="  117.906">  2  7  1 -1</clus>
<clus scale="  238.282">  1  5  2 -1</clus>
</clustering>
</event>
<event>
 9    1  0.3312826E-006  0.4398461E+03  0.7546771E-02  0.1088049E+00
         21   -1    0    0  501  502  0.00000000000E+00  0.00000000000E+00  0.20404030819E+03  0.20404030819E+03  0.00000000000E+00 0.  1.
         -1   -1    0    0    0  501 -0.00000000000E+00 -0.00000000000E+00 -0.34371479050E+03  0.34371479050E+03  0.00000000000E+00 0.  1.
         23    2    1    2    0    0 -0.38148970498E+01 -0.69995032905E+00 -0.83840306615E+01  0.88732464010E+02  0.88250296482E+02 0.  0.
         23    2    1    2    0    0 -0.81278348986E+02  0.22228638181E+02 -0.26822695480E+03  0.29636978098E+03  0.93750015602E+02 0.  0.
        -11    1    4    4    0    0  0.21267371681E+02  0.44926618155E+01 -0.53725438113E+02  0.57956085175E+02  0.00000000000E+00 0. -1.
         11    1    4    4    0    0 -0.10254572067E+03  0.17735976365E+02 -0.21450151669E+03  0.23841369580E+03  0.00000000000E+00 0.  1.
        -13    1    3    3    0    0 -0.32782649383E+02  0.30007714405E+02 -0.12899020833E+02  0.46276881516E+02  0.00000000000E+00 0.  1.
         13    1    3    3    0    0  0.28967752333E+02 -0.30707664735E+02  0.45149901716E+01  0.42455582494E+02  0.00000000000E+00 0. -1.
         -1    1    1    2    0  502  0.85093246035E+02 -0.21528687852E+02  0.13693650315E+03  0.16265285370E+03  0.00000000000E+00 0.  1.
<scales pt_clust_5="13000.00000" pt_clust_6="13000.00000" pt_clust_7="13000.00000" pt_clust_8="13000.00000" pt_clust_9="13000.00000"></scales>
<clustering>
<clus scale="   88.250">  7  8 -1 -1</clus>
<clus scale="   88.336">  2  7  1 -1</clus>
<clus scale="   93.750">  5  6 -1 -1</clus>
<clus scale="   87.621">  5  9 -1 -1</clus>
<clus scale="  439.846">  1  5  2 -1</clus>
</clustering>
</event>
<event>
 9    1  0.3312826E-006  0.2346744E+03  0.7546771E-02  0.1144300E+00
         21   -1    0    0  501  502  0.00000000000E+00  0.00000000000E+00  0.47733478734E+02  0.47733478734E+02  0.00000000000E+00 0. -1.
          2   -1    0    0  502    0 -0.00000000000E+00 -0.00000000000E+00 -0.76817552539E+03  0.76817552539E+03  0.00000000000E+00 0. -1.
         23    2    1    2    0    0  0.60998673242E+02  0.28329148246E+02 -0.35099782383E+03  0.37823206800E+03  0.12384121345E+03 0.  0.
         23    2    1    2    0    0 -0.10581875936E+03  0.46644928084E+02 -0.23875036851E+03  0.28048013019E+03  0.91071432505E+02 0.  0.
        -11    1    4    4    0    0 -0.11270981446E+03  0.26178192527E+02 -0.15170724972E+03  0.19079803369E+03  0.00000000000E+00 0.  1.
         11    1    4    4    0    0  0.68910551017E+01  0.20466735557E+02 -0.87043118788E+02  0.89682096502E+02  0.00000000000E+00 0. -1.
        -11    1    3    3    0    0 -0.96581929895E+01  0.61935146354E+02 -0.15649600724E+03  0.16858304579E+03  0.00000000000E+00 0. -1.
         11    1    3    3    0    0  0.70656866231E+02 -0.33605998108E+02 -0.19450181660E+03  0.20964902221E+03  0.00000000000E+00 0.  1.
          2    1    1    2  501    0  0.44820086121E+02 -0.74974076329E+02 -0.13069385431E+03  0.15719680594E+03  0.00000000000E+00 0. -1.
<scales pt_clust_5="13000.00000" pt_clust_6="13000.00000" pt_clust_7="13000.00000" pt_clust_8="13000.00000" pt_clust_9="13000.00000"></scales>
<clustering>
<clus scale="   91.071">  5  6 -1 -1</clus>
<clus scale="   87.350">  5  9 -1 -1</clus>
<clus scale="  123.841">  7  8 -1 -1</clus>
<clus scale="  140.926">  2  7  1 -1</clus>
<clus scale="  234.674">  1  5  2 -1</clus>
</clustering>
</event>
<event>
 9    1  0.3312826E-006  0.3275935E+03  0.7546771E-02  0.1095343E+00
         21   -1    0    0  501  502  0.00000000000E+00  0.00000000000E+00  0.85165887258E+02  0.85165887258E+02  0.00000000000E+00 0. -1.
          2   -1    0    0  502    0 -0.00000000000E+00 -0.00000000000E+00 -0.87087412588E+03  0.87087412588E+03  0.00000000000E+00 0. -1.
         23    2    1    2    0    0 -0.12743240253E+03  0.82011124434E+02 -0.46607013746E+03  0.49834356763E+03  0.90333253170E+02 0.  0.
         23    2    1    2    0    0  0.13572602281E+03  0.24433906541E+02 -0.30726331156E+03  0.35021405543E+03  0.96023814439E+02 0.  0.
        -11    1    4    4    0    0  0.15731976386E+01  0.31702288203E+02 -0.39828130495E+02  0.50929264739E+02  0.00000000000E+00 0.  1.
         11    1    4    4    0    0  0.13415282517E+03 -0.72683816616E+01 -0.26743518106E+03  0.29928479070E+03  0.00000000000E+00 0. -1.
        -13    1    3    3    0    0 -0.93912974958E+02  0.61048044865E+02 -0.43157972298E+03  0.44587842282E+03  0.00000000000E+00 0. -1.
         13    1    3    3    0    0 -0.33519427570E+02  0.20963079570E+02 -0.34490414473E+02  0.52465144812E+02  0.00000000000E+00 0.  1.
          2    1    1    2  501    0 -0.82936202782E+01 -0.10644503098E+03 -0.12374789606E+02  0.10748239007E+03  0.00000000000E+00 0. -1.
<scales pt_clust_5="13000.00000" pt_clust_6="13000.00000" pt_clust_7="13000.00000" pt_clust_8="13000.00000" pt_clust_9="13000.00000"></scales>
<clustering>
<clus scale="   90.333">  7  8 -1 -1</clus>
<clus scale="   96.024">  5  6 -1 -1</clus>
<clus scale="  106.768">  5  9 -1 -1</clus>
<clus scale="  176.423">  2  7  1 -1</clus>
<clus scale="  327.594">  1  5  2 -1</clus>
</clustering>
</event>
<event>
 9    1  0.3312826E-006  0.1561847E+03  0.7546771E-02  0.1214001E+00
         -1   -1    0    0    0  501 -0.00000000000E+00  0.00000000000E+00  0.14865112647E+03  0.14865112647E+03  0.00000000000E+00 0.  1.
         21   -1    0    0  501  502  0.00000000000E+00 -0.00000000000E+00 -0.15625771331E+03  0.15625771331E+03  0.00000000000E+00 0. -1.
         23    2    1    2    0    0  0.18449924976E+02 -0.35813903875E+02  0.78407754910E+02  0.12660533481E+03  0.90874085034E+02 0.  0.
         23    2    1    2    0    0  0.23204639967E+02  0.38617137293E+02 -0.86706268252E+02  0.13654898831E+03  0.95382968327E+02 0.  0.
        -13    1    4    4    0    0  0.34959941648E+02 -0.21643888941E+02 -0.51048898298E+02  0.65548802171E+02  0.00000000000E+00 0.  1.
         13    1    4    4    0    0 -0.11755301681E+02  0.60261026235E+02 -0.35657369954E+02  0.71000186144E+02  0.00000000000E+00 0. -1.
        -13    1    3    3    0    0 -0.32229474622E+02  0.46362053395E+01  0.14779730154E+02  0.35758549436E+02  0.00000000000E+00 0. -1.
         13    1    3    3    0    0  0.50679399598E+02 -0.40450109214E+02  0.63628024755E+02  0.90846785377E+02  0.00000000000E+00 0.  1.
         -1    1    1    2    0  502 -0.41654564943E+02 -0.28032334187E+01  0.69192650172E+00  0.41754516647E+02  0.00000000000E+00 0.  1.
<scales pt_clust_5="13000.00000" pt_clust_6="13000.00000" pt_clust_7="13000.00000" pt_clust_8="13000.00000" pt_clust_9="13000.00000"></scales>
<clustering>
<clus scale="   90.874">  7  8 -1 -1</clus>
<clus scale="   95.383">  5  6 -1 -1</clus>
<clus scale="   41.749">  5  9 -1 -1</clus>
<clus scale="   99.404">  1  7  2 -1</clus>
<clus scale="  156.185">  2  5  1 -1</clus>
</clustering>
</event>
<event>
 9    1  0.3312826E-006  0.2079956E+03  0.7546771E-02  0.1156301E+00
         21   -1    0    0  501  502  0.00000000000E+00  0.00000000000E+00  0.86430323157E+02  0.86430323157E+02  0.00000000000E+00 0.  1.
         -4   -1    0    0    0  501 -0.00000000000E+00 -0.00000000000E+00 -0.40761090529E+03  0.40761090529E+03  0.00000000000E+00 0.  1.
         23    2    1    2    0    0  0.63917434205E+02  0.10070280605E+03 -0.20624094621E+03  0.25640016508E+03  0.94758763279E+02 0.  0.
         23    2    1    2    0    0 -0.73202989276E+01 -0.33185148722E+02 -0.41724075311E+02  0.12308807088E+03  0.11070200477E+03 0.  0.
        -11    1    3    3    0    0  0.83744113641E+02  0.80124985228E+02 -0.12588366294E+03  0.17111337301E+03  0.00000000000E+00 0.  1.
         11    1    3    3    0    0 -0.19826679436E+02  0.20577820821E+02 -0.80357283274E+02  0.85286792074E+02  0.00000000000E+00 0. -1.
        -13    1    4    4    0    0 -0.14547350150E+02  0.18993710542E+02  0.27273990387E+02  0.36280256176E+02  0.00000000000E+00 0.  1.
         13    1    4    4    0    0  0.72270512226E+01 -0.52178859264E+02 -0.68998065698E+02  0.86807814703E+02  0.00000000000E+00 0. -1.
         -4    1    1    2    0  502 -0.56597135278E+02 -0.67517657327E+02 -0.73215560616E+02  0.11455299249E+03  0.00000000000E+00 0.  1.
<scales pt_clust_5="13000.00000" pt_clust_6="13000.00000" pt_clust_7="13000.00000" pt_clust_8="13000.00000" pt_clust_9="13000.00000"></scales>
<clustering>
<clus scale="   94.759">  5  6 -1 -1</clus>
<clus scale="  110.702">  7  8 -1 -1</clus>
<clus scale="   88.102">  7  9 -1 -1</clus>
<clus scale="  152.334">  2  5  1 -1</clus>
<clus scale="  207.996">  1  5  2 -1</clus>
</clustering>
</event>
<event>
 9    1  0.3312826E-006  0.1621234E+03  0.7546771E-02  0.1205884E+00
         21   -1    0    0  501  502  0.00000000000E+00  0.00000000000E+00  0.46286049404E+02  0.46286049404E+02  0.00000000000E+00 0.  1.
          1   -1    0    0  502    0 -0.00000000000E+00 -0.00000000000E+00 -0.56996640089E+03  0.56996640089E+03  0.00000000000E+00 0. -1.
         23    2    1    2    0    0 -0.32957100499E+02  0.21686232062E+02 -0.39607119155E+03  0.40993206880E+03  0.98058396480E+02 0.  0.
         23    2    1    2    0    0  0.30427753048E+01  0.35371532754E+02 -0.87597820605E+02  0.13048264252E+03  0.89955200037E+02 0.  0.
        -11    1    3    3    0    0 -0.66452342278E+02  0.22478266340E+01 -0.23099284421E+03  0.24037192139E+03  0.00000000000E+00 0. -1.
         11    1    3    3    0    0  0.33495241779E+02  0.19438405428E+02 -0.16507834734E+03  0.16956014741E+03  0.00000000000E+00 0.  1.
        -13    1    4    4    0    0 -0.94892090613E+00  0.60844996841E+02 -0.31011737382E+02  0.68298916148E+02  0.00000000000E+00 0.  1.
         13    1    4    4    0    0  0.39916962109E+01 -0.25473464087E+02 -0.56586083223E+02  0.62183726374E+02  0.00000000000E+00 0. -1.
          1    1    1    2  501    0  0.29914325194E+02 -0.57057764816E+02 -0.40011339331E+02  0.75837738974E+02  0.00000000000E+00 0. -1.
<scales pt_clust_5="13000.00000" pt_clust_6="13000.00000" pt_clust_7="13000.00000" pt_clust_8="13000.00000" pt_clust_9="13000.00000"></scales>
<clustering>
<clus scale="   89.955">  7  8 -1 -1</clus>
<clus scale="   64.424">  7  9 -1 -1</clus>
<clus scale="   98.058">  5  6 -1 -1</clus>
<clus scale="  105.697">  2  5  1 -1</clus>
<clus scale="  162.123">  1  5  2 -1</clus>
</clustering>
</event>
<event>
 9    1  0.3312826E-006  0.1406963E+03  0.7546771E-02  0.1220517E+00
          3   -1    0    0  502    0 -0.00000000000E+00  0.00000000000E+00  0.32906402432E+03  0.32906402432E+03  0.00000000000E+00 0. -1.
         21   -1    0    0  501  502  0.00000000000E+00 -0.00000000000E+00 -0.59065314269E+02  0.59065314269E+02  0.00000000000E+00 0. -1.
         23    2    1    2    0    0 -0.24653162586E+02  0.70014908216E+02  0.19628977484E+03  0.22929462575E+03  0.92393094396E+02 0.  0.
         23    2    1    2    0    0  0.73083964017E+01 -0.59925788204E+02  0.81423422182E+02  0.13733716494E+03  0.92667202632E+02 0.  0.
        -11    1    3    3    0    0 -0.32525474954E+02  0.32055892453E+02  0.21897954099E+02  0.50645899692E+02  0.00000000000E+00 0.  1.
         11    1    3    3    0    0  0.78723123683E+01  0.37959015763E+02  0.17439182074E+03  0.17864872606E+03  0.00000000000E+00 0. -1.
        -13    1    4    4    0    0 -0.33825390901E+02  0.45323036536E+01  0.24534151209E+02  0.42031219606E+02  0.00000000000E+00 0.  1.
         13    1    4    4    0    0  0.41133787303E+02 -0.64458091858E+02  0.56889270973E+02  0.95305945332E+02  0.00000000000E+00 0. -1.
          3    1    1    2  501    0  0.17344766184E+02 -0.10089120012E+02 -0.77144869708E+01  0.21497547902E+02  0.00000000000E+00 0. -1.
<scales pt_clust_5="13000.00000" pt_clust_6="13000.00000" pt_clust_7="13000.00000" pt_clust_8="13000.00000" pt_clust_9="13000.00000"></scales>
<clustering>
<clus scale="   92.393">  5  6 -1 -1</clus>
<clus scale="   92.667">  7  8 -1 -1</clus>
<clus scale="   20.066">  7  9 -1 -1</clus>
<clus scale="  118.517">  1  5  2 -1</clus>
<clus scale="  140.696">  2  5  1 -1</clus>
</clustering>
</event>
<event>
 9    1  0.3312826E-006  0.2117734E+03  0.7546771E-02  0.1162963E+00
         21   -1    0    0  501  502  0.00000000000E+00  0.00000000000E+00  0.20954876512E+03  0.20954876512E+03  0.00000000000E+00 0. -1.
         -1   -1    0    0    0  501 -0.00000000000E+00 -0.00000000000E+00 -0.27073937041E+03  0.27073937041E+03  0.00000000000E+00 0.  1.
         23    2    1    2    0    0  0.53719480633E+01 -0.83740174031E+02 -0.19421735679E+03  0.23020001191E+03  0.90721492651E+02 0.  0.
         23    2    1    2    0    0 -0.42156849182E+02  0.60307293520E+02  0.79170758877E+01  0.11759412463E+03  0.91386697453E+02 0.  0.
        -13    1    3    3    0    0 -0.25294849236E+02 -0.83712660138E+02 -0.16981205175E+03  0.19100725584E+03  0.00000000000E+00 0.  1.
         13    1    3    3    0    0  0.30666797299E+02 -0.27513893672E-01 -0.24405305047E+02  0.39192756066E+02  0.00000000000E+00 0. -1.
        -13    1    4    4    0    0 -0.66097374511E+02  0.22853635417E+02 -0.79690190080E+01  0.70389323288E+02  0.00000000000E+00 0.  1.
         13    1    4    4    0    0  0.23940525329E+02  0.37453658103E+02  0.15886094896E+02  0.47204801338E+02  0.00000000000E+00 0. -1.
         -1    1    1    2    0  502  0.36784901118E+02  0.23432880511E+02  0.12510967562E+03  0.13249399900E+03  0.00000000000E+00 0.  1.
<scales pt_clust_5="13000.00000" pt_clust_6="13000.00000" pt_clust_7="13000.00000" pt_clust_8="13000.00000" pt_clust_9="13000.00000"></scales>
<clustering>
<clus scale="   90.721">  5  6 -1 -1</clus>
<clus scale="   91.387">  7  8 -1 -1</clus>
<clus scale="   43.615">  7  9 -1 -1</clus>
<clus scale="  123.579">  2  5  1 -1</clus>
<clus scale="  211.773">  1  5  2 -1</clus>
</clustering>
</event>
<event>
 9    1  0.3312826E-006  0.1748200E+03  0.7546771E-02  0.1183353E+00
          3   -1    0    0  502    0 -0.00000000000E+00  0.00000000000E+00  0.19810537153E+03  0.19810537153E+03  0.00000000000E+00 0. -1.
         21   -1    0    0  501  502  0.00000000000E+00 -0.00000000000E+00 -0.12448771327E+03  0.12448771327E+03  0.00000000000E+00 0.  1.
         23    2    1    2    0    0 -0.97998608461E+02 -0.36848921569E+02  0.19039661828E+02  0.13945162814E+03  0.90125898533E+02 0.  0.
         23    2    1    2    0    0  0.77054387913E+02  0.32927384725E+02  0.81431594776E+02  0.14886092911E+03  0.92232750296E+02 0.  0.
        -11    1    3    3    0    0 -0.78296327873E+02 -0.62281922017E+02  0.31594566542E+02  0.10491696433E+03  0.00000000000E+00 0.  1.
         11    1    3    3    0    0 -0.19702280588E+02  0.25433000448E+02 -0.12554904714E+02  0.34534663811E+02  0.00000000000E+00 0. -1.
        -13    1    4    4    0    0  0.89283342011E+02  0.50966699841E+02  0.68011846800E+02  0.12326690942E+03  0.00000000000E+00 0. -1.
         13    1    4    4    0    0 -0.12228954098E+02 -0.18039315116E+02  0.13419747976E+02  0.25594019691E+02  0.00000000000E+00 0.  1.
          3    1    1    2  501    0  0.20944220547E+02  0.39215368444E+01 -0.26853598336E+02  0.34280527550E+02  0.00000000000E+00 0. -1.
<scales pt_clust_5="13000.00000" pt_clust_6="13000.00000" pt_clust_7="13000.00000" pt_clust_8="13000.00000" pt_clust_9="13000.00000"></scales>
<clustering>
<clus scale="   90.126">  5  6 -1 -1</clus>
<clus scale="   92.233">  7  8 -1 -1</clus>
<clus scale="   21.308">  7  9 -1 -1</clus>
<clus scale="  138.146">  1  5  2 -1</clus>
<clus scale="  174.820">  2  5  1 -1</clus>
</clustering>
</event>
<event>
 9    1  0.3312826E-006  0.1067911E+04  0.7546771E-02  0.9818094E-01
         21   -1    0    0  501  502  0.00000000000E+00  0.00000000000E+00  0.19326190483E+03  0.19326190483E+03  0.00000000000E+00 0. -1.
          3   -1    0    0  502    0 -0.00000000000E+00 -0.00000000000E+00 -0.19127652158E+04  0.19127652158E+04  0.00000000000E+00 0. -1.
         23    2    1    2    0    0 -0.10451961471E+03 -0.23273622628E+02 -0.13597699868E+03  0.19605597088E+03  0.92098795760E+02 0.  0.
         23    2    1    2    0    0  0.44571088452E+03  0.31321507740E+03 -0.52992353025E+03  0.76517581778E+03  0.88956207800E+02 0.  0.
        -13    1    4    4    0    0  0.65970180874E+02  0.11567430856E+02 -0.66878442751E+02  0.94649861732E+02  0.00000000000E+00 0.  1.
         13    1    4    4    0    0  0.37974070365E+03  0.30164764654E+03 -0.46304508750E+03  0.67052595604E+03  0.00000000000E+00 0. -1.
        -13    1    3    3    0    0 -0.62633566633E+02 -0.44552197103E+02 -0.12666390598E+03  0.14816074721E+03  0.00000000000E+00 0. -1.
         13    1    3    3    0    0 -0.41886048074E+02  0.21278574475E+02 -0.93130926976E+01  0.47895223672E+02  0.00000000000E+00 0.  1.
          3    1    1    2  501    0 -0.34119126981E+03 -0.28994145477E+03 -0.10536027820E+04  0.11447953320E+04  0.00000000000E+00 0. -1.
<scales pt_clust_5="13000.00000" pt_clust_6="13000.00000" pt_clust_7="13000.00000" pt_clust_8="13000.00000" pt_clust_9="13000.00000"></scales>
<clustering>
<clus scale="   88.956">  5  6 -1 -1</clus>
<clus scale="   92.099">  7  8 -1 -1</clus>
<clus scale="  141.238">  2  7  1 -1</clus>
<clus scale="  508.324">  5  9 -1 -1</clus>
<clus scale=" 1067.911">  1  5  2 -1</clus>
</clustering>
</event>
<event>
 9    1  0.3312826E-006  0.7374426E+03  0.7546771E-02  0.1014525E+00
          4   -1    0    0  502    0 -0.00000000000E+00  0.00000000000E+00  0.20457692789E+03  0.20457692789E+03  0.00000000000E+00 0. -1.
         21   -1    0    0  501  502  0.00000000000E+00 -0.00000000000E+00 -0.17444578456E+04  0.17444578456E+04  0.00000000000E+00 0. -1.
         23    2    1    2    0    0 -0.74174358221E+02  0.98133178258E+02  0.77911838001E+02  0.17109357089E+03  0.89837628019E+02 0.  0.
         23    2    1    2    0    0 -0.29133689764E+03 -0.94093990630E+01 -0.39558355236E+03  0.49916611529E+03  0.87833587192E+02 0.  0.
        -13    1    4    4    0    0 -0.22475452252E+03  0.29996258135E+02 -0.28480535772E+03  0.36404458886E+03  0.00000000000E+00 0.  1.
         13    1    4    4    0    0 -0.66582375113E+02 -0.39405657198E+02 -0.11077819465E+03  0.13512152643E+03  0.00000000000E+00 0. -1.
        -13    1    3    3    0    0  0.23191552268E+01  0.29221461090E+02 -0.14538242660E+02  0.32720525192E+02  0.00000000000E+00 0. -1.
         13    1    3    3    0    0 -0.76493513448E+02  0.68911717168E+02  0.92450080661E+02  0.13837304570E+03  0.00000000000E+00 0.  1.
          4    1    1    2  501    0  0.36551125586E+03 -0.88723779195E+02 -0.12222092034E+04  0.12787750873E+04  0.00000000000E+00 0. -1.
<scales pt_clust_5="13000.00000" pt_clust_6="13000.00000" pt_clust_7="13000.00000" pt_clust_8="13000.00000" pt_clust_9="13000.00000"></scales>
<clustering>
<clus scale="   87.834">  5  6 -1 -1</clus>
<clus scale="   89.838">  7  8 -1 -1</clus>
<clus scale="  152.325">  1  7  2 -1</clus>
<clus scale="  343.592">  5  9 -1 -1</clus>
<clus scale="  737.443">  2  5  1 -1</clus>
</clustering>
</event>
<event>
 9    1  0.3312826E-006  0.2236967E+03  0.7546771E-02  0.1142968E+00
          2   -1    0    0  502    0 -0.00000000000E+00  0.00000000000E+00  0.61867540088E+03  0.61867540088E+03  0.00000000000E+00 0. -1.
         21   -1    0    0  501  502  0.00000000000E+00 -0.00000000000E+00 -0.71240713056E+02  0.71240713056E+02  0.00000000000E+00 0.  1.
         23    2    1    2    0    0 -0.13727684679E+03  0.34376294180E+02  0.11665558478E+03  0.20451849390E+03  0.90513129543E+02 0.  0.
         23    2    1    2    0    0  0.35954984373E+02 -0.55325546424E+02  0.15845905668E+03  0.19408473220E+03  0.90586608501E+02 0.  0.
        -11    1    4    4    0    0  0.30413340953E+02  0.19957442387E+02  0.46116837953E+02  0.58736986281E+02  0.00000000000E+00 0. -1.
         11    1    4    4    0    0  0.55416434205E+01 -0.75282988812E+02  0.11234221873E+03  0.13534774592E+03  0.00000000000E+00 0.  1.
        -13    1    3    3    0    0  0.11805780348E+01  0.22828576489E+02 -0.37107526788E+00  0.22862094520E+02  0.00000000000E+00 0. -1.
         13    1    3    3    0    0 -0.13845742482E+03  0.11547717691E+02  0.11702666005E+03  0.18165639938E+03  0.00000000000E+00 0.  1.
          2    1    1    2  501    0  0.10132186241E+03  0.20949252245E+02  0.27232004636E+03  0.29131288784E+03  0.00000000000E+00 0. -1.
<scales pt_clust_5="13000.00000" pt_clust_6="13000.00000" pt_clust_7="13000.00000" pt_clust_8="13000.00000" pt_clust_9="13000.00000"></scales>
<clustering>
<clus scale="   90.513">  7  8 -1 -1</clus>
<clus scale="   90.587">  5  6 -1 -1</clus>
<clus scale="  103.465">  5  9 -1 -1</clus>
<clus scale="  167.986">  1  7  2 -1</clus>
<clus scale="  223.697">  2  5  1 -1</clus>
</clustering>
</event>
<event>
 9    1  0.3312826E-006  0.1836549E+03  0.7546771E-02  0.1173733E+00
          3   -1    0    0  502    0 -0.00000000000E+00  0.00000000000E+00  0.24860804798E+03  0.24860804798E+03  0.00000000000E+00 0. -1.
         21   -1    0    0  501  502  0.00000000000E+00 -0.00000000000E+00 -0.12156139246E+03  0.12156139246E+03  0.00000000000E+00 0. -1.
         23    2    1    2    0    0 -0.74756353658E+02 -0.89280949272E+02  0.20472483605E+01  0.14801185721E+03  0.91343956199E+02 0.  0.
         23    2    1    2    0    0  0.94506913880E+01  0.31248465841E+02  0.53472699349E+02  0.10924758107E+03  0.89498168749E+02 0.  0.
        -11    1    3    3    0    0  0.21522085525E+02 -0.14643432329E+02  0.28635981585E+01  0.26188365167E+02  0.00000000000E+00 0.  1.
         11    1    3    3    0    0 -0.96278439183E+02 -0.74637516943E+02 -0.81634979797E+00  0.12182349204E+03  0.00000000000E+00 0. -1.
        -13    1    4    4    0    0  0.77577918177E+01  0.61826416877E+02  0.24087042988E+02  0.66804751310E+02  0.00000000000E+00 0. -1.
         13    1    4    4    0    0  0.16928995703E+01 -0.30577951035E+02  0.29385656361E+02  0.42442829763E+02  0.00000000000E+00 0.  1.
          3    1    1    2  501    0  0.65305662270E+02  0.58032483431E+02  0.71526707813E+02  0.11291000216E+03  0.00000000000E+00 0. -1.
<scales pt_clust_5="13000.00000" pt_clust_6="13000.00000" pt_clust_7="13000.00000" pt_clust_8="13000.00000" pt_clust_9="13000.00000"></scales>
<clustering>
<clus scale="   89.498">  7  8 -1 -1</clus>
<clus scale="   87.365">  7  9 -1 -1</clus>
<clus scale="   91.344">  5  6 -1 -1</clus>
<clus scale="  147.998">  1  5  2 -1</clus>
<clus scale="  183.655">  2  5  1 -1</clus>
</clustering>
</event>
<event>
 9    1  0.3312826E-006  0.2674160E+03  0.7546771E-02  0.1142114E+00
         21   -1    0    0  501  502  0.00000000000E+00  0.00000000000E+00  0.43143273771E+02  0.43143273771E+02  0.00000000000E+00 0. -1.
         -3   -1    0    0    0  501 -0.00000000000E+00 -0.00000000000E+00 -0.86153809797E+03  0.86153809797E+03  0.00000000000E+00 0.  1.
         23    2    1    2    0    0  0.24219741367E+02  0.10919731881E+02 -0.36256059341E+03  0.37619658521E+03  0.96787656322E+02 0.  0.
         23    2    1    2    0    0  0.80238702515E+02  0.15507995534E+02 -0.10141590149E+03  0.15804944343E+03  0.89530409280E+02 0.  0.
        -11    1    4    4    0    0  0.27368069471E+02  0.39726548344E+02 -0.93252583604E+01  0.49134207162E+02  0.00000000000E+00 0. -1.
         11    1    4    4    0    0  0.52870633045E+02 -0.24218552810E+02 -0.92090643130E+02  0.10891523627E+03  0.00000000000E+00 0.  1.
        -13    1    3    3    0    0  0.40054397446E+02  0.45944641075E+02 -0.24706128775E+03  0.25446914293E+03  0.00000000000E+00 0. -1.
         13    1    3    3    0    0 -0.15834656079E+02 -0.35024909194E+02 -0.11549930566E+03  0.12172744228E+03  0.00000000000E+00 0.  1.
         -3    1    1    2    0  502 -0.10445844388E+03 -0.26427727414E+02 -0.35441832930E+03  0.37043534310E+03  0.00000000000E+00 0.  1.
<scales pt_clust_5="13000.00000" pt_clust_6="13000.00000" pt_clust_7="13000.00000" pt_clust_8="13000.00000" pt_clust_9="13000.00000"></scales>
<clustering>
<clus scale="   89.530">  5  6 -1 -1</clus>
<clus scale="   96.788">  7  8 -1 -1</clus>
<clus scale="  100.368">  2  7  1 -1</clus>
<clus scale="   88.553">  5  9 -1 -1</clus>
<clus scale="  267.416">  1  5  2 -1</clus>
</clustering>
</event>
<event>
 9    1  0.3312826E-006  0.2118035E+03  0.7546771E-02  0.1170109E+00
         21   -1    0    0  501  502  0.00000000000E+00  0.00000000000E+00  0.22672310423E+03  0.22672310423E+03  0.00000000000E+00 0.  1.
         -1   -1    0    0    0  501 -0.00000000000E+00 -0.00000000000E+00 -0.12434264988E+03  0.12434264988E+03  0.00000000000E+00 0.  1.
         23    2    1    2    0    0  0.54459942140E+01 -0.50485704832E+02 -0.19653354488E+02  0.10662150851E+03  0.91670205023E+02 0.  0.
         23    2    1    2    0    0  0.52331379360E+02 -0.32291624302E+02  0.37905318685E+02  0.11303681061E+03  0.86943574241E+02 0.  0.
        -11    1    4    4    0    0  0.13637155984E+02 -0.58152254084E+02  0.17679885475E+02  0.62291532561E+02  0.00000000000E+00 0.  1.
         11    1    4    4    0    0  0.38694223376E+02  0.25860629782E+02  0.20225433210E+02  0.50745278046E+02  0.00000000000E+00 0. -1.
        -13    1    3    3    0    0  0.17736881364E+02 -0.75159738570E+02 -0.14049301184E+02  0.78491822034E+02  0.00000000000E+00 0.  1.
         13    1    3    3    0    0 -0.12290887150E+02  0.24674033738E+02 -0.56040533045E+01  0.28129686476E+02  0.00000000000E+00 0. -1.
         -1    1    1    2    0  502 -0.57777373574E+02  0.82777329134E+02  0.84128490157E+02  0.13140743499E+03  0.00000000000E+00 0.  1.
<scales pt_clust_5="13000.00000" pt_clust_6="13000.00000" pt_clust_7="13000.00000" pt_clust_8="13000.00000" pt_clust_9="13000.00000"></scales>
<clustering>
<clus scale="   86.944">  5  6 -1 -1</clus>
<clus scale="   91.670">  7  8 -1 -1</clus>
<clus scale="  100.947">  5  9 -1 -1</clus>
<clus scale="  104.795">  2  7  1 -1</clus>
<clus scale="  211.804">  1  5  2 -1</clus>
</clustering>
</event>
<event>
 9    1  0.3312826E-006  0.1880729E+03  0.7546771E-02  0.1184737E+00
          1   -1    0    0  502    0 -0.00000000000E+00  0.00000000000E+00  0.11143016772E+03  0.11143016772E+03  0.00000000000E+00 0. -1.
         21   -1    0    0  501  502  0.00000000000E+00 -0.00000000000E+00 -0.19924208891E+03  0.19924208891E+03  0.00000000000E+00 0. -1.
         23    2    1    2    0    0 -0.28281287191E+02 -0.16645267839E+02 -0.50908228618E+02  0.11901295319E+03  0.10244773858E+03 0.  0.
         23    2    1    2    0    0  0.66043006313E+02  0.53085573094E+02  0.39439912155E+01  0.12515835195E+03  0.92028806593E+02 0.  0.
        -11    1    3    3    0    0 -0.49160957176E+02 -0.45313832675E+02 -0.14956256508E+02  0.68511551952E+02  0.00000000000E+00 0.  1.
         11    1    3    3    0    0  0.20879669986E+02  0.28668564836E+02 -0.35951972110E+02  0.50501401239E+02  0.00000000000E+00 0. -1.
        -13    1    4    4    0    0  0.10704155872E+02 -0.26211571799E+02 -0.10435231243E+01  0.28332214697E+02  0.00000000000E+00 0.  1.
         13    1    4    4    0    0  0.55338850440E+02  0.79297144894E+02  0.49875143398E+01  0.96826137255E+02  0.00000000000E+00 0. -1.
          1    1    1    2  501    0 -0.37761719122E+02 -0.36440305256E+02 -0.40847683784E+02  0.66500951487E+02  0.00000000000E+00 0. -1.
<scales pt_clust_5="13000.00000" pt_clust_6="13000.00000" pt_clust_7="13000.00000" pt_clust_8="13000.00000" pt_clust_9="13000.00000"></scales>
<clustering>
<clus scale="   92.029">  7  8 -1 -1</clus>
<clus scale="   52.477">  7  9 -1 -1</clus>
<clus scale="  102.448">  5  6 -1 -1</clus>
<clus scale="  107.575">  1  5  2 -1</clus>
<clus scale="  188.073">  2  5  1 -1</clus>
</clustering>
</event>
<event>
 9    1  0.3312826E-006  0.3580556E+03  0.7546771E-02  0.1085035E+00
         21   -1    0    0  501  502  0.00000000000E+00  0.00000000000E+00  0.34439074505E+03  0.34439074505E+03  0.00000000000E+00 0. -1.
          2   -1    0    0  502    0 -0.00000000000E+00 -0.00000000000E+00 -0.26025742780E+03  0.26025742780E+03  0.00000000000E+00 0. -1.
         23    2    1    2    0    0 -0.14896819248E+03  0.32049346489E+02 -0.98255178760E+02  0.20281563678E+03  0.90892350553E+02 0.  0.
         23    2    1    2    0    0 -0.44589950302E+02  0.58671670440E+02 -0.44149702915E+01  0.11794771335E+03  0.91986643277E+02 0.  0.
        -13    1    4    4    0    0 -0.31411707767E+02  0.75029384378E+02  0.21939267653E+02  0.84246278079E+02  0.00000000000E+00 0. -1.
         13    1    4    4    0    0 -0.13178242535E+02 -0.16357713938E+02 -0.26354237945E+02  0.33701435270E+02  0.00000000000E+00 0.  1.
        -13    1    3    3    0    0 -0.57793950443E+02  0.50434765630E+01  0.98465332745E+01  0.58843279830E+02  0.00000000000E+00 0.  1.
         13    1    3    3    0    0 -0.91174242037E+02  0.27005869926E+02 -0.10810171203E+03  0.14397235695E+03  0.00000000000E+00 0. -1.
          2    1    1    2  501    0  0.19355814278E+03 -0.90721016929E+02  0.18680346630E+03  0.28388482272E+03  0.00000000000E+00 0. -1.
<scales pt_clust_5="13000.00000" pt_clust_6="13000.00000" pt_clust_7="13000.00000" pt_clust_8="13000.00000" pt_clust_9="13000.00000"></scales>
<clustering>
<clus scale="   90.892">  7  8 -1 -1</clus>
<clus scale="   91.987">  5  6 -1 -1</clus>
<clus scale="  177.426">  2  7  1 -1</clus>
<clus scale="  148.844">  5  9 -1 -1</clus>
<clus scale="  358.056">  1  5  2 -1</clus>
</clustering>
</event>
<event>
 9    1  0.3312826E-006  0.1836464E+03  0.7546771E-02  0.1193675E+00
         21   -1    0    0  501  502  0.00000000000E+00  0.00000000000E+00  0.34690558592E+02  0.34690558592E+02  0.00000000000E+00 0.  1.
          2   -1    0    0  502    0 -0.00000000000E+00 -0.00000000000E+00 -0.58842483165E+03  0.58842483165E+03  0.00000000000E+00 0. -1.
         23    2    1    2    0    0 -0.23866790539E+02  0.19101436523E+02 -0.25944498344E+03  0.27622611216E+03  0.89747852551E+02 0.  0.
         23    2    1    2    0    0  0.11287375756E+01 -0.18112972204E+02 -0.30698425051E+03  0.32082861527E+03  0.91445702489E+02 0.  0.
        -11    1    3    3    0    0 -0.41625415176E+02  0.45566623247E+02 -0.19101880473E+03  0.20074156546E+03  0.00000000000E+00 0.  1.
         11    1    3    3    0    0  0.17758624638E+02 -0.26465186724E+02 -0.68426178716E+02  0.75484546703E+02  0.00000000000E+00 0. -1.
        -13    1    4    4    0    0  0.36480739287E+02 -0.31900375765E+02 -0.22939054214E+03  0.23445361831E+03  0.00000000000E+00 0. -1.
         13    1    4    4    0    0 -0.35352001711E+02  0.13787403561E+02 -0.77593708363E+02  0.86374996958E+02  0.00000000000E+00 0.  1.
          2    1    1    2  501    0  0.22738052963E+02 -0.98846431866E+00  0.12694960893E+02  0.26060662814E+02  0.00000000000E+00 0. -1.
<scales pt_clust_5="13000.00000" pt_clust_6="13000.00000" pt_clust_7="13000.00000" pt_clust_8="13000.00000" pt_clust_9="13000.00000"></scales>
<clustering>
<clus scale="   89.748">  5  6 -1 -1</clus>
<clus scale="   91.446">  7  8 -1 -1</clus>
<clus scale="   22.760">  7  9 -1 -1</clus>
<clus scale="   94.811">  2  5  1 -1</clus>
<clus scale="  183.646">  1  5  2 -1</clus>
</clustering>
</event>
<event>
 9    1  0.3312826E-006  0.4563824E+03  0.7546771E-02  0.1071084E+00
         -1   -1    0    0    0  501 -0.00000000000E+00  0.00000000000E+00  0.27798784515E+03  0.27798784515E+03  0.00000000000E+00 0.  1.
         21   -1    0    0  501  502  0.00000000000E+00 -0.00000000000E+00 -0.42380130936E+03  0.42380130936E+03  0.00000000000E+00 0.  1.
         23    2    1    2    0    0  0.17968948294E+02  0.85658756923E+02  0.12034062216E+03  0.17346835344E+03  0.89157717344E+02 0.  0.
         23    2    1    2    0    0  0.13659101837E+03 -0.16609462795E+03 -0.36487107341E+02  0.24004032324E+03  0.10021734404E+03 0.  0.
        -13    1    4    4    0    0  0.27709177560E+02 -0.72133261248E+01 -0.37807375073E+02  0.47426028769E+02  0.00000000000E+00 0. -1.
         13    1    4    4    0    0  0.10888184081E+03 -0.15888130183E+03  0.13202677320E+01  0.19261429447E+03  0.00000000000E+00 0.  1.
        -13    1    3    3    0    0 -0.28512179274E+02  0.39847345080E+01  0.15579478026E+02  0.32734425482E+02  0.00000000000E+00 0.  1.
         13    1    3    3    0    0  0.46481127568E+02  0.81674022415E+02  0.10476114413E+03  0.14073392795E+03  0.00000000000E+00 0. -1.
         -1    1    1    2    0  502 -0.15455996667E+03  0.80435871029E+02 -0.22966697902E+03  0.28828047783E+03  0.00000000000E+00 0.  1.
<scales pt_clust_5="13000.00000" pt_clust_6="13000.00000" pt_clust_7="13000.00000" pt_clust_8="13000.00000" pt_clust_9="13000.00000"></scales>
<clustering>
<clus scale="   89.158">  7  8 -1 -1</clus>
<clus scale="  100.217">  5  6 -1 -1</clus>
<clus scale="  124.938">  1  7  2 -1</clus>
<clus scale="  180.501">  5  9 -1 -1</clus>
<clus scale="  456.382">  2  5  1 -1</clus>
</clustering>
</event>
<event>
 9    1  0.3312826E-006  0.1479452E+03  0.7546771E-02  0.1226870E+00
          2   -1    0    0  502    0 -0.00000000000E+00  0.00000000000E+00  0.37395149215E+03  0.37395149215E+03  0.00000000000E+00 0. -1.
         21   -1    0    0  501  502  0.00000000000E+00 -0.00000000000E+00 -0.37622473775E+02  0.37622473775E+02  0.00000000000E+00 0.  1.
         23    2    1    2    0    0 -0.90851103241E+01 -0.89743217744E+01  0.12744634837E+03  0.15560572246E+03  0.88360010573E+02 0.  0.
         23    2    1    2    0    0 -0.16369308209E+02 -0.33743035517E+02  0.11355692583E+03  0.14845220959E+03  0.87956446223E+02 0.  0.
        -11    1    4    4    0    0 -0.27545609529E+02 -0.11024285949E+02  0.11892518868E+03  0.12257037158E+03  0.00000000000E+00 0. -1.
         11    1    4    4    0    0  0.11176301320E+02 -0.22718749568E+02 -0.53682628527E+01  0.25881838018E+02  0.00000000000E+00 0.  1.
        -13    1    3    3    0    0  0.35067968640E+02  0.99403669570E+01  0.80839673122E+02  0.88677088756E+02  0.00000000000E+00 0. -1.
         13    1    3    3    0    0 -0.44153078964E+02 -0.18914688731E+02  0.46606675245E+02  0.66928633702E+02  0.00000000000E+00 0.  1.
          2    1    1    2  501    0  0.25454418534E+02  0.42717357292E+02  0.95325744181E+02  0.10751603388E+03  0.00000000000E+00 0. -1.
<scales pt_clust_5="13000.00000" pt_clust_6="13000.00000" pt_clust_7="13000.00000" pt_clust_8="13000.00000" pt_clust_9="13000.00000"></scales>
<clustering>
<clus scale="   87.956">  5  6 -1 -1</clus>
<clus scale="   49.726">  5  9 -1 -1</clus>
<clus scale="   88.360">  7  8 -1 -1</clus>
<clus scale="   89.278">  1  7  2 -1</clus>
<clus scale="  147.945">  2  5  1 -1</clus>
</clustering>
</event>
<event>
 9    1  0.3312826E-006  0.2234208E+03  0.7546771E-02  0.1171143E+00
         -3   -1    0    0    0  501 -0.00000000000E+00  0.00000000000E+00  0.49255984254E+03  0.49255984254E+03  0.00000000000E+00 0.  1.
         21   -1    0    0  501  502  0.00000000000E+00 -0.00000000000E+00 -0.67208338437E+02  0.67208338437E+02  0.00000000000E+00 0.  1.
         23    2    1    2    0    0 -0.14735784430E+01 -0.11158485003E+02  0.27991178597E+03  0.29317939622E+03  0.86468880073E+02 0.  0.
         23    2    1    2    0    0  0.10624511191E+02  0.97621699377E+02  0.81841249859E+02  0.15886510038E+03  0.94325253840E+02 0.  0.
        -11    1    3    3    0    0  0.30346248969E+02 -0.33371977085E+02  0.10993063017E+03  0.11882477490E+03  0.00000000000E+00 0.  1.
         11    1    3    3    0    0 -0.31819827412E+02  0.22213492082E+02  0.16998115581E+03  0.17435462132E+03  0.00000000000E+00 0. -1.
        -11    1    4    4    0    0  0.16457583500E+02 -0.13730487676E+02  0.27378974068E+02  0.34770484142E+02  0.00000000000E+00 0. -1.
         11    1    4    4    0    0 -0.58330723093E+01  0.11135218705E+03  0.54462275792E+02  0.12409461623E+03  0.00000000000E+00 0.  1.
         -3    1    1    2    0  502 -0.91509327476E+01 -0.86463214374E+02  0.63598468274E+02  0.10772368438E+03  0.00000000000E+00 0.  1.
<scales pt_clust_5="13000.00000" pt_clust_6="13000.00000" pt_clust_7="13000.00000" pt_clust_8="13000.00000" pt_clust_9="13000.00000"></scales>
<clustering>
<clus scale="   86.469">  5  6 -1 -1</clus>
<clus scale="   87.198">  1  5  2 -1</clus>
<clus scale="   94.325">  7  8 -1 -1</clus>
<clus scale="   91.625">  7  9 -1 -1</clus>
<clus scale="  223.421">  2  5  1 -1</clus>
</clustering>
</event>
<event>
 9    1  0.3312826E-006  0.3729647E+03  0.7546771E-02  0.1080048E+00
          1   -1    0    0  502    0 -0.00000000000E+00  0.00000000000E+00  0.55434857196E+03  0.55434857196E+03  0.00000000000E+00 0. -1.
         21   -1    0    0  501  502  0.00000000000E+00 -0.00000000000E+00 -0.19851535467E+03  0.19851535467E+03  0.00000000000E+00 0.  1.
         23    2    1    2    0    0 -0.14449170773E+03 -0.51337012196E+02 -0.64717008444E+02  0.19075615263E+03  0.93200193996E+02 0.  0.
         23    2    1    2    0    0  0.74309108983E+02 -0.22025987853E+01  0.45098121336E+03  0.46873683571E+03  0.10393974804E+03 0.  0.
        -13    1    3    3    0    0 -0.13216219143E+03 -0.71640385930E+02 -0.70900164177E+02  0.16621077889E+03  0.00000000000E+00 0.  1.
         13    1    3    3    0    0 -0.12329516298E+02  0.20303373734E+02  0.61831557329E+01  0.24545373738E+02  0.00000000000E+00 0. -1.
        -13    1    4    4    0    0 -0.54587478891E+01 -0.38830986961E+02  0.11609950809E+03  0.12254280581E+03  0.00000000000E+00 0.  1.
         13    1    4    4    0    0  0.79767856872E+02  0.36628388176E+02  0.33488170528E+03  0.34619402990E+03  0.00000000000E+00 0. -1.
          1    1    1    2  501    0  0.70182598744E+02  0.53539610982E+02 -0.30430987628E+02  0.93370938297E+02  0.00000000000E+00 0. -1.
<scales pt_clust_5="13000.00000" pt_clust_6="13000.00000" pt_clust_7="13000.00000" pt_clust_8="13000.00000" pt_clust_9="13000.00000"></scales>
<clustering>
<clus scale="   93.200">  5  6 -1 -1</clus>
<clus scale="  103.940">  7  8 -1 -1</clus>
<clus scale="   88.273">  7  9 -1 -1</clus>
<clus scale="  179.443">  1  5  2 -1</clus>
<clus scale="  372.965">  2  5  1 -1</clus>
</clustering>
</event>
<event>
 9    1  0.3312826E-006  0.2128312E+03  0.7546771E-02  0.1164767E+00
         21   -1    0    0  501  502  0.00000000000E+00  0.00000000000E+00  0.14507079706E+03  0.14507079706E+03  0.00000000000E+00 0.  1.
         -4   -1    0    0    0  501 -0.00000000000E+00 -0.00000000000E+00 -0.25909201785E+03  0.25909201785E+03  0.00000000000E+00 0.  1.
         23    2    1    2    0    0 -0.14867700394E+02 -0.71524420007E+02  0.58113573521E+02  0.13043395468E+03  0.91099055620E+02 0.  0.
         23    2    1    2    0    0  0.71299931080E+02 -0.10404747238E+01 -0.74526536285E+02  0.13964816571E+03  0.94141610436E+02 0.  0.
        -11    1    4    4    0    0  0.41605283613E+02 -0.77205991668E+01 -0.94295390401E+02  0.10335486407E+03  0.00000000000E+00 0.  1.
         11    1    4    4    0    0  0.29694647467E+02  0.66801244430E+01  0.19768854116E+02  0.36293301639E+02  0.00000000000E+00 0. -1.
        -13    1    3    3    0    0 -0.28747307809E+02 -0.44138313721E+02  0.77805578171E+02  0.93959067891E+02  0.00000000000E+00 0.  1.
         13    1    3    3    0    0  0.13879607415E+02 -0.27386106285E+02 -0.19692004650E+02  0.36474886793E+02  0.00000000000E+00 0. -1.
         -4    1    1    2    0  502 -0.56432230686E+02  0.72564894730E+02 -0.97608258025E+02  0.13408069452E+03  0.00000000000E+00 0.  1.
<scales pt_clust_5="13000.00000" pt_clust_6="13000.00000" pt_clust_7="13000.00000" pt_clust_8="13000.00000" pt_clust_9="13000.00000"></scales>
<clustering>
<clus scale="   91.099">  7  8 -1 -1</clus>
<clus scale="   94.142">  5  6 -1 -1</clus>
<clus scale="   91.925">  5  9 -1 -1</clus>
<clus scale="  116.773">  2  7  1 -1</clus>
<clus scale="  212.831">  1  5  2 -1</clus>
</clustering>
</event>
<event>
 9    1  0.3312826E-006  0.2312697E+03  0.7546771E-02  0.1145818E+00
         21   -1    0    0  501  502  0.00000000000E+00  0.00000000000E+00  0.49611133618E+02  0.49611133618E+02  0.00000000000E+00 0. -1.
          1   -1    0    0  502    0 -0.00000000000E+00 -0.00000000000E+00 -0.11522160548E+04  0.11522160548E+04  0.00000000000E+00 0. -1.
         23    2    1    2    0    0 -0.54387480515E+01  0.10910274200E+03 -0.83994081398E+03  0.85185847873E+03  0.90715536161E+02 0.  0.
         23    2    1    2    0    0 -0.95722318946E+01 -0.63903407856E+02 -0.27796503908E+03  0.29994443717E+03  0.92340832135E+02 0.  0.
        -11    1    4    4    0    0 -0.49887405636E+02 -0.40515719600E+02 -0.13383354044E+03  0.14846445138E+03  0.00000000000E+00 0.  1.
         11    1    4    4    0    0  0.40315173742E+02 -0.23387688256E+02 -0.14413149863E+03  0.15147998579E+03  0.00000000000E+00 0. -1.
        -13    1    3    3    0    0  0.36720670733E+02  0.86907681348E+02 -0.56029199420E+03  0.56817996401E+03  0.00000000000E+00 0. -1.
         13    1    3    3    0    0 -0.42159418784E+02  0.22195060652E+02 -0.27964881978E+03  0.28367851472E+03  0.00000000000E+00 0.  1.
          1    1    1    2  501    0  0.15010979946E+02 -0.45199334144E+02  0.15300931868E+02  0.50024272529E+02  0.00000000000E+00 0. -1.
<scales pt_clust_5="13000.00000" pt_clust_6="13000.00000" pt_clust_7="13000.00000" pt_clust_8="13000.00000" pt_clust_9="13000.00000"></scales>
<clustering>
<clus scale="   90.716">  7  8 -1 -1</clus>
<clus scale="   92.341">  5  6 -1 -1</clus>
<clus scale="   47.627">  5  9 -1 -1</clus>
<clus scale="  141.994">  2  7  1 -1</clus>
<clus scale="  231.270">  1  5  2 -1</clus>
</clustering>
</event>
<event>
 9    1  0.3312826E-006  0.2299744E+03  0.7546771E-02  0.1160475E+00
         21   -1    0    0  501  502  0.00000000000E+00  0.00000000000E+00  0.11741540789E+03  0.11741540789E+03  0.00000000000E+00 0. -1.
          2   -1    0    0  502    0 -0.00000000000E+00 -0.00000000000E+00 -0.24586591733E+03  0.24586591733E+03  0.00000000000E+00 0. -1.
         23    2    1    2    0    0  0.46653077655E+02 -0.69954072218E+01 -0.52099365161E+01  0.10236661644E+03  0.90699147436E+02 0.  0.
         23    2    1    2    0    0 -0.10369254437E+03  0.49653239007E+02 -0.12090855507E+03  0.18965020371E+03  0.90170578215E+02 0.  0.
        -11    1    4    4    0    0 -0.10916674293E+03  0.16043717781E+02 -0.10401580761E+03  0.15163794669E+03  0.00000000000E+00 0. -1.
         11    1    4    4    0    0  0.54741985669E+01  0.33609521226E+02 -0.16892747467E+02  0.38012257023E+02  0.00000000000E+00 0.  1.
        -13    1    3    3    0    0  0.55399374212E+02  0.25964681415E+02  0.14639855507E+02  0.62909305459E+02  0.00000000000E+00 0. -1.
         13    1    3    3    0    0 -0.87462965563E+01 -0.32960088637E+02 -0.19849792023E+02  0.39457310980E+02  0.00000000000E+00 0.  1.
          2    1    1    2  501    0  0.57039466712E+02 -0.42657831785E+02 -0.23320178562E+01  0.71264505068E+02  0.00000000000E+00 0. -1.
<scales pt_clust_5="13000.00000" pt_clust_6="13000.00000" pt_clust_7="13000.00000" pt_clust_8="13000.00000" pt_clust_9="13000.00000"></scales>
<clustering>
<clus scale="   90.171">  5  6 -1 -1</clus>
<clus scale="   71.226">  5  9 -1 -1</clus>
<clus scale="   90.699">  7  8 -1 -1</clus>
<clus scale="  102.234">  2  7  1 -1</clus>
<clus scale="  229.974">  1  5  2 -1</clus>
</clustering>
</event>
<event>
 9    1  0.3312826E-006  0.2645723E+03  0.7546771E-02  0.1142790E+00
          2   -1    0    0  502    0 -0.00000000000E+00  0.00000000000E+00  0.11129036579E+04  0.11129036579E+04  0.00000000000E+00 0. -1.
         21   -1    0    0  501  502  0.00000000000E+00 -0.00000000000E+00 -0.31803623069E+02  0.31803623069E+02  0.00000000000E+00 0.  1.
         23    2    1    2    0    0  0.40892783861E+00  0.14869841547E+02  0.42958676264E+03  0.44152304476E+03  0.10087880359E+03 0.  0.
         23    2    1    2    0    0  0.10726239463E+03 -0.46059621549E+02  0.36197086929E+03  0.39269958419E+03  0.97792347191E+02 0.  0.
        -11    1    3    3    0    0  0.24841345940E+02 -0.32977426638E+02  0.11082740730E+03  0.11826798952E+03  0.00000000000E+00 0.  1.
         11    1    3    3    0    0 -0.24432418102E+02  0.47847268185E+02  0.31875935533E+03  0.32325505524E+03  0.00000000000E+00 0. -1.
        -11    1    4    4    0    0  0.58369882152E+02 -0.16586257437E+02  0.59842412356E+02  0.85224769843E+02  0.00000000000E+00 0.  1.
         11    1    4    4    0    0  0.48892512482E+02 -0.29473364112E+02  0.30212845693E+03  0.30747481435E+03  0.00000000000E+00 0. -1.
          2    1    1    2  501    0 -0.10767132247E+03  0.31189780002E+02  0.28954240295E+03  0.31048465206E+03  0.00000000000E+00 0. -1.
<scales pt_clust_5="13000.00000" pt_clust_6="13000.00000" pt_clust_7="13000.00000" pt_clust_8="13000.00000" pt_clust_9="13000.00000"></scales>
<clustering>
<clus scale="   97.792">  7  8 -1 -1</clus>
<clus scale="  100.879">  5  6 -1 -1</clus>
<clus scale="  101.970">  1  5  2 -1</clus>
<clus scale="  113.935">  7  9 -1 -1</clus>
<clus scale="  264.572">  2  5  1 -1</clus>
</clustering>
</event>
<event>
 9    1  0.3312826E-006  0.5768829E+03  0.7546771E-02  0.1051643E+00
         21   -1    0    0  501  502  0.00000000000E+00  0.00000000000E+00  0.24102804308E+03  0.24102804308E+03  0.00000000000E+00 0. -1.
          1   -1    0    0  502    0 -0.00000000000E+00 -0.00000000000E+00 -0.48456511928E+03  0.48456511928E+03  0.00000000000E+00 0. -1.
         23    2    1    2    0    0 -0.42501020075E+02  0.35974256029E+02 -0.31939438529E+02  0.11112800716E+03  0.90712857069E+02 0.  0.
         23    2    1    2    0    0 -0.13749507576E+03 -0.12146361886E+03 -0.32553580348E+03  0.38492445881E+03  0.92384918042E+02 0.  0.
        -11    1    4    4    0    0 -0.13495791603E+03 -0.67401755989E+02 -0.25030785801E+03  0.29225102154E+03  0.00000000000E+00 0. -1.
         11    1    4    4    0    0 -0.25371597276E+01 -0.54061862870E+02 -0.75227945466E+02  0.92673437270E+02  0.00000000000E+00 0.  1.
        -13    1    3    3    0    0 -0.29461446793E+02  0.64882665811E+02 -0.34770176801E+02  0.79288727854E+02  0.00000000000E+00 0. -1.
         13    1    3    3    0    0 -0.13039573282E+02 -0.28908409783E+02  0.28307382727E+01  0.31839279306E+02  0.00000000000E+00 0.  1.
          1    1    1    2  501    0  0.17999609583E+03  0.85489362830E+02  0.11393816581E+03  0.22954069639E+03  0.00000000000E+00 0. -1.
<scales pt_clust_5="13000.00000" pt_clust_6="13000.00000" pt_clust_7="13000.00000" pt_clust_8="13000.00000" pt_clust_9="13000.00000"></scales>
<clustering>
<clus scale="   90.713">  7  8 -1 -1</clus>
<clus scale="   92.385">  5  6 -1 -1</clus>
<clus scale="  106.439">  2  7  1 -1</clus>
<clus scale="  196.182">  5  9 -1 -1</clus>
<clus scale="  576.883">  1  5  2 -1</clus>
</clustering>
</event>
<event>
 9    1  0.3312826E-006  0.3911988E+03  0.7546771E-02  0.1062261E+00
         21   -1    0    0  501  502  0.00000000000E+00  0.00000000000E+00  0.22659214902E+03  0.22659214902E+03  0.00000000000E+00 0.  1.
         -2   -1    0    0    0  501 -0.00000000000E+00 -0.00000000000E+00 -0.48653597025E+03  0.48653597025E+03  0.00000000000E+00 0.  1.
         23    2    1    2    0    0 -0.22011313346E+03 -0.87854251427E+02 -0.18812255959E+03  0.31539099541E+03  0.88956290069E+02 0.  0.
         23    2    1    2    0    0  0.13550681560E+03  0.66306668032E+02 -0.18382616435E+03  0.25572435822E+03  0.94043699355E+02 0.  0.
        -11    1    3    3    0    0 -0.37782824735E+02 -0.53327519758E+02 -0.31458002909E+02  0.72532559279E+02  0.00000000000E+00 0. -1.
         11    1    3    3    0    0 -0.18233030872E+03 -0.34526731669E+02 -0.15666455668E+03  0.24285843613E+03  0.00000000000E+00 0.  1.
        -11    1    4    4    0    0  0.11377058976E+03  0.20469857940E+02 -0.81267771785E+02  0.14130538882E+03  0.00000000000E+00 0.  1.
         11    1    4    4    0    0  0.21736225837E+02  0.45836810092E+02 -0.10255839257E+03  0.11441896940E+03  0.00000000000E+00 0. -1.
         -2    1    1    2    0  502  0.84606317860E+02  0.21547583395E+02  0.11200490272E+03  0.14201276564E+03  0.00000000000E+00 0.  1.
<scales pt_clust_5="13000.00000" pt_clust_6="13000.00000" pt_clust_7="13000.00000" pt_clust_8="13000.00000" pt_clust_9="13000.00000"></scales>
<clustering>
<clus scale="   88.956">  5  6 -1 -1</clus>
<clus scale="   94.044">  7  8 -1 -1</clus>
<clus scale="   87.307">  7  9 -1 -1</clus>
<clus scale="  253.143">  2  5  1 -1</clus>
<clus scale="  391.199">  1  5  2 -1</clus>
</clustering>
</event>
<event>
 9    1  0.3312826E-006  0.2398482E+03  0.7546771E-02  0.1152381E+00
         21   -1    0    0  501  502  0.00000000000E+00  0.00000000000E+00  0.62826516650E+03  0.62826516650E+03  0.00000000000E+00 0.  1.
          1   -1    0    0  502    0 -0.00000000000E+00 -0.00000000000E+00 -0.11288801317E+03  0.11288801317E+03  0.00000000000E+00 0. -1.
         23    2    1    2    0    0  0.24934517152E+02  0.53710077647E+02 -0.55266025753E+02  0.12215332680E+03  0.91436311492E+02 0.  0.
         23    2    1    2    0    0 -0.10035171880E+03  0.90624051136E+01  0.24914215396E+03  0.28285844206E+03  0.88229760934E+02 0.  0.
        -11    1    4    4    0    0 -0.69067939342E+02 -0.11874584243E+02  0.67308048129E+02  0.97168715844E+02  0.00000000000E+00 0. -1.
         11    1    4    4    0    0 -0.31283779461E+02  0.20936989357E+02  0.18183410583E+03  0.18568972622E+03  0.00000000000E+00 0.  1.
        -13    1    3    3    0    0 -0.18323166098E+02 -0.17658855415E+02 -0.14208495037E+02  0.29145409959E+02  0.00000000000E+00 0.  1.
         13    1    3    3    0    0  0.43257683250E+02  0.71368933063E+02 -0.41057530716E+02  0.93007916841E+02  0.00000000000E+00 0. -1.
          1    1    1    2  501    0  0.75417201651E+02 -0.62772482761E+02  0.32150102513E+03  0.33614141080E+03  0.00000000000E+00 0. -1.
<scales pt_clust_5="13000.00000" pt_clust_6="13000.00000" pt_clust_7="13000.00000" pt_clust_8="13000.00000" pt_clust_9="13000.00000"></scales>
<clustering>
<clus scale="   88.230">  5  6 -1 -1</clus>
<clus scale="   91.436">  7  8 -1 -1</clus>
<clus scale="   98.123">  5  9 -1 -1</clus>
<clus scale="  108.936">  2  7  1 -1</clus>
<clus scale="  239.848">  1  5  2 -1</clus>
</clustering>
</event>
<event>
 9    1  0.3312826E-006  0.4894033E+03  0.7546771E-02  0.1060231E+00
          1   -1    0    0  502    0 -0.00000000000E+00  0.00000000000E+00  0.20603955504E+03  0.20603955504E+03  0.00000000000E+00 0. -1.
         21   -1    0    0  501  502  0.00000000000E+00 -0.00000000000E+00 -0.48040968789E+03  0.48040968789E+03  0.00000000000E+00 0.  1.
         23    2    1    2    0    0 -0.85780572597E+02 -0.55262951823E+02 -0.88434144710E+02  0.16291533067E+03  0.91151009527E+02 0.  0.
         23    2    1    2    0    0 -0.72011574339E+02 -0.70098015942E+02  0.10254311977E+03  0.17163345819E+03  0.94040171621E+02 0.  0.
        -11    1    4    4    0    0  0.33073075408E+01 -0.61438518627E+02  0.51506645799E+02  0.80240665599E+02  0.00000000000E+00 0. -1.
         11    1    4    4    0    0 -0.75318881880E+02 -0.86594973156E+01  0.51036473975E+02  0.91392792589E+02  0.00000000000E+00 0.  1.
        -13    1    3    3    0    0 -0.32974273145E+02 -0.29253780802E+02 -0.93966273134E+02  0.10379184393E+03  0.00000000000E+00 0.  1.
         13    1    3    3    0    0 -0.52806299452E+02 -0.26009171021E+02  0.55321284238E+01  0.59123486737E+02  0.00000000000E+00 0. -1.
          1    1    1    2  501    0  0.15779214694E+03  0.12536096777E+03 -0.28847910791E+03  0.35190045407E+03  0.00000000000E+00 0. -1.
<scales pt_clust_5="13000.00000" pt_clust_6="13000.00000" pt_clust_7="13000.00000" pt_clust_8="13000.00000" pt_clust_9="13000.00000"></scales>
<clustering>
<clus scale="   91.151">  7  8 -1 -1</clus>
<clus scale="   94.040">  5  6 -1 -1</clus>
<clus scale="  136.824">  1  7  2 -1</clus>
<clus scale="  182.463">  5  9 -1 -1</clus>
<clus scale="  489.403">  2  5  1 -1</clus>
</clustering>
</event>
<event>
 9    1  0.3312826E-006  0.2050437E+03  0.7546771E-02  0.1160282E+00
         21   -1    0    0  501  502  0.00000000000E+00  0.00000000000E+00  0.11638623994E+03  0.11638623994E+03  0.00000000000E+00 0.  1.
         -1   -1    0    0    0  501 -0.00000000000E+00 -0.00000000000E+00 -0.26305649286E+03  0.26305649286E+03  0.00000000000E+00 0.  1.
         23    2    1    2    0    0  0.10894846676E+03 -0.28000350173E+02 -0.59217316046E+02  0.15652811161E+03  0.91326727662E+02 0.  0.
         23    2    1    2    0    0 -0.66817268944E+02 -0.41956988989E+02 -0.68450114397E+02  0.13906848595E+03  0.91813339281E+02 0.  0.
        -11    1    3    3    0    0  0.38430460100E+02  0.33535161372E+02 -0.25716333520E+02  0.57121249299E+02  0.00000000000E+00 0. -1.
         11    1    3    3    0    0  0.70518006661E+02 -0.61535511545E+02 -0.33500982526E+02  0.99406862312E+02  0.00000000000E+00 0.  1.
        -13    1    4    4    0    0 -0.88184119499E+02 -0.45703139781E+02 -0.54798798275E+02  0.11343775478E+03  0.00000000000E+00 0.  1.
         13    1    4    4    0    0  0.21366850556E+02  0.37461507922E+01 -0.13651316122E+02  0.25630731170E+02  0.00000000000E+00 0. -1.
         -1    1    1    2    0  502 -0.42131197816E+02  0.69957339162E+02 -0.19002822474E+02  0.83846135236E+02  0.00000000000E+00 0.  1.
<scales pt_clust_5="13000.00000" pt_clust_6="13000.00000" pt_clust_7="13000.00000" pt_clust_8="13000.00000" pt_clust_9="13000.00000"></scales>
<clustering>
<clus scale="   91.327">  5  6 -1 -1</clus>
<clus scale="   91.813">  7  8 -1 -1</clus>
<clus scale="   81.664">  7  9 -1 -1</clus>
<clus scale="  144.894">  2  5  1 -1</clus>
<clus scale="  205.044">  1  5  2 -1</clus>
</clustering>
</event>
<event>
 9    1  0.3312826E-006  0.2071031E+03  0.7546771E-02  0.1165249E+00
          1   -1    0    0  502    0 -0.00000000000E+00  0.00000000000E+00  0.10929448250E+04  0.10929448250E+04  0.00000000000E+00 0. -1.
         21   -1    0    0  501  502  0.00000000000E+00 -0.00000000000E+00 -0.25438424905E+02  0.25438424905E+02  0.00000000000E+00 0.  1.
         23    2    1    2    0    0  0.25450612502E+02  0.81181465018E+02  0.36026953805E+03  0.38144657442E+03  0.92028175860E+02 0.  0.
         23    2    1    2    0    0 -0.73757485476E+01 -0.93076017512E+02  0.70355444930E+03  0.71498807074E+03  0.86611381879E+02 0.  0.
        -13    1    4    4    0    0 -0.28010804140E+02  0.37262916609E+01  0.14375071287E+03  0.14650173326E+03  0.00000000000E+00 0. -1.
         13    1    4    4    0    0  0.20635055592E+02 -0.96802309173E+02  0.55980373643E+03  0.56848633748E+03  0.00000000000E+00 0.  1.
        -13    1    3    3    0    0  0.46497273524E+02  0.12883614577E+02  0.92798857018E+02  0.10459259932E+03  0.00000000000E+00 0.  1.
         13    1    3    3    0    0 -0.21046661022E+02  0.68297850441E+02  0.26747068103E+03  0.27685397510E+03  0.00000000000E+00 0. -1.
          1    1    1    2  501    0 -0.18074863954E+02  0.11894552494E+02  0.36824127332E+01  0.21948604729E+02  0.00000000000E+00 0. -1.
<scales pt_clust_5="13000.00000" pt_clust_6="13000.00000" pt_clust_7="13000.00000" pt_clust_8="13000.00000" pt_clust_9="13000.00000"></scales>
<clustering>
<clus scale="   86.611">  5  6 -1 -1</clus>
<clus scale="   21.638">  5  9 -1 -1</clus>
<clus scale="   92.028">  7  8 -1 -1</clus>
<clus scale="  125.329">  1  7  2 -1</clus>
<clus scale="  207.103">  2  5  1 -1</clus>
</clustering>
</event>
<event>
 9    1  0.3312826E-006  0.1650139E+03  0.7546771E-02  0.1201009E+00
          2   -1    0    0  502    0 -0.00000000000E+00  0.00000000000E+00  0.69633810615E+03  0.69633810615E+03  0.00000000000E+00 0. -1.
         21   -1    0    0  501  502  0.00000000000E+00 -0.00000000000E+00 -0.28361827325E+02  0.28361827325E+02  0.00000000000E+00 0.  1.
         23    2    1    2    0    0 -0.59523790721E+02 -0.17037828988E+02  0.20663706465E+03  0.23473721436E+03  0.92570589507E+02 0.  0.
         23    2    1    2    0    0  0.89129500058E+00 -0.13971124873E+02  0.28216622370E+03  0.29890700658E+03  0.97630087832E+02 0.  0.
        -11    1    3    3    0    0 -0.39105428393E+02 -0.53007881651E+02  0.15611959077E+03  0.16944732712E+03  0.00000000000E+00 0.  1.
         11    1    3    3    0    0 -0.20418362328E+02  0.35970052663E+02  0.50517473883E+02  0.65289887243E+02  0.00000000000E+00 0. -1.
        -13    1    4    4    0    0  0.41262740502E+02 -0.32084980633E+02  0.18296180576E+03  0.19028158635E+03  0.00000000000E+00 0. -1.
         13    1    4    4    0    0 -0.40371445501E+02  0.18113855761E+02  0.99204417933E+02  0.10862542023E+03  0.00000000000E+00 0.  1.
          2    1    1    2  501    0  0.58632495720E+02  0.31008953861E+02  0.17917299047E+03  0.19105571253E+03  0.00000000000E+00 0. -1.
<scales pt_clust_5="13000.00000" pt_clust_6="13000.00000" pt_clust_7="13000.00000" pt_clust_8="13000.00000" pt_clust_9="13000.00000"></scales>
<clustering>
<clus scale="   92.571">  5  6 -1 -1</clus>
<clus scale="   97.630">  7  8 -1 -1</clus>
<clus scale="   66.327">  7  9 -1 -1</clus>
<clus scale="  111.367">  1  5  2 -1</clus>
<clus scale="  165.014">  2  5  1 -1</clus>
</clustering>
</event>
<event>
 9    1  0.3312826E-006  0.2671515E+03  0.7546771E-02  0.1142335E+00
         21   -1    0    0  501  502  0.00000000000E+00  0.00000000000E+00  0.18870263020E+03  0.18870263020E+03  0.00000000000E+00 0.  1.
          3   -1    0    0  502    0 -0.00000000000E+00 -0.00000000000E+00 -0.21352926741E+03  0.21352926741E+03  0.00000000000E+00 0. -1.
         23    2    1    2    0    0  0.25195416885E+02  0.16996121094E+02  0.66154971098E+02  0.12001289680E+03  0.95409318377E+02 0.  0.
         23    2    1    2    0    0  0.35539947535E+02 -0.71582713539E+00 -0.16075016079E+03  0.18829624862E+03  0.91385243728E+02 0.  0.
        -11    1    3    3    0    0  0.48377448110E+02 -0.21844246788E+02  0.24269468952E+02  0.58365706768E+02  0.00000000000E+00 0. -1.
         11    1    3    3    0    0 -0.23182031224E+02  0.38840367882E+02  0.41885502146E+02  0.61647190032E+02  0.00000000000E+00 0.  1.
        -13    1    4    4    0    0 -0.27649441874E+02 -0.15659466712E+02 -0.68206679818E+02  0.75245343414E+02  0.00000000000E+00 0.  1.
         13    1    4    4    0    0  0.63189389409E+02  0.14943639576E+02 -0.92543480974E+02  0.11305090521E+03  0.00000000000E+00 0. -1.
          3    1    1    2  501    0 -0.60735364420E+02 -0.16280293958E+02  0.69768552479E+02  0.93922752183E+02  0.00000000000E+00 0. -1.
<scales pt_clust_5="13000.00000" pt_clust_6="13000.00000" pt_clust_7="13000.00000" pt_clust_8="13000.00000" pt_clust_9="13000.00000"></scales>
<clustering>
<clus scale="   91.385">  7  8 -1 -1</clus>
<clus scale="   62.880">  7  9 -1 -1</clus>
<clus scale="   95.409">  5  6 -1 -1</clus>
<clus scale="  100.133">  2  5  1 -1</clus>
<clus scale="  267.151">  1  5  2 -1</clus>
</clustering>
</event>
<event>
 9    1  0.3312826E-006  0.2867217E+03  0.7546771E-02  0.1130935E+00
          4   -1    0    0  502    0 -0.00000000000E+00  0.00000000000E+00  0.14425666116E+03  0.14425666116E+03  0.00000000000E+00 0. -1.
         21   -1    0    0  501  502  0.00000000000E+00 -0.00000000000E+00 -0.34067803577E+03  0.34067803577E+03  0.00000000000E+00 0. -1.
         23    2    1    2    0    0 -0.21559046819E+02  0.50862423180E+02  0.39241928513E+02  0.11379247363E+03  0.91416735394E+02 0.  0.
         23    2    1    2    0    0 -0.11277351405E+02 -0.41496593024E+02  0.25976349132E+02  0.10728382290E+03  0.94793997993E+02 0.  0.
        -11    1    4    4    0    0 -0.44095766677E+02  0.21832156024E+01  0.28569748153E+02  0.52587389922E+02  0.00000000000E+00 0.  1.
         11    1    4    4    0    0  0.32818415272E+02 -0.43679808626E+02 -0.25933990212E+01  0.54696432983E+02  0.00000000000E+00 0. -1.
        -13    1    3    3    0    0  0.21173977736E+02 -0.27496513986E+01 -0.15230811715E+02  0.26227381521E+02  0.00000000000E+00 0.  1.
         13    1    3    3    0    0 -0.42733024555E+02  0.53612074579E+02  0.54472740228E+02  0.87565092110E+02  0.00000000000E+00 0. -1.
          4    1    1    2  501    0  0.32836398225E+02 -0.93658301568E+01 -0.26163965226E+03  0.26385840039E+03  0.00000000000E+00 0. -1.
<scales pt_clust_5="13000.00000" pt_clust_6="13000.00000" pt_clust_7="13000.00000" pt_clust_8="13000.00000" pt_clust_9="13000.00000"></scales>
<clustering>
<clus scale="   91.417">  7  8 -1 -1</clus>
<clus scale="   94.794">  5  6 -1 -1</clus>
<clus scale="   34.146">  5  9 -1 -1</clus>
<clus scale="  106.812">  1  7  2 -1</clus>
<clus scale="  286.722">  2  5  1 -1</clus>
</clustering>
</event>
<event>
 9    1  0.3312826E-006  0.1499760E+03  0.7546771E-02  0.1220849E+00
         -1   -1    0    0    0  501 -0.00000000000E+00  0.00000000000E+00  0.34375583109E+03  0.34375583109E+03  0.00000000000E+00 0.  1.
         21   -1    0    0  501  502  0.00000000000E+00 -0.00000000000E+00 -0.11524963616E+03  0.11524963616E+03  0.00000000000E+00 0. -1.
         23    2    1    2    0    0  0.27011384788E+02 -0.18880065657E+02  0.28316963144E+03  0.29937809693E+03  0.91411886320E+02 0.  0.
         23    2    1    2    0    0 -0.71854074490E+01 -0.28654089512E+01  0.57057104750E+01  0.92468089869E+02  0.91967123818E+02 0.  0.
        -13    1    4    4    0    0  0.41822267605E+02  0.45221285415E+01 -0.28969245767E+01  0.42165671893E+02  0.00000000000E+00 0. -1.
         13    1    4    4    0    0 -0.49007675054E+02 -0.73875374927E+01  0.86026350517E+01  0.50302417976E+02  0.00000000000E+00 0.  1.
        -13    1    3    3    0    0  0.45942482743E+02  0.21571949893E+02  0.17855419715E+03  0.18562775132E+03  0.00000000000E+00 0. -1.
         13    1    3    3    0    0 -0.18931097955E+02 -0.40452015549E+02  0.10461543429E+03  0.11375034560E+03  0.00000000000E+00 0.  1.
         -1    1    1    2    0  502 -0.19825977339E+02  0.21745474608E+02 -0.60369146987E+02  0.67159280456E+02  0.00000000000E+00 0.  1.
<scales pt_clust_5="13000.00000" pt_clust_6="13000.00000" pt_clust_7="13000.00000" pt_clust_8="13000.00000" pt_clust_9="13000.00000"></scales>
<clustering>
<clus scale="   91.412">  7  8 -1 -1</clus>
<clus scale="   91.967">  5  6 -1 -1</clus>
<clus scale="   29.427">  5  9 -1 -1</clus>
<clus scale="   97.171">  1  7  2 -1</clus>
<clus scale="  149.976">  2  5  1 -1</clus>
</clustering>
</event>
<event>
 9    1  0.3312826E-006  0.2235530E+03  0.7546771E-02  0.1166270E+00
         21   -1    0    0  501  502  0.00000000000E+00  0.00000000000E+00  0.12409813373E+03  0.12409813373E+03  0.00000000000E+00 0. -1.
          1   -1    0    0  502    0 -0.00000000000E+00 -0.00000000000E+00 -0.21884685056E+03  0.21884685056E+03  0.00000000000E+00 0. -1.
         23    2    1    2    0    0 -0.22513390266E+02  0.25711683374E+02 -0.65887943749E+02  0.11753671119E+03  0.91135689729E+02 0.  0.
         23    2    1    2    0    0  0.77873505172E+02  0.10123192011E+02  0.38768487915E+02  0.13094877088E+03  0.97354111954E+02 0.  0.
        -11    1    4    4    0    0 -0.48018798977E+01 -0.20913196382E+02  0.36822601210E+02  0.42618350430E+02  0.00000000000E+00 0.  1.
         11    1    4    4    0    0  0.82675385070E+02  0.31036388393E+02  0.19458867043E+01  0.88330420445E+02  0.00000000000E+00 0. -1.
        -13    1    3    3    0    0  0.28605506699E+02  0.28581637621E+02 -0.49202053758E+02  0.63686946202E+02  0.00000000000E+00 0.  1.
         13    1    3    3    0    0 -0.51118896965E+02 -0.28699542470E+01 -0.16685889991E+02  0.53849764987E+02  0.00000000000E+00 0. -1.
          1    1    1    2  501    0 -0.55360114906E+02 -0.35834875385E+02 -0.67629260999E+02  0.94459502220E+02  0.00000000000E+00 0. -1.
<scales pt_clust_5="13000.00000" pt_clust_6="13000.00000" pt_clust_7="13000.00000" pt_clust_8="13000.00000" pt_clust_9="13000.00000"></scales>
<clustering>
<clus scale="   91.136">  7  8 -1 -1</clus>
<clus scale="   97.333">  2  7  1 -1</clus>
<clus scale="   97.354">  5  6 -1 -1</clus>
<clus scale="   72.373">  5  9 -1 -1</clus>
<clus scale="  223.553">  1  5  2 -1</clus>
</clustering>
</event>
<event>
 9    1  0.3312826E-006  0.1844467E+03  0.7546771E-02  0.1193410E+00
         21   -1    0    0  501  502  0.00000000000E+00  0.00000000000E+00  0.75014906339E+02  0.75014906339E+02  0.00000000000E+00 0. -1.
          2   -1    0    0  502    0 -0.00000000000E+00 -0.00000000000E+00 -0.41165275874E+03  0.41165275874E+03  0.00000000000E+00 0. -1.
         23    2    1    2    0    0 -0.61131970968E+01  0.12087520738E+01 -0.27741018790E+03  0.29294494159E+03  0.93922809753E+02 0.  0.
         23    2    1    2    0    0 -0.15723190814E+02  0.27221205219E+01 -0.10709358119E+03  0.14096454330E+03  0.90262609468E+02 0.  0.
        -11    1    4    4    0    0  0.12445432062E+01 -0.29267169172E+02 -0.99821236663E+02  0.10403074242E+03  0.00000000000E+00 0. -1.
         11    1    4    4    0    0 -0.16967734020E+02  0.31989289694E+02 -0.72723445225E+01  0.36933800885E+02  0.00000000000E+00 0.  1.
        -11    1    3    3    0    0 -0.21931743113E+02 -0.40865573768E+02 -0.17620867470E+03  0.18221002584E+03  0.00000000000E+00 0. -1.
         11    1    3    3    0    0  0.15818546017E+02  0.42074325842E+02 -0.10120151320E+03  0.11073491576E+03  0.00000000000E+00 0.  1.
          2    1    1    2  501    0  0.21836387911E+02 -0.39308725957E+01  0.47865916686E+02  0.52758180186E+02  0.00000000000E+00 0. -1.
<scales pt_clust_5="13000.00000" pt_clust_6="13000.00000" pt_clust_7="13000.00000" pt_clust_8="13000.00000" pt_clust_9="13000.00000"></scales>
<clustering>
<clus scale="   90.263">  5  6 -1 -1</clus>
<clus scale="   22.187">  5  9 -1 -1</clus>
<clus scale="   93.923">  7  8 -1 -1</clus>
<clus scale="   94.129">  2  7  1 -1</clus>
<clus scale="  184.447">  1  5  2 -1</clus>
</clustering>
</event>
<event>
 9    1  0.3312826E-006  0.1468566E+03  0.7546771E-02  0.1222099E+00
         21   -1    0    0  501  502  0.00000000000E+00  0.00000000000E+00  0.10845225794E+03  0.10845225794E+03  0.00000000000E+00 0.  1.
          3   -1    0    0  502    0 -0.00000000000E+00 -0.00000000000E+00 -0.25091606698E+03  0.25091606698E+03  0.00000000000E+00 0. -1.
         23    2    1    2    0    0  0.19263379712E+01  0.38907409723E+02 -0.18131382117E+03  0.20745986022E+03  0.92991368136E+02 0.  0.
         23    2    1    2    0    0 -0.20577265599E+02 -0.62869447581E+02  0.46330611254E+02  0.12063554154E+03  0.89612594229E+02 0.  0.
        -11    1    3    3    0    0  0.10784717741E+02 -0.27474139319E+02 -0.30486797235E+02  0.42433280261E+02  0.00000000000E+00 0.  1.
         11    1    3    3    0    0 -0.88583797700E+01  0.66381549042E+02 -0.15082702393E+03  0.16502657996E+03  0.00000000000E+00 0. -1.
        -11    1    4    4    0    0  0.75429198844E+01 -0.61008086880E+02  0.62894456010E+02  0.87946545708E+02  0.00000000000E+00 0.  1.
         11    1    4    4    0    0 -0.28120185484E+02 -0.18613607006E+01 -0.16563844756E+02  0.32688995831E+02  0.00000000000E+00 0. -1.
          3    1    1    2  501    0  0.18650927628E+02  0.23962037858E+02 -0.74805991200E+01  0.31272923159E+02  0.00000000000E+00 0. -1.
<scales pt_clust_5="13000.00000" pt_clust_6="13000.00000" pt_clust_7="13000.00000" pt_clust_8="13000.00000" pt_clust_9="13000.00000"></scales>
<clustering>
<clus scale="   89.613">  7  8 -1 -1</clus>
<clus scale="   30.365">  7  9 -1 -1</clus>
<clus scale="   92.991">  5  6 -1 -1</clus>
<clus scale="  100.821">  2  5  1 -1</clus>
<clus scale="  146.857">  1  5  2 -1</clus>
</clustering>
</event>
<event>
 9    1  0.3312826E-006  0.3809395E+03  0.7546771E-02  0.1084060E+00
         -2   -1    0    0    0  501 -0.00000000000E+00  0.00000000000E+00  0.62589356795E+03  0.62589356795E+03  0.00000000000E+00 0.  1.
         21   -1    0    0  501  502  0.00000000000E+00 -0.00000000000E+00 -0.11346321590E+03  0.11346321590E+03  0.00000000000E+00 0.  1.
         23    2    1    2    0    0  0.46088673906E+02 -0.11036979355E+03  0.16442556401E+03  0.22338952232E+03  0.92528132988E+02 0.  0.
         23    2    1    2    0    0  0.32046458772E+02  0.61947946905E+02  0.39550621682E+03  0.41249668634E+03  0.94147889272E+02 0.  0.
        -11    1    4    4    0    0 -0.32403101829E+02  0.33584896251E+02  0.16541545774E+03  0.17187256885E+03  0.00000000000E+00 0. -1.
         11    1    4    4    0    0  0.64449560601E+02  0.28363050654E+02  0.23009075908E+03  0.24062411749E+03  0.00000000000E+00 0.  1.
        -13    1    3    3    0    0  0.38401034084E+02  0.25676836268E+00  0.58887812428E+02  0.70302772359E+02  0.00000000000E+00 0. -1.
         13    1    3    3    0    0  0.76876398214E+01 -0.11062656191E+03  0.10553775158E+03  0.15308674997E+03  0.00000000000E+00 0.  1.
         -2    1    1    2    0  502 -0.78135132678E+02  0.48421846644E+02 -0.47501428778E+02  0.10347057517E+03  0.00000000000E+00 0.  1.
<scales pt_clust_5="13000.00000" pt_clust_6="13000.00000" pt_clust_7="13000.00000" pt_clust_8="13000.00000" pt_clust_9="13000.00000"></scales>
<clustering>
<clus scale="   92.528">  7  8 -1 -1</clus>
<clus scale="   94.148">  5  6 -1 -1</clus>
<clus scale="   91.923">  5  9 -1 -1</clus>
<clus scale="  151.219">  1  7  2 -1</clus>
<clus scale="  380.939">  2  5  1 -1</clus>
</clustering>
</event>
<event>
 9    1  0.3312826E-006  0.1387174E+03  0.7546771E-02  0.1231319E+00
         21   -1    0    0  501  502  0.00000000000E+00  0.00000000000E+00  0.10674164475E+03  0.10674164475E+03  0.00000000000E+00 0.  1.
          1   -1    0    0  502    0 -0.00000000000E+00 -0.00000000000E+00 -0.13820105634E+03  0.13820105634E+03  0.00000000000E+00 0. -1.
         23    2    1    2    0    0  0.25121256736E+02 -0.28510900774E+02  0.12152553006E+02  0.99531154875E+02  0.91185619718E+02 0.  0.
         23    2    1    2    0    0  0.11168950438E+02  0.38780430326E+02 -0.28034754365E+02  0.10460600918E+03  0.92346101565E+02 0.  0.
        -11    1    4    4    0    0 -0.29988368914E+02  0.48238834040E+02 -0.64095018579E+01  0.57160905291E+02  0.00000000000E+00 0.  1.
         11    1    4    4    0    0  0.41157319352E+02 -0.94584037142E+01 -0.21625252507E+02  0.47445103889E+02  0.00000000000E+00 0. -1.
        -13    1    3    3    0    0 -0.31197369991E+02 -0.20563768091E+02 -0.96958786912E+01  0.38602519556E+02  0.00000000000E+00 0. -1.
         13    1    3    3    0    0  0.56318626727E+02 -0.79471326835E+01  0.21848431697E+02  0.60928635320E+02  0.00000000000E+00 0.  1.
          1    1    1    2  501    0 -0.36290207173E+02 -0.10269529552E+02 -0.15577210229E+02  0.40805537031E+02  0.00000000000E+00 0. -1.
<scales pt_clust_5="13000.00000" pt_clust_6="13000.00000" pt_clust_7="13000.00000" pt_clust_8="13000.00000" pt_clust_9="13000.00000"></scales>
<clustering>
<clus scale="   91.186">  7  8 -1 -1</clus>
<clus scale="   92.346">  5  6 -1 -1</clus>
<clus scale="   37.715">  5  9 -1 -1</clus>
<clus scale="   98.787">  2  7  1 -1</clus>
<clus scale="  138.717">  1  5  2 -1</clus>
</clustering>
</event>
<event>
 9    1  0.3312826E-006  0.3018477E+03  0.7546771E-02  0.1125444E+00
          3   -1    0    0  502    0 -0.00000000000E+00  0.00000000000E+00  0.28357947615E+03  0.28357947615E+03  0.00000000000E+00 0. -1.
         21   -1    0    0  501  502  0.00000000000E+00 -0.00000000000E+00 -0.15967596788E+03  0.15967596788E+03  0.00000000000E+00 0.  1.
         23    2    1    2    0    0 -0.33466323600E+02 -0.44728517474E+02  0.92480296443E+02  0.13977655580E+03  0.88680579777E+02 0.  0.
         23    2    1    2    0    0  0.12732964967E+03 -0.49393854233E+02  0.36651859345E+02  0.17045000569E+03  0.95169601893E+02 0.  0.
        -11    1    4    4    0    0  0.33076561395E+02  0.14457900041E+02 -0.22112970154E+02  0.42332885991E+02  0.00000000000E+00 0. -1.
         11    1    4    4    0    0  0.94253088275E+02 -0.63851754274E+02  0.58764829499E+02  0.12811711970E+03  0.00000000000E+00 0.  1.
        -13    1    3    3    0    0  0.14755781274E+01 -0.55911136495E+02  0.85899303375E+02  0.10250328207E+03  0.00000000000E+00 0.  1.
         13    1    3    3    0    0 -0.34941901727E+02  0.11182619021E+02  0.65809930679E+01  0.37273273726E+02  0.00000000000E+00 0. -1.
          3    1    1    2  501    0 -0.93863326070E+02  0.94122371707E+02 -0.52286475247E+01  0.13302888255E+03  0.00000000000E+00 0. -1.
<scales pt_clust_5="13000.00000" pt_clust_6="13000.00000" pt_clust_7="13000.00000" pt_clust_8="13000.00000" pt_clust_9="13000.00000"></scales>
<clustering>
<clus scale="   88.681">  7  8 -1 -1</clus>
<clus scale="   95.170">  5  6 -1 -1</clus>
<clus scale="  104.809">  1  7  2 -1</clus>
<clus scale="  131.560">  5  9 -1 -1</clus>
<clus scale="  301.848">  2  5  1 -1</clus>
</clustering>
</event>
<event>
 9    1  0.3312826E-006  0.3034229E+03  0.7546771E-02  0.1117868E+00
         21   -1    0    0  501  502  0.00000000000E+00  0.00000000000E+00  0.22289609304E+03  0.22289609304E+03  0.00000000000E+00 0. -1.
          4   -1    0    0  502    0 -0.00000000000E+00 -0.00000000000E+00 -0.21559787477E+03  0.21559787477E+03  0.00000000000E+00 0. -1.
         23    2    1    2    0    0 -0.24622875325E+02  0.81457080059E+02 -0.41090790577E+02  0.13123679773E+03  0.91066470930E+02 0.  0.
         23    2    1    2    0    0  0.47029105761E+01 -0.12986221587E+03 -0.73466887903E+02  0.17463469182E+03  0.90628800565E+02 0.  0.
        -11    1    3    3    0    0  0.10338642141E+02  0.60461256340E+02  0.13782909665E+02  0.62868272112E+02  0.00000000000E+00 0.  1.
         11    1    3    3    0    0 -0.34961517466E+02  0.20995823719E+02 -0.54873700242E+02  0.68368525620E+02  0.00000000000E+00 0. -1.
        -13    1    4    4    0    0 -0.42097483068E+02 -0.65766220737E+02 -0.46136165365E+02  0.90696965910E+02  0.00000000000E+00 0. -1.
         13    1    4    4    0    0  0.46800393644E+02 -0.64095995130E+02 -0.27330722538E+02  0.83937725912E+02  0.00000000000E+00 0.  1.
          4    1    1    2  501    0  0.19919964749E+02  0.48405135808E+02  0.12185589675E+03  0.13262247826E+03  0.00000000000E+00 0. -1.
<scales pt_clust_5="13000.00000" pt_clust_6="13000.00000" pt_clust_7="13000.00000" pt_clust_8="13000.00000" pt_clust_9="13000.00000"></scales>
<clustering>
<clus scale="   90.629">  7  8 -1 -1</clus>
<clus scale="   52.344">  7  9 -1 -1</clus>
<clus scale="   91.066">  5  6 -1 -1</clus>
<clus scale="  124.638">  2  5  1 -1</clus>
<clus scale="  303.423">  1  5  2 -1</clus>
</clustering>
</event>
<event>
 9    1  0.3312826E-006  0.4206367E+03  0.7546771E-02  0.1089004E+00
          2   -1    0    0  502    0 -0.00000000000E+00  0.00000000000E+00  0.21231196632E+03  0.21231196632E+03  0.00000000000E+00 0. -1.
         21   -1    0    0  501  502  0.00000000000E+00 -0.00000000000E+00 -0.43561557897E+03  0.43561557897E+03  0.00000000000E+00 0. -1.
         23    2    1    2    0    0 -0.36369561245E+02  0.13543028672E+02  0.82022385807E+02  0.12815911808E+03  0.90503752198E+02 0.  0.
         23    2    1    2    0    0  0.14997380259E+03  0.91500659932E+02 -0.30596734675E+03  0.36504121082E+03  0.93672600494E+02 0.  0.
        -11    1    4    4    0    0  0.89233694235E+02  0.59099256258E+01 -0.10197771846E+03  0.13563566813E+03  0.00000000000E+00 0.  1.
         11    1    4    4    0    0  0.60740108355E+02  0.85590734306E+02 -0.20398962829E+03  0.22940554268E+03  0.00000000000E+00 0. -1.
        -13    1    3    3    0    0  0.19782564707E+02  0.28782014182E+02  0.11579548938E+02  0.36794566995E+02  0.00000000000E+00 0.  1.
         13    1    3    3    0    0 -0.56152125952E+02 -0.15238985509E+02  0.70442836868E+02  0.91364551082E+02  0.00000000000E+00 0. -1.
          2    1    1    2  501    0 -0.11360424135E+03 -0.10504368860E+03  0.64134829121E+00  0.15472721640E+03  0.00000000000E+00 0. -1.
<scales pt_clust_5="13000.00000" pt_clust_6="13000.00000" pt_clust_7="13000.00000" pt_clust_8="13000.00000" pt_clust_9="13000.00000"></scales>
<clustering>
<clus scale="   90.504">  7  8 -1 -1</clus>
<clus scale="   93.673">  5  6 -1 -1</clus>
<clus scale="   98.474">  1  7  2 -1</clus>
<clus scale="  169.282">  5  9 -1 -1</clus>
<clus scale="  420.637">  2  5  1 -1</clus>
</clustering>
</event>
<event>
 9    1  0.3312826E-006  0.2718985E+03  0.7546771E-02  0.1120682E+00
         -3   -1    0    0    0  501 -0.00000000000E+00  0.00000000000E+00  0.83642754455E+03  0.83642754455E+03  0.00000000000E+00 0.  1.
         21   -1    0    0  501  502  0.00000000000E+00 -0.00000000000E+00 -0.56141342571E+02  0.56141342571E+02  0.00000000000E+00 0.  1.
         23    2    1    2    0    0 -0.47837798903E+02 -0.12264208746E+03  0.29854638421E+03  0.33939436543E+03  0.93429412602E+02 0.  0.
         23    2    1    2    0    0  0.11548872066E+03  0.77051352884E+02  0.41923935084E+03  0.45040550564E+03  0.88481244541E+02 0.  0.
        -11    1    3    3    0    0 -0.49298709076E+02 -0.39743939112E+02  0.61528092504E+02  0.88292975824E+02  0.00000000000E+00 0. -1.
         11    1    3    3    0    0  0.14609101727E+01 -0.82898148349E+02  0.23701829171E+03  0.25110138960E+03  0.00000000000E+00 0.  1.
        -13    1    4    4    0    0  0.54196410373E+02 -0.84929571613E+01  0.97252429140E+02  0.11165758457E+03  0.00000000000E+00 0. -1.
         13    1    4    4    0    0  0.61292310292E+02  0.85544310046E+02  0.32198692170E+03  0.33874792107E+03  0.00000000000E+00 0.  1.
         -3    1    1    2    0  502 -0.67650921762E+02  0.45590734577E+02  0.62500466931E+02  0.10276901606E+03  0.00000000000E+00 0.  1.
<scales pt_clust_5="13000.00000" pt_clust_6="13000.00000" pt_clust_7="13000.00000" pt_clust_8="13000.00000" pt_clust_9="13000.00000"></scales>
<clustering>
<clus scale="   88.481">  7  8 -1 -1</clus>
<clus scale="   81.579">  7  9 -1 -1</clus>
<clus scale="   93.429">  5  6 -1 -1</clus>
<clus scale="  161.427">  1  5  2 -1</clus>
<clus scale="  271.899">  2  5  1 -1</clus>
</clustering>
</event>
<event>
 9    1  0.3312826E-006  0.1832332E+03  0.7546771E-02  0.1191478E+00
          1   -1    0    0  502    0 -0.00000000000E+00  0.00000000000E+00  0.59461559570E+03  0.59461559570E+03  0.00000000000E+00 0. -1.
         21   -1    0    0  501  502  0.00000000000E+00 -0.00000000000E+00 -0.39932403359E+02  0.39932403359E+02  0.00000000000E+00 0. -1.
         23    2    1    2    0    0 -0.43289558275E+02 -0.13160958282E+01  0.32862432893E+03  0.34355481562E+03  0.90334067813E+02 0.  0.
         23    2    1    2    0    0  0.42053677693E+02 -0.43390467861E+02  0.22829579851E+03  0.24621363323E+03  0.69648668792E+02 0.  0.
        -11    1    3    3    0    0 -0.65851622108E+02 -0.14239070167E+02  0.28423709092E+03  0.29211283968E+03  0.00000000000E+00 0.  1.
         11    1    3    3    0    0  0.22562063833E+02  0.12922974338E+02  0.44387238013E+02  0.51441975939E+02  0.00000000000E+00 0. -1.
        -13    1    4    4    0    0  0.29787711165E+02  0.13125267739E+02  0.10690661970E+03  0.11175243052E+03  0.00000000000E+00 0.  1.
         13    1    4    4    0    0  0.12265966528E+02 -0.56515735600E+02  0.12138917881E+03  0.13446120272E+03  0.00000000000E+00 0. -1.
          1    1    1    2  501    0  0.12358805826E+01  0.44706563689E+02 -0.22369351003E+01  0.44779550203E+02  0.00000000000E+00 0. -1.
<scales pt_clust_5="13000.00000" pt_clust_6="13000.00000" pt_clust_7="13000.00000" pt_clust_8="13000.00000" pt_clust_9="13000.00000"></scales>
<clustering>
<clus scale="   69.649">  7  8 -1 -1</clus>
<clus scale="   44.724">  7  9 -1 -1</clus>
<clus scale="   90.334">  5  6 -1 -1</clus>
<clus scale="  100.180">  1  5  2 -1</clus>
<clus scale="  183.233">  2  5  1 -1</clus>
</clustering>
</event>
<event>
 9    1  0.3312826E-006  0.3318550E+03  0.7546771E-02  0.1079385E+00
          2   -1    0    0  502    0 -0.00000000000E+00  0.00000000000E+00  0.70367394624E+03  0.70367394624E+03  0.00000000000E+00 0. -1.
         21   -1    0    0  501  502  0.00000000000E+00 -0.00000000000E+00 -0.12430605671E+03  0.12430605671E+03  0.00000000000E+00 0.  1.
         23    2    1    2    0    0 -0.61363717988E+02  0.23418922617E+03  0.26789676764E+03  0.37285147010E+03  0.92948593874E+02 0.  0.
         23    2    1    2    0    0  0.10107251533E+02 -0.28842708022E+02  0.18452433369E+03  0.20832921173E+03  0.91748419052E+02 0.  0.
        -11    1    4    4    0    0  0.19414578697E+02  0.72303785495E+01  0.65910245604E+00  0.20727726745E+02  0.00000000000E+00 0.  1.
         11    1    4    4    0    0 -0.93073271636E+01 -0.36073086572E+02  0.18386523123E+03  0.18760148499E+03  0.00000000000E+00 0. -1.
        -13    1    3    3    0    0  0.23723768575E+02  0.31061185696E+02  0.41631824597E+02  0.57103618725E+02  0.00000000000E+00 0. -1.
         13    1    3    3    0    0 -0.85087486563E+02  0.20312804047E+03  0.22626494304E+03  0.31574785137E+03  0.00000000000E+00 0.  1.
          2    1    1    2  501    0  0.51256466454E+02 -0.20534651815E+03  0.12694678820E+03  0.24679932112E+03  0.00000000000E+00 0. -1.
<scales pt_clust_5="13000.00000" pt_clust_6="13000.00000" pt_clust_7="13000.00000" pt_clust_8="13000.00000" pt_clust_9="13000.00000"></scales>
<clustering>
<clus scale="   91.748">  5  6 -1 -1</clus>
<clus scale="   92.949">  7  8 -1 -1</clus>
<clus scale="  211.647">  5  9 -1 -1</clus>
<clus scale="  259.325">  1  7  2 -1</clus>
<clus scale="  331.855">  2  5  1 -1</clus>
</clustering>
</event>
<event>
 9    1  0.3312826E-006  0.3260428E+03  0.7546771E-02  0.1087203E+00
         21   -1    0    0  501  502  0.00000000000E+00  0.00000000000E+00  0.23893709854E+03  0.23893709854E+03  0.00000000000E+00 0. -1.
          1   -1    0    0  502    0 -0.00000000000E+00 -0.00000000000E+00 -0.33403904964E+03  0.33403904964E+03  0.00000000000E+00 0. -1.
         23    2    1    2    0    0 -0.19586350066E+03  0.53168484972E+02  0.29862327693E+02  0.22380577604E+03  0.89486692247E+02 0.  0.
         23    2    1    2    0    0  0.19926299692E+03  0.46594852934E+02 -0.10632586444E+03  0.24762397557E+03  0.90197680484E+02 0.  0.
        -11    1    4    4    0    0  0.17561039748E+02  0.17011100145E+02  0.13537441213E+02  0.27946913243E+02  0.00000000000E+00 0.  1.
         11    1    4    4    0    0  0.18170195718E+03  0.29583752789E+02 -0.11986330565E+03  0.21967706233E+03  0.00000000000E+00 0. -1.
        -11    1    3    3    0    0 -0.24723066151E+02  0.78025337358E+01  0.38646682781E+02  0.46536820074E+02  0.00000000000E+00 0. -1.
         11    1    3    3    0    0 -0.17114043451E+03  0.45365951236E+02 -0.87843550881E+01  0.17726895597E+03  0.00000000000E+00 0.  1.
          1    1    1    2  501    0 -0.33994962614E+01 -0.99763337906E+02 -0.18638414357E+02  0.10154639656E+03  0.00000000000E+00 0. -1.
<scales pt_clust_5="13000.00000" pt_clust_6="13000.00000" pt_clust_7="13000.00000" pt_clust_8="13000.00000" pt_clust_9="13000.00000"></scales>
<clustering>
<clus scale="   89.487">  7  8 -1 -1</clus>
<clus scale="   90.198">  5  6 -1 -1</clus>
<clus scale="   99.821">  5  9 -1 -1</clus>
<clus scale="  221.805">  2  7  1 -1</clus>
<clus scale="  326.043">  1  5  2 -1</clus>
</clustering>
</event>
<event>
 9    1  0.3312826E-006  0.3086394E+03  0.7546771E-02  0.1127270E+00
          2   -1    0    0  502    0 -0.00000000000E+00  0.00000000000E+00  0.87578924607E+03  0.87578924607E+03  0.00000000000E+00 0. -1.
         21   -1    0    0  501  502  0.00000000000E+00 -0.00000000000E+00 -0.47611666680E+02  0.47611666680E+02  0.00000000000E+00 0.  1.
         23    2    1    2    0    0  0.13326293297E+02  0.15694330455E+02  0.26670886354E+03  0.28269396827E+03  0.91424065218E+02 0.  0.
         23    2    1    2    0    0  0.11587816330E+03  0.67983576867E+01  0.41296354863E+03  0.44258199069E+03  0.10893098544E+03 0.  0.
        -11    1    3    3    0    0  0.41043984342E+02  0.32850931702E+02  0.10157487663E+03  0.11437328328E+03  0.00000000000E+00 0.  1.
         11    1    3    3    0    0 -0.27717691045E+02 -0.17156601247E+02  0.16513398691E+03  0.16832068499E+03  0.00000000000E+00 0. -1.
        -13    1    4    4    0    0  0.11454978649E+03 -0.23953094909E+02  0.37941301034E+03  0.39705117649E+03  0.00000000000E+00 0.  1.
         13    1    4    4    0    0  0.13283768125E+01  0.30751452596E+02  0.33550538291E+02  0.45530814196E+02  0.00000000000E+00 0. -1.
          2    1    1    2  501    0 -0.12920445660E+03 -0.22492688142E+02  0.14850516722E+03  0.19812495380E+03  0.00000000000E+00 0. -1.
<scales pt_clust_5="13000.00000" pt_clust_6="13000.00000" pt_clust_7="13000.00000" pt_clust_8="13000.00000" pt_clust_9="13000.00000"></scales>
<clustering>
<clus scale="   91.424">  5  6 -1 -1</clus>
<clus scale="   93.714">  1  5  2 -1</clus>
<clus scale="  108.931">  7  8 -1 -1</clus>
<clus scale="  126.643">  7  9 -1 -1</clus>
<clus scale="  308.639">  2  5  1 -1</clus>
</clustering>
</event>
<event>
 9    1  0.3312826E-006  0.4354057E+03  0.7546771E-02  0.1077942E+00
          1   -1    0    0  502    0 -0.00000000000E+00  0.00000000000E+00  0.59633006718E+03  0.59633006718E+03  0.00000000000E+00 0. -1.
         21   -1    0    0  501  502  0.00000000000E+00 -0.00000000000E+00 -0.32984087903E+03  0.32984087903E+03  0.00000000000E+00 0. -1.
         23    2    1    2    0    0  0.56522574131E+02  0.51402123823E+02  0.44116652640E+03  0.45703308600E+03  0.91729809576E+02 0.  0.
         23    2    1    2    0    0  0.16509906957E+02 -0.49949612472E+02  0.12345944238E+03  0.16218282596E+03  0.91068624175E+02 0.  0.
        -13    1    3    3    0    0 -0.14712707673E+02  0.20771146702E+02  0.33584397928E+02  0.42140432919E+02  0.00000000000E+00 0.  1.
         13    1    3    3    0    0  0.71235281803E+02  0.30630977122E+02  0.40758212847E+03  0.41489265309E+03  0.00000000000E+00 0. -1.
        -13    1    4    4    0    0 -0.13218060694E+02 -0.68478484902E+02  0.88691293891E+02  0.11282803568E+03  0.00000000000E+00 0.  1.
         13    1    4    4    0    0  0.29727967651E+02  0.18528872430E+02  0.34768148492E+02  0.49354790282E+02  0.00000000000E+00 0. -1.
          1    1    1    2  501    0 -0.73032481088E+02 -0.14525113514E+01 -0.29813678063E+03  0.30695503424E+03  0.00000000000E+00 0. -1.
<scales pt_clust_5="13000.00000" pt_clust_6="13000.00000" pt_clust_7="13000.00000" pt_clust_8="13000.00000" pt_clust_9="13000.00000"></scales>
<clustering>
<clus scale="   91.069">  7  8 -1 -1</clus>
<clus scale="   73.047">  7  9 -1 -1</clus>
<clus scale="   91.730">  5  6 -1 -1</clus>
<clus scale="  119.379">  1  5  2 -1</clus>
<clus scale="  435.406">  2  5  1 -1</clus>
</clustering>
</event>
<event>
 9    1  0.3312826E-006  0.1525127E+03  0.7546771E-02  0.1218821E+00
          2   -1    0    0  502    0 -0.00000000000E+00  0.00000000000E+00  0.33690556067E+03  0.33690556067E+03  0.00000000000E+00 0. -1.
         21   -1    0    0  501  502  0.00000000000E+00 -0.00000000000E+00 -0.53456834009E+02  0.53456834009E+02  0.00000000000E+00 0.  1.
         23    2    1    2    0    0  0.18895357689E+02  0.52707357250E+01  0.18561909702E+03  0.20916980619E+03  0.94407327273E+02 0.  0.
         23    2    1    2    0    0 -0.40685181264E+02 -0.25247395339E+02  0.46267222652E+02  0.12175737036E+03  0.10193864036E+03 0.  0.
        -11    1    4    4    0    0 -0.55173712453E+02 -0.43735651480E-01 -0.12159474304E+02  0.56497728043E+02  0.00000000000E+00 0.  1.
         11    1    4    4    0    0  0.14488531188E+02 -0.25203659687E+02  0.58426696957E+02  0.65259642313E+02  0.00000000000E+00 0. -1.
        -13    1    3    3    0    0  0.55421668331E+02  0.14137390731E+01  0.14016441626E+03  0.15073030075E+03  0.00000000000E+00 0.  1.
         13    1    3    3    0    0 -0.36526310642E+02  0.38569966518E+01  0.45454680767E+02  0.58439505439E+02  0.00000000000E+00 0. -1.
          2    1    1    2  501    0  0.21789823575E+02  0.19976659614E+02  0.51562406983E+02  0.59435218134E+02  0.00000000000E+00 0. -1.
<scales pt_clust_5="13000.00000" pt_clust_6="13000.00000" pt_clust_7="13000.00000" pt_clust_8="13000.00000" pt_clust_9="13000.00000"></scales>
<clustering>
<clus scale="   94.407">  7  8 -1 -1</clus>
<clus scale="   96.424">  1  7  2 -1</clus>
<clus scale="  101.939">  5  6 -1 -1</clus>
<clus scale="   36.689">  5  9 -1 -1</clus>
<clus scale="  152.513">  2  5  1 -1</clus>
</clustering>
</event>
<event>
 9    1  0.3312826E-006  0.5476542E+03  0.7546771E-02  0.1055492E+00
         21   -1    0    0  501  502  0.00000000000E+00  0.00000000000E+00  0.16694973310E+03  0.16694973310E+03  0.00000000000E+00 0. -1.
          1   -1    0    0  502    0 -0.00000000000E+00 -0.00000000000E+00 -0.76716190042E+03  0.76716190042E+03  0.00000000000E+00 0. -1.
         23    2    1    2    0    0  0.54561057499E+02  0.34201726389E+02 -0.27598351995E+03  0.29767680321E+03  0.91092858136E+02 0.  0.
         23    2    1    2    0    0 -0.73387644826E+02  0.10901395083E+02 -0.46904279403E+03  0.48359547337E+03  0.91426759759E+02 0.  0.
        -11    1    4    4    0    0  0.16564718652E+02  0.21474965291E+02 -0.10225018792E+03  0.10578593937E+03  0.00000000000E+00 0.  1.
         11    1    4    4    0    0 -0.89952363479E+02 -0.10573570208E+02 -0.36679260611E+03  0.37780953400E+03  0.00000000000E+00 0. -1.
        -11    1    3    3    0    0 -0.14675853473E+02  0.36852414893E+02 -0.13300876896E+03  0.13879774414E+03  0.00000000000E+00 0. -1.
         11    1    3    3    0    0  0.69236910972E+02 -0.26506885041E+01 -0.14297475099E+03  0.15887905907E+03  0.00000000000E+00 0.  1.
          1    1    1    2  501    0  0.18826587327E+02 -0.45103121472E+02  0.14481414666E+03  0.15283935694E+03  0.00000000000E+00 0. -1.
<scales pt_clust_5="13000.00000" pt_clust_6="13000.00000" pt_clust_7="13000.00000" pt_clust_8="13000.00000" pt_clust_9="13000.00000"></scales>
<clustering>
<clus scale="   91.093">  7  8 -1 -1</clus>
<clus scale="   91.427">  5  6 -1 -1</clus>
<clus scale="   48.875">  5  9 -1 -1</clus>
<clus scale="  111.555">  2  7  1 -1</clus>
<clus scale="  547.654">  1  5  2 -1</clus>
</clustering>
</event>
<event>
 9    1  0.3312826E-006  0.2372282E+03  0.7546771E-02  0.1149804E+00
         21   -1    0    0  501  502  0.00000000000E+00  0.00000000000E+00  0.43596109526E+02  0.43596109526E+02  0.00000000000E+00 0.  1.
          2   -1    0    0  502    0 -0.00000000000E+00 -0.00000000000E+00 -0.73960398075E+03  0.73960398075E+03  0.00000000000E+00 0. -1.
         23    2    1    2    0    0  0.41840302741E+01 -0.74655683264E+02 -0.27608295268E+03  0.30089921098E+03  0.93421417531E+02 0.  0.
         23    2    1    2    0    0  0.67887654154E+02  0.93461788622E+02 -0.35077211558E+03  0.38066374311E+03  0.92303676677E+02 0.  0.
        -13    1    3    3    0    0  0.22793280452E+02  0.13282488224E+02 -0.97011462512E+02  0.10053448158E+03  0.00000000000E+00 0.  1.
         13    1    3    3    0    0 -0.18609250178E+02 -0.87938171489E+02 -0.17907149017E+03  0.20036472940E+03  0.00000000000E+00 0. -1.
        -13    1    4    4    0    0  0.84833818717E+02  0.57883040009E+02 -0.20000782844E+03  0.22483406005E+03  0.00000000000E+00 0.  1.
         13    1    4    4    0    0 -0.16946164563E+02  0.35578748613E+02 -0.15076428714E+03  0.15582968306E+03  0.00000000000E+00 0. -1.
          2    1    1    2  501    0 -0.72071684428E+02 -0.18806105358E+02 -0.69152802955E+02  0.10163713618E+03  0.00000000000E+00 0. -1.
<scales pt_clust_5="13000.00000" pt_clust_6="13000.00000" pt_clust_7="13000.00000" pt_clust_8="13000.00000" pt_clust_9="13000.00000"></scales>
<clustering>
<clus scale="   92.304">  7  8 -1 -1</clus>
<clus scale="   74.485">  7  9 -1 -1</clus>
<clus scale="   93.421">  5  6 -1 -1</clus>
<clus scale="  119.660">  2  5  1 -1</clus>
<clus scale="  237.228">  1  5  2 -1</clus>
</clustering>
</event>
<event>
 9    1  0.3312826E-006  0.2740924E+03  0.7546771E-02  0.1109062E+00
         21   -1    0    0  501  502  0.00000000000E+00  0.00000000000E+00  0.88874466898E+02  0.88874466898E+02  0.00000000000E+00 0. -1.
          2   -1    0    0  502    0 -0.00000000000E+00 -0.00000000000E+00 -0.89589277273E+03  0.89589277273E+03  0.00000000000E+00 0. -1.
         23    2    1    2    0    0 -0.15226468790E+03 -0.11582162130E+03 -0.61451349356E+03  0.64982733888E+03  0.89719303640E+02 0.  0.
         23    2    1    2    0    0 -0.14093489859E+01  0.41484909082E+02 -0.89509496940E+02  0.13556665436E+03  0.92969800403E+02 0.  0.
        -11    1    4    4    0    0  0.31359018807E+02  0.44149494261E+02 -0.87151342759E+02  0.10260566480E+03  0.00000000000E+00 0.  1.
         11    1    4    4    0    0 -0.32768367793E+02 -0.26645851789E+01 -0.23581541806E+01  0.32960989566E+02  0.00000000000E+00 0. -1.
        -13    1    3    3    0    0 -0.95618932535E+02 -0.66633207691E+02 -0.22756370523E+03  0.25567206450E+03  0.00000000000E+00 0. -1.
         13    1    3    3    0    0 -0.56645755361E+02 -0.49188413606E+02 -0.38694978833E+03  0.39415527438E+03  0.00000000000E+00 0.  1.
          2    1    1    2  501    0  0.15367403688E+03  0.74336712214E+02 -0.10299531533E+03  0.19937324639E+03  0.00000000000E+00 0. -1.
<scales pt_clust_5="13000.00000" pt_clust_6="13000.00000" pt_clust_7="13000.00000" pt_clust_8="13000.00000" pt_clust_9="13000.00000"></scales>
<clustering>
<clus scale="   89.719">  7  8 -1 -1</clus>
<clus scale="   92.970">  5  6 -1 -1</clus>
<clus scale="  170.709">  5  9 -1 -1</clus>
<clus scale="  211.302">  2  7  1 -1</clus>
<clus scale="  274.092">  1  5  2 -1</clus>
</clustering>
</event>
<event>
 9    1  0.3312826E-006  0.2873848E+03  0.7546771E-02  0.1119383E+00
         -1   -1    0    0    0  501 -0.00000000000E+00  0.00000000000E+00  0.11820731564E+03  0.11820731564E+03  0.00000000000E+00 0.  1.
         21   -1    0    0  501  502  0.00000000000E+00 -0.00000000000E+00 -0.46507820130E+03  0.46507820130E+03  0.00000000000E+00 0.  1.
         23    2    1    2    0    0  0.21774839333E+01  0.10813807542E+03 -0.11598575014E+02  0.14170023526E+03  0.90806634882E+02 0.  0.
         23    2    1    2    0    0 -0.51763822060E+01 -0.84135353710E+01  0.99906118667E+00  0.90825516603E+02  0.90281193129E+02 0.  0.
        -11    1    4    4    0    0  0.22680169552E+02 -0.33713216068E+02  0.23541775368E+02  0.46959410303E+02  0.00000000000E+00 0. -1.
         11    1    4    4    0    0 -0.27856551758E+02  0.25299680697E+02 -0.22542714181E+02  0.43866106300E+02  0.00000000000E+00 0.  1.
        -13    1    3    3    0    0 -0.29798070992E+02  0.36808751808E+02  0.27007508779E+02  0.54518022478E+02  0.00000000000E+00 0. -1.
         13    1    3    3    0    0  0.31975554925E+02  0.71329323617E+02 -0.38606083793E+02  0.87182212786E+02  0.00000000000E+00 0.  1.
         -1    1    1    2    0  502  0.29988982727E+01 -0.99724540053E+02 -0.33627137183E+03  0.35075976507E+03  0.00000000000E+00 0.  1.
<scales pt_clust_5="13000.00000" pt_clust_6="13000.00000" pt_clust_7="13000.00000" pt_clust_8="13000.00000" pt_clust_9="13000.00000"></scales>
<clustering>
<clus scale="   90.281">  5  6 -1 -1</clus>
<clus scale="   90.807">  7  8 -1 -1</clus>
<clus scale="   99.770">  5  9 -1 -1</clus>
<clus scale="  141.225">  1  7  2 -1</clus>
<clus scale="  287.385">  2  5  1 -1</clus>
</clustering>
</event>
<event>
 9    1  0.3312826E-006  0.1627584E+03  0.7546771E-02  0.1199593E+00
         21   -1    0    0  501  502  0.00000000000E+00  0.00000000000E+00  0.14894294770E+03  0.14894294770E+03  0.00000000000E+00 0.  1.
          1   -1    0    0  502    0 -0.00000000000E+00 -0.00000000000E+00 -0.21020619861E+03  0.21020619861E+03  0.00000000000E+00 0. -1.
         23    2    1    2    0    0 -0.74655794103E+02 -0.20873672308E+02 -0.13504477662E+03  0.18044826395E+03  0.91188192665E+02 0.  0.
         23    2    1    2    0    0  0.62271125020E+02 -0.17981147390E+02  0.24515670213E+02  0.11474619871E+03  0.91458500758E+02 0.  0.
        -11    1    4    4    0    0  0.97033376059E+01 -0.45628276593E+02  0.29417293909E+02  0.55149538225E+02  0.00000000000E+00 0.  1.
         11    1    4    4    0    0  0.52567787414E+02  0.27647129203E+02 -0.49016236953E+01  0.59596660490E+02  0.00000000000E+00 0. -1.
        -11    1    3    3    0    0 -0.46301413073E+02  0.11007916975E+02 -0.12882017223E+03  0.13733037487E+03  0.00000000000E+00 0. -1.
         11    1    3    3    0    0 -0.28354381030E+02 -0.31881589283E+02 -0.62246043885E+01  0.43117889078E+02  0.00000000000E+00 0.  1.
          1    1    1    2  501    0  0.12384669084E+02  0.38854819698E+02  0.49265855494E+02  0.63954683641E+02  0.00000000000E+00 0. -1.
<scales pt_clust_5="13000.00000" pt_clust_6="13000.00000" pt_clust_7="13000.00000" pt_clust_8="13000.00000" pt_clust_9="13000.00000"></scales>
<clustering>
<clus scale="   91.188">  7  8 -1 -1</clus>
<clus scale="   91.459">  5  6 -1 -1</clus>
<clus scale="   40.781">  5  9 -1 -1</clus>
<clus scale="  119.685">  2  7  1 -1</clus>
<clus scale="  162.758">  1  5  2 -1</clus>
</clustering>
</event>
<event>
 9    1  0.3312826E-006  0.3065321E+03  0.7546771E-02  0.1107377E+00
          1   -1    0    0  502    0 -0.00000000000E+00  0.00000000000E+00  0.14785742148E+04  0.14785742148E+04  0.00000000000E+00 0. -1.
         21   -1    0    0  501  502  0.00000000000E+00 -0.00000000000E+00 -0.40905632491E+02  0.40905632491E+02  0.00000000000E+00 0.  1.
         23    2    1    2    0    0 -0.12643183436E+03  0.19218073047E+02  0.75277883413E+03  0.76912268012E+03  0.92300492396E+02 0.  0.
         23    2    1    2    0    0  0.24521639428E+02 -0.10057022810E+03  0.52846151820E+03  0.54670635794E+03  0.94342906501E+02 0.  0.
        -11    1    3    3    0    0 -0.38463329378E+01  0.28119502357E+02  0.73021991820E+02  0.78343550974E+02  0.00000000000E+00 0. -1.
         11    1    3    3    0    0 -0.12258550142E+03 -0.89014293099E+01  0.67975684231E+03  0.69077912915E+03  0.00000000000E+00 0.  1.
        -13    1    4    4    0    0 -0.30007318213E+02 -0.71448503244E+02  0.32164381530E+03  0.33084750518E+03  0.00000000000E+00 0.  1.
         13    1    4    4    0    0  0.54528957642E+02 -0.29121724854E+02  0.20681770290E+03  0.21585885276E+03  0.00000000000E+00 0. -1.
          1    1    1    2  501    0  0.10191019493E+03  0.81352155050E+02  0.15642822993E+03  0.20365080919E+03  0.00000000000E+00 0. -1.
<scales pt_clust_5="13000.00000" pt_clust_6="13000.00000" pt_clust_7="13000.00000" pt_clust_8="13000.00000" pt_clust_9="13000.00000"></scales>
<clustering>
<clus scale="   92.300">  5  6 -1 -1</clus>
<clus scale="   94.343">  7  8 -1 -1</clus>
<clus scale="  130.399">  7  9 -1 -1</clus>
<clus scale="  157.714">  1  5  2 -1</clus>
<clus scale="  306.532">  2  5  1 -1</clus>
</clustering>
</event>
<event>
 9    1  0.3312826E-006  0.2410915E+03  0.7546771E-02  0.1156512E+00
         21   -1    0    0  501  502  0.00000000000E+00  0.00000000000E+00  0.12723705151E+03  0.12723705151E+03  0.00000000000E+00 0. -1.
          1   -1    0    0  502    0 -0.00000000000E+00 -0.00000000000E+00 -0.49550525597E+03  0.49550525597E+03  0.00000000000E+00 0. -1.
         23    2    1    2    0    0 -0.48160217664E+01  0.30468211189E+02 -0.36902945002E+03  0.38164961157E+03  0.92315681602E+02 0.  0.
         23    2    1    2    0    0 -0.17261222150E+01  0.31378809680E+02 -0.92610052281E+02  0.12890511683E+03  0.83977962389E+02 0.  0.
        -11    1    4    4    0    0 -0.44870589246E+01 -0.27184486866E+02 -0.14189284727E+02  0.30991383077E+02  0.00000000000E+00 0.  1.
         11    1    4    4    0    0  0.27609367096E+01  0.58563296547E+02 -0.78420767554E+02  0.97913733754E+02  0.00000000000E+00 0. -1.
        -13    1    3    3    0    0  0.39511879367E+02 -0.40276343200E+01 -0.12147408488E+03  0.12780204907E+03  0.00000000000E+00 0.  1.
         13    1    3    3    0    0 -0.44327901133E+02  0.34495845509E+02 -0.24755536514E+03  0.25384756250E+03  0.00000000000E+00 0. -1.
          1    1    1    2  501    0  0.65421439815E+01 -0.61847020870E+02  0.93371297839E+02  0.11218757907E+03  0.00000000000E+00 0. -1.
<scales pt_clust_5="13000.00000" pt_clust_6="13000.00000" pt_clust_7="13000.00000" pt_clust_8="13000.00000" pt_clust_9="13000.00000"></scales>
<clustering>
<clus scale="   83.978">  5  6 -1 -1</clus>
<clus scale="   62.192">  5  9 -1 -1</clus>
<clus scale="   92.316">  7  8 -1 -1</clus>
<clus scale="   97.333">  2  7  1 -1</clus>
<clus scale="  241.091">  1  5  2 -1</clus>
</clustering>
</event>
<event>
 9    1  0.3312826E-006  0.1888697E+03  0.7546771E-02  0.1179156E+00
         21   -1    0    0  501  502  0.00000000000E+00  0.00000000000E+00  0.13861490252E+03  0.13861490252E+03  0.00000000000E+00 0. -1.
         -4   -1    0    0    0  501 -0.00000000000E+00 -0.00000000000E+00 -0.18237024910E+03  0.18237024910E+03  0.00000000000E+00 0.  1.
         23    2    1    2    0    0 -0.55225240955E+02  0.57655972422E+02 -0.53813473484E+02  0.13184777226E+03  0.90077226461E+02 0.  0.
         23    2    1    2    0    0  0.90192517442E+02 -0.26962083961E+02 -0.22207836605E+02  0.13251655621E+03  0.90585901160E+02 0.  0.
        -11    1    3    3    0    0  0.54321557216E+01  0.49655025551E+02 -0.49797802131E+02  0.70533332371E+02  0.00000000000E+00 0. -1.
         11    1    3    3    0    0 -0.60657396677E+02  0.80009468714E+01 -0.40156713530E+01  0.61314439889E+02  0.00000000000E+00 0.  1.
        -13    1    4    4    0    0  0.93785785113E+02 -0.50558775711E+02 -0.15088176506E+02  0.10760862587E+03  0.00000000000E+00 0. -1.
         13    1    4    4    0    0 -0.35932676702E+01  0.23596691750E+02 -0.71196600985E+01  0.24907930344E+02  0.00000000000E+00 0.  1.
         -4    1    1    2    0  502 -0.34967276487E+02 -0.30693888461E+02  0.32265963504E+02  0.56620823154E+02  0.00000000000E+00 0.  1.
<scales pt_clust_5="13000.00000" pt_clust_6="13000.00000" pt_clust_7="13000.00000" pt_clust_8="13000.00000" pt_clust_9="13000.00000"></scales>
<clustering>
<clus scale="   90.077">  5  6 -1 -1</clus>
<clus scale="   90.586">  7  8 -1 -1</clus>
<clus scale="   46.528">  7  9 -1 -1</clus>
<clus scale="  120.366">  2  5  1 -1</clus>
<clus scale="  188.870">  1  5  2 -1</clus>
</clustering>
</event>
<event>
 9    1  0.3312826E-006  0.4996331E+03  0.7546771E-02  0.1022753E+00
          2   -1    0    0  502    0 -0.00000000000E+00  0.00000000000E+00  0.46857230187E+03  0.46857230187E+03  0.00000000000E+00 0. -1.
         21   -1    0    0  501  502  0.00000000000E+00 -0.00000000000E+00 -0.54457684556E+03  0.54457684556E+03  0.00000000000E+00 0. -1.
         23    2    1    2    0    0 -0.27791790554E+03 -0.24531386417E+03 -0.28022531353E+03  0.47339052636E+03  0.90305647285E+02 0.  0.
         23    2    1    2    0    0  0.13113858140E+03  0.23849493130E+03  0.25426235003E+03  0.38453353423E+03  0.95600923194E+02 0.  0.
        -13    1    4    4    0    0  0.46713190773E+02  0.25413673340E+02  0.82351924461E+02  0.98029671259E+02  0.00000000000E+00 0.  1.
         13    1    4    4    0    0  0.84425390628E+02  0.21308125796E+03  0.17191042557E+03  0.28650386297E+03  0.00000000000E+00 0. -1.
        -13    1    3    3    0    0 -0.13223886136E+03 -0.89988950821E+02 -0.17067664906E+03  0.23391375816E+03  0.00000000000E+00 0.  1.
         13    1    3    3    0    0 -0.14567904417E+03 -0.15532491335E+03 -0.10954866448E+03  0.23947676820E+03  0.00000000000E+00 0. -1.
          2    1    1    2  501    0  0.14677932414E+03  0.68189328689E+01 -0.50041580177E+02  0.15522508685E+03  0.00000000000E+00 0. -1.
<scales pt_clust_5="13000.00000" pt_clust_6="13000.00000" pt_clust_7="13000.00000" pt_clust_8="13000.00000" pt_clust_9="13000.00000"></scales>
<clustering>
<clus scale="   90.306">  7  8 -1 -1</clus>
<clus scale="   95.601">  5  6 -1 -1</clus>
<clus scale="  146.938">  5  9 -1 -1</clus>
<clus scale="  381.540">  1  7  2 -1</clus>
<clus scale="  499.633">  2  5  1 -1</clus>
</clustering>
</event>
<event>
 9    1  0.3312826E-006  0.2830156E+03  0.7546771E-02  0.1136895E+00
         21   -1    0    0  501  502  0.00000000000E+00  0.00000000000E+00  0.43310991701E+03  0.43310991701E+03  0.00000000000E+00 0.  1.
          4   -1    0    0  502    0 -0.00000000000E+00 -0.00000000000E+00 -0.11746808124E+03  0.11746808124E+03  0.00000000000E+00 0. -1.
         23    2    1    2    0    0  0.19127768684E+02 -0.41209732359E+02  0.23869160647E+03  0.25728773497E+03  0.84611949458E+02 0.  0.
         23    2    1    2    0    0  0.10865473260E+03 -0.13543867116E+02  0.56209607625E+02  0.15273245425E+03  0.90434480927E+02 0.  0.
        -11    1    4    4    0    0  0.16829832269E+02 -0.37817576458E+02 -0.18122414944E+01  0.41433037091E+02  0.00000000000E+00 0.  1.
         11    1    4    4    0    0  0.91824900327E+02  0.24273709341E+02  0.58021849119E+02  0.11129941716E+03  0.00000000000E+00 0. -1.
        -11    1    3    3    0    0  0.50965092289E+02 -0.14228799250E+02  0.15471187886E+03  0.16351044254E+03  0.00000000000E+00 0.  1.
         11    1    3    3    0    0 -0.31837323604E+02 -0.26980933109E+02  0.83979727615E+02  0.93777292433E+02  0.00000000000E+00 0. -1.
          4    1    1    2  501    0 -0.12778250128E+03  0.54753599476E+02  0.20740621674E+02  0.14055780902E+03  0.00000000000E+00 0. -1.
<scales pt_clust_5="13000.00000" pt_clust_6="13000.00000" pt_clust_7="13000.00000" pt_clust_8="13000.00000" pt_clust_9="13000.00000"></scales>
<clustering>
<clus scale="   84.612">  7  8 -1 -1</clus>
<clus scale="   90.434">  5  6 -1 -1</clus>
<clus scale="   96.038">  2  7  1 -1</clus>
<clus scale="  121.461">  5  9 -1 -1</clus>
<clus scale="  283.016">  1  5  2 -1</clus>
</clustering>
</event>
<event>
 9    1  0.3312826E-006  0.1946797E+03  0.7546771E-02  0.1185074E+00
          1   -1    0    0  502    0 -0.00000000000E+00  0.00000000000E+00  0.58038654700E+03  0.58038654700E+03  0.00000000000E+00 0. -1.
         21   -1    0    0  501  502  0.00000000000E+00 -0.00000000000E+00 -0.36465744422E+02  0.36465744422E+02  0.00000000000E+00 0.  1.
         23    2    1    2    0    0  0.41273002877E+02 -0.52922701256E+01  0.17711371227E+03  0.20158413009E+03  0.86806828875E+02 0.  0.
         23    2    1    2    0    0 -0.82057346271E+02 -0.14780950442E+02  0.34006659056E+03  0.36252964432E+03  0.93971125474E+02 0.  0.
        -11    1    4    4    0    0 -0.42396805668E+02  0.30072547381E+02  0.24288523705E+03  0.24838495449E+03  0.00000000000E+00 0. -1.
         11    1    4    4    0    0 -0.39660540604E+02 -0.44853497823E+02  0.97181353511E+02  0.11414468984E+03  0.00000000000E+00 0.  1.
        -13    1    3    3    0    0  0.44895222566E+02 -0.38946546298E+02  0.87367455749E+02  0.10566686710E+03  0.00000000000E+00 0.  1.
         13    1    3    3    0    0 -0.36222196893E+01  0.33654276172E+02  0.89746256519E+02  0.95917262989E+02  0.00000000000E+00 0. -1.
          1    1    1    2  501    0  0.40784343394E+02  0.20073220568E+02  0.26740499747E+02  0.52738517013E+02  0.00000000000E+00 0. -1.
<scales pt_clust_5="13000.00000" pt_clust_6="13000.00000" pt_clust_7="13000.00000" pt_clust_8="13000.00000" pt_clust_9="13000.00000"></scales>
<clustering>
<clus scale="   86.807">  7  8 -1 -1</clus>
<clus scale="   93.971">  5  6 -1 -1</clus>
<clus scale="   45.457">  5  9 -1 -1</clus>
<clus scale="   96.265">  1  7  2 -1</clus>
<clus scale="  194.680">  2  5  1 -1</clus>
</clustering>
</event>
<event>
 9    1  0.3312826E-006  0.3358855E+03  0.7546771E-02  0.1116911E+00
         -1   -1    0    0    0  501 -0.00000000000E+00  0.00000000000E+00  0.10376823165E+04  0.10376823165E+04  0.00000000000E+00 0.  1.
         21   -1    0    0  501  502  0.00000000000E+00 -0.00000000000E+00 -0.44550347422E+02  0.44550347422E+02  0.00000000000E+00 0.  1.
         23    2    1    2    0    0  0.55633940997E+01  0.23670169821E+02  0.21341406200E+03  0.23324556393E+03  0.90921410803E+02 0.  0.
         23    2    1    2    0    0 -0.13261821874E+03  0.72241307716E+02  0.40863635408E+03  0.44520069735E+03  0.91725637395E+02 0.  0.
        -11    1    4    4    0    0 -0.66975486567E+02  0.86459218598E+02  0.26229835596E+03  0.28418539692E+03  0.00000000000E+00 0. -1.
         11    1    4    4    0    0 -0.65642732177E+02 -0.14217910882E+02  0.14633799812E+03  0.16101530043E+03  0.00000000000E+00 0.  1.
        -11    1    3    3    0    0 -0.24111469583E+02  0.37518576063E+02  0.18366843533E+03  0.18900555720E+03  0.00000000000E+00 0.  1.
         11    1    3    3    0    0  0.29674863682E+02 -0.13848406242E+02  0.29745626670E+02  0.44240006736E+02  0.00000000000E+00 0. -1.
         -1    1    1    2    0  502  0.12705482464E+03 -0.95911477537E+02  0.37108155304E+03  0.40378640269E+03  0.00000000000E+00 0.  1.
<scales pt_clust_5="13000.00000" pt_clust_6="13000.00000" pt_clust_7="13000.00000" pt_clust_8="13000.00000" pt_clust_9="13000.00000"></scales>
<clustering>
<clus scale="   90.921">  7  8 -1 -1</clus>
<clus scale="   91.726">  5  6 -1 -1</clus>
<clus scale="   94.117">  1  7  2 -1</clus>
<clus scale="  154.881">  5  9 -1 -1</clus>
<clus scale="  335.886">  2  5  1 -1</clus>
</clustering>
</event>
<event>
 9    1  0.3312826E-006  0.2034724E+03  0.7546771E-02  0.1187454E+00
         21   -1    0    0  501  502  0.00000000000E+00  0.00000000000E+00  0.11841885259E+03  0.11841885259E+03  0.00000000000E+00 0.  1.
          2   -1    0    0  502    0 -0.00000000000E+00 -0.00000000000E+00 -0.18483347808E+03  0.18483347808E+03  0.00000000000E+00 0. -1.
         23    2    1    2    0    0  0.11468266232E+02 -0.90431331867E+01  0.19614154811E+02  0.82340659019E+02  0.78625502673E+02 0.  0.
         23    2    1    2    0    0 -0.86475250265E+02  0.19434703704E+02 -0.53941256335E+02  0.13867030988E+03  0.92000647234E+02 0.  0.
        -11    1    4    4    0    0 -0.61173407680E+02 -0.29825958384E+02 -0.11780670572E+02  0.69069224694E+02  0.00000000000E+00 0. -1.
         11    1    4    4    0    0 -0.25301842585E+02  0.49260662087E+02 -0.42160585764E+02  0.69601085189E+02  0.00000000000E+00 0.  1.
        -13    1    3    3    0    0 -0.22396029225E+02 -0.25548203639E+02  0.27669608175E+02  0.43816664076E+02  0.00000000000E+00 0.  1.
         13    1    3    3    0    0  0.33864295457E+02  0.16505070452E+02 -0.80554533646E+01  0.38523994942E+02  0.00000000000E+00 0. -1.
          2    1    1    2  501    0  0.75006984033E+02 -0.10391570517E+02 -0.32087523967E+02  0.82241361770E+02  0.00000000000E+00 0. -1.
<scales pt_clust_5="13000.00000" pt_clust_6="13000.00000" pt_clust_7="13000.00000" pt_clust_8="13000.00000" pt_clust_9="13000.00000"></scales>
<clustering>
<clus scale="   78.626">  7  8 -1 -1</clus>
<clus scale="   79.970">  2  7  1 -1</clus>
<clus scale="   92.001">  5  6 -1 -1</clus>
<clus scale="   80.464">  5  9 -1 -1</clus>
<clus scale="  203.472">  1  5  2 -1</clus>
</clustering>
</event>
<event>
 9    1  0.3312826E-006  0.3250741E+03  0.7546771E-02  0.1107602E+00
          1   -1    0    0  502    0 -0.00000000000E+00  0.00000000000E+00  0.51442434103E+03  0.51442434103E+03  0.00000000000E+00 0. -1.
         21   -1    0    0  501  502  0.00000000000E+00 -0.00000000000E+00 -0.13424781440E+03  0.13424781440E+03  0.00000000000E+00 0. -1.
         23    2    1    2    0    0  0.75064164770E+02 -0.55317952744E+02  0.27865341579E+03  0.30811367155E+03  0.92690904284E+02 0.  0.
         23    2    1    2    0    0 -0.49071729946E+01  0.99259462834E+02 -0.68663414256E+02  0.15130650073E+03  0.91117898327E+02 0.  0.
        -11    1    4    4    0    0 -0.19781420159E+01  0.32744049124E+02  0.21502304662E+02  0.39222887510E+02  0.00000000000E+00 0.  1.
         11    1    4    4    0    0 -0.29290309787E+01  0.66515413710E+02 -0.90165718918E+02  0.11208361322E+03  0.00000000000E+00 0. -1.
        -13    1    3    3    0    0 -0.21799824482E+02 -0.11401440617E+02  0.42300624932E+02  0.48934323999E+02  0.00000000000E+00 0.  1.
         13    1    3    3    0    0  0.96863989252E+02 -0.43916512128E+02  0.23635279086E+03  0.25917934755E+03  0.00000000000E+00 0. -1.
          1    1    1    2  501    0 -0.70156991775E+02 -0.43941510090E+02  0.17018652510E+03  0.18925198315E+03  0.00000000000E+00 0. -1.
<scales pt_clust_5="13000.00000" pt_clust_6="13000.00000" pt_clust_7="13000.00000" pt_clust_8="13000.00000" pt_clust_9="13000.00000"></scales>
<clustering>
<clus scale="   91.118">  5  6 -1 -1</clus>
<clus scale="   82.782">  5  9 -1 -1</clus>
<clus scale="   92.691">  7  8 -1 -1</clus>
<clus scale="  131.477">  1  7  2 -1</clus>
<clus scale="  325.074">  2  5  1 -1</clus>
</clustering>
</event>
<event>
 9    1  0.3312826E-006  0.2074652E+03  0.7546771E-02  0.1156468E+00
         -1   -1    0    0    0  501 -0.00000000000E+00  0.00000000000E+00  0.20757298854E+03  0.20757298854E+03  0.00000000000E+00 0.  1.
         21   -1    0    0  501  502  0.00000000000E+00 -0.00000000000E+00 -0.17598540254E+03  0.17598540254E+03  0.00000000000E+00 0. -1.
         23    2    1    2    0    0 -0.36049764865E+02  0.11806154471E+03 -0.49637100340E+02  0.16075969334E+03  0.90231498862E+02 0.  0.
         23    2    1    2    0    0  0.13833419028E+02 -0.14358687773E+03  0.61296805703E+02  0.18352747322E+03  0.95480260251E+02 0.  0.
        -11    1    3    3    0    0 -0.10176925870E+02  0.35303624151E+02  0.26554307925E+02  0.45332625864E+02  0.00000000000E+00 0.  1.
         11    1    3    3    0    0 -0.25872838994E+02  0.82757920555E+02 -0.76191408266E+02  0.11542706747E+03  0.00000000000E+00 0. -1.
        -11    1    4    4    0    0  0.42668258374E+02 -0.13635388494E+03  0.46012596982E+02  0.15010037072E+03  0.00000000000E+00 0.  1.
         11    1    4    4    0    0 -0.28834839346E+02 -0.72329927924E+01  0.15284208720E+02  0.33427102493E+02  0.00000000000E+00 0. -1.
         -1    1    1    2    0  502  0.22216345836E+02  0.25525333026E+02  0.19927880641E+02  0.39271224519E+02  0.00000000000E+00 0.  1.
<scales pt_clust_5="13000.00000" pt_clust_6="13000.00000" pt_clust_7="13000.00000" pt_clust_8="13000.00000" pt_clust_9="13000.00000"></scales>
<clustering>
<clus scale="   90.231">  5  6 -1 -1</clus>
<clus scale="   95.480">  7  8 -1 -1</clus>
<clus scale="   33.839">  7  9 -1 -1</clus>
<clus scale="  152.905">  1  5  2 -1</clus>
<clus scale="  207.465">  2  5  1 -1</clus>
</clustering>
</event>
<event>
 9    1  0.3312826E-006  0.2953820E+03  0.7546771E-02  0.1113632E+00
         21   -1    0    0  501  502  0.00000000000E+00  0.00000000000E+00  0.38817507705E+02  0.38817507705E+02  0.00000000000E+00 0.  1.
         -1   -1    0    0    0  501 -0.00000000000E+00 -0.00000000000E+00 -0.13131968121E+04  0.13131968121E+04  0.00000000000E+00 0.  1.
         23    2    1    2    0    0  0.10900906378E+03  0.55103077654E+02 -0.33241915215E+03  0.36482668539E+03  0.87616736431E+02 0.  0.
         23    2    1    2    0    0 -0.25684603835E+01 -0.96869898501E+02 -0.76530690981E+03  0.77675846002E+03  0.90932198775E+02 0.  0.
        -11    1    3    3    0    0  0.20153237685E+02  0.57652403610E+02 -0.14781750624E+03  0.15993738706E+03  0.00000000000E+00 0. -1.
         11    1    3    3    0    0  0.88855826093E+02 -0.25493259563E+01 -0.18460164591E+03  0.20488929832E+03  0.00000000000E+00 0.  1.
        -11    1    4    4    0    0 -0.39180886174E+02 -0.86276661172E+02 -0.55129680536E+03  0.55938088250E+03  0.00000000000E+00 0.  1.
         11    1    4    4    0    0  0.36612425790E+02 -0.10593237329E+02 -0.21401010445E+03  0.21737757752E+03  0.00000000000E+00 0. -1.
         -1    1    1    2    0  502 -0.10644060340E+03  0.41766820848E+02 -0.17665324239E+03  0.21042917436E+03  0.00000000000E+00 0.  1.
<scales pt_clust_5="13000.00000" pt_clust_6="13000.00000" pt_clust_7="13000.00000" pt_clust_8="13000.00000" pt_clust_9="13000.00000"></scales>
<clustering>
<clus scale="   87.617">  5  6 -1 -1</clus>
<clus scale="   90.932">  7  8 -1 -1</clus>
<clus scale="  114.342">  7  9 -1 -1</clus>
<clus scale="  150.320">  2  5  1 -1</clus>
<clus scale="  295.382">  1  5  2 -1</clus>
</clustering>
</event>
<event>
 9    1  0.3312826E-006  0.3806358E+03  0.7546771E-02  0.1088905E+00
         21   -1    0    0  501  502  0.00000000000E+00  0.00000000000E+00  0.99006799481E+02  0.99006799481E+02  0.00000000000E+00 0.  1.
          2   -1    0    0  502    0 -0.00000000000E+00 -0.00000000000E+00 -0.84082143756E+03  0.84082143756E+03  0.00000000000E+00 0. -1.
         23    2    1    2    0    0  0.79961468498E+02  0.57213665507E+02 -0.42243292022E+03  0.44294965445E+03  0.89930997567E+02 0.  0.
         23    2    1    2    0    0 -0.19408836077E+03 -0.43803291390E+02 -0.84618872634E+02  0.23550073508E+03  0.93333930034E+02 0.  0.
        -11    1    4    4    0    0 -0.13250545453E+02 -0.15248317101E+02 -0.43354058141E+02  0.47829514806E+02  0.00000000000E+00 0. -1.
         11    1    4    4    0    0 -0.18083781531E+03 -0.28554974288E+02 -0.41264814493E+02  0.18767122028E+03  0.00000000000E+00 0.  1.
        -11    1    3    3    0    0  0.79023844190E+02  0.39604942027E+01 -0.22726134909E+03  0.24064117323E+03  0.00000000000E+00 0.  1.
         11    1    3    3    0    0  0.93762430802E+00  0.53253171304E+02 -0.19517157113E+03  0.20230848122E+03  0.00000000000E+00 0. -1.
          2    1    1    2  501    0  0.11412689227E+03 -0.13410374118E+02 -0.23476284522E+03  0.26137784751E+03  0.00000000000E+00 0. -1.
<scales pt_clust_5="13000.00000" pt_clust_6="13000.00000" pt_clust_7="13000.00000" pt_clust_8="13000.00000" pt_clust_9="13000.00000"></scales>
<clustering>
<clus scale="   89.931">  7  8 -1 -1</clus>
<clus scale="   93.334">  5  6 -1 -1</clus>
<clus scale="  114.912">  5  9 -1 -1</clus>
<clus scale="  133.247">  2  7  1 -1</clus>
<clus scale="  380.636">  1  5  2 -1</clus>
</clustering>
</event>
<event>
 9    1  0.3312826E-006  0.2771645E+03  0.7546771E-02  0.1110939E+00
         21   -1    0    0  501  502  0.00000000000E+00  0.00000000000E+00  0.99485683910E+02  0.99485683910E+02  0.00000000000E+00 0. -1.
          1   -1    0    0  502    0 -0.00000000000E+00 -0.00000000000E+00 -0.83879383741E+03  0.83879383741E+03  0.00000000000E+00 0. -1.
         23    2    1    2    0    0 -0.13869316299E+03 -0.10320564733E+03 -0.59441977550E+03  0.62552916681E+03  0.89803507270E+02 0.  0.
         23    2    1    2    0    0  0.92319124824E+00 -0.40529067040E+01 -0.95962890615E+02  0.13142560208E+03  0.89702475843E+02 0.  0.
        -11    1    4    4    0    0 -0.12311373694E+02 -0.22302891134E+02 -0.10431792377E+03  0.10738350941E+03  0.00000000000E+00 0. -1.
         11    1    4    4    0    0  0.13234564942E+02  0.18249984430E+02  0.83550331504E+01  0.24042092668E+02  0.00000000000E+00 0.  1.
        -13    1    3    3    0    0 -0.85830824092E+02 -0.65387460630E+02 -0.21471890234E+03  0.24030534200E+03  0.00000000000E+00 0.  1.
         13    1    3    3    0    0 -0.52862338900E+02 -0.37818186698E+02 -0.37970087316E+03  0.38522382480E+03  0.00000000000E+00 0. -1.
          1    1    1    2  501    0  0.13776997174E+03  0.10725855403E+03 -0.48925487380E+02  0.18132475243E+03  0.00000000000E+00 0. -1.
<scales pt_clust_5="13000.00000" pt_clust_6="13000.00000" pt_clust_7="13000.00000" pt_clust_8="13000.00000" pt_clust_9="13000.00000"></scales>
<clustering>
<clus scale="   89.702">  5  6 -1 -1</clus>
<clus scale="   89.804">  7  8 -1 -1</clus>
<clus scale="  174.600">  5  9 -1 -1</clus>
<clus scale="  194.812">  2  7  1 -1</clus>
<clus scale="  277.164">  1  5  2 -1</clus>
</clustering>
</event>
<event>
 9    1  0.3312826E-006  0.6340432E+03  0.7546771E-02  0.1037811E+00
         21   -1    0    0  501  502  0.00000000000E+00  0.00000000000E+00  0.21563726514E+03  0.21563726514E+03  0.00000000000E+00 0. -1.
          2   -1    0    0  502    0 -0.00000000000E+00 -0.00000000000E+00 -0.76672680359E+03  0.76672680359E+03  0.00000000000E+00 0. -1.
         23    2    1    2    0    0  0.64953212824E+02  0.41742651293E+02  0.29083877685E+02  0.12293866349E+03  0.91140958123E+02 0.  0.
         23    2    1    2    0    0 -0.29237330677E+03  0.12333089656E+03 -0.19639976542E+03  0.38376650402E+03  0.89505313762E+02 0.  0.
        -13    1    4    4    0    0 -0.11349334236E+03  0.25207747790E+02 -0.28912496915E+02  0.11980025788E+03  0.00000000000E+00 0.  1.
         13    1    4    4    0    0 -0.17887996440E+03  0.98123148771E+02 -0.16748726851E+03  0.26396624614E+03  0.00000000000E+00 0. -1.
        -13    1    3    3    0    0  0.36712449772E+02 -0.20412102295E+02 -0.11455784991E+02  0.43539555557E+02  0.00000000000E+00 0.  1.
         13    1    3    3    0    0  0.28240763053E+02  0.62154753588E+02  0.40539662676E+02  0.79399107938E+02  0.00000000000E+00 0. -1.
          2    1    1    2  501    0  0.22742009394E+03 -0.16507354785E+03 -0.38377365071E+03  0.47565890122E+03  0.00000000000E+00 0. -1.
<scales pt_clust_5="13000.00000" pt_clust_6="13000.00000" pt_clust_7="13000.00000" pt_clust_8="13000.00000" pt_clust_9="13000.00000"></scales>
<clustering>
<clus scale="   89.505">  5  6 -1 -1</clus>
<clus scale="   91.141">  7  8 -1 -1</clus>
<clus scale="  119.449">  2  7  1 -1</clus>
<clus scale="  300.839">  5  9 -1 -1</clus>
<clus scale="  634.043">  1  5  2 -1</clus>
</clustering>
</event>
<event>
 9    1  0.3312826E-006  0.4035774E+03  0.7546771E-02  0.1096652E+00
          2   -1    0    0  502    0 -0.00000000000E+00  0.00000000000E+00  0.11607772554E+04  0.11607772554E+04  0.00000000000E+00 0. -1.
         21   -1    0    0  501  502  0.00000000000E+00 -0.00000000000E+00 -0.57654642342E+02  0.57654642342E+02  0.00000000000E+00 0. -1.
         23    2    1    2    0    0 -0.32508291022E+01 -0.14846203351E+02  0.37517052773E+03  0.38609246345E+03  0.89908218820E+02 0.  0.
         23    2    1    2    0    0 -0.77076840940E+02  0.18143376482E+03  0.34611790601E+03  0.40807384446E+03  0.88699533531E+02 0.  0.
        -11    1    3    3    0    0 -0.48521943290E+01  0.34703584218E+02  0.88823736214E+02  0.95485803459E+02  0.00000000000E+00 0. -1.
         11    1    3    3    0    0  0.16013652268E+01 -0.49549787568E+02  0.28634679152E+03  0.29060665999E+03  0.00000000000E+00 0.  1.
        -11    1    4    4    0    0 -0.31091051053E+02  0.23134582658E+02  0.13366389300E+03  0.13916859798E+03  0.00000000000E+00 0.  1.
         11    1    4    4    0    0 -0.45985789887E+02  0.15829918217E+03  0.21245401300E+03  0.26890524649E+03  0.00000000000E+00 0. -1.
          2    1    1    2  501    0  0.80327670043E+02 -0.16658756147E+03  0.38183417928E+03  0.42426558979E+03  0.00000000000E+00 0. -1.
<scales pt_clust_5="13000.00000" pt_clust_6="13000.00000" pt_clust_7="13000.00000" pt_clust_8="13000.00000" pt_clust_9="13000.00000"></scales>
<clustering>
<clus scale="   88.700">  7  8 -1 -1</clus>
<clus scale="   89.908">  5  6 -1 -1</clus>
<clus scale="   91.184">  1  5  2 -1</clus>
<clus scale="  191.184">  7  9 -1 -1</clus>
<clus scale="  403.577">  2  5  1 -1</clus>
</clustering>
</event>
<event>
 9    1  0.3312826E-006  0.2120027E+03  0.7546771E-02  0.1172300E+00
         -1   -1    0    0    0  501 -0.00000000000E+00  0.00000000000E+00  0.30892695627E+03  0.30892695627E+03  0.00000000000E+00 0.  1.
         21   -1    0    0  501  502  0.00000000000E+00 -0.00000000000E+00 -0.81321249980E+02  0.81321249980E+02  0.00000000000E+00 0. -1.
         23    2    1    2    0    0 -0.27870691500E+02 -0.26730346377E+02  0.39973182840E+02  0.10713850709E+03  0.91594309283E+02 0.  0.
         23    2    1    2    0    0 -0.29854855063E+01  0.92510723941E+02  0.73402854922E+02  0.14773031039E+03  0.88708051095E+02 0.  0.
        -11    1    4    4    0    0  0.34603153626E+02  0.15423175728E+02  0.53782201543E+01  0.38264576862E+02  0.00000000000E+00 0. -1.
         11    1    4    4    0    0 -0.37588639132E+02  0.77087548213E+02  0.68024634768E+02  0.10946573353E+03  0.00000000000E+00 0.  1.
        -13    1    3    3    0    0 -0.17730231878E+02  0.28857140433E+02 -0.58727398654E+01  0.34374187262E+02  0.00000000000E+00 0.  1.
         13    1    3    3    0    0 -0.10140459623E+02 -0.55587486811E+02  0.45845922705E+02  0.72764319828E+02  0.00000000000E+00 0. -1.
         -1    1    1    2    0  502  0.30856177007E+02 -0.65780377563E+02  0.11422966852E+03  0.13537938877E+03  0.00000000000E+00 0.  1.
<scales pt_clust_5="13000.00000" pt_clust_6="13000.00000" pt_clust_7="13000.00000" pt_clust_8="13000.00000" pt_clust_9="13000.00000"></scales>
<clustering>
<clus scale="   88.708">  5  6 -1 -1</clus>
<clus scale="   72.658">  5  9 -1 -1</clus>
<clus scale="   91.594">  7  8 -1 -1</clus>
<clus scale="   99.402">  1  7  2 -1</clus>
<clus scale="  212.003">  2  5  1 -1</clus>
</clustering>
</event>
<event>
 9    1  0.3312826E-006  0.3532666E+03  0.7546771E-02  0.1079061E+00
         21   -1    0    0  501  502  0.00000000000E+00  0.00000000000E+00  0.22915791042E+03  0.22915791042E+03  0.00000000000E+00 0.  1.
         -1   -1    0    0    0  501 -0.00000000000E+00 -0.00000000000E+00 -0.40093519681E+03  0.40093519681E+03  0.00000000000E+00 0.  1.
         23    2    1    2    0    0  0.15380336723E+03 -0.12227676894E+03  0.36634016173E+02  0.21993151099E+03  0.91764559573E+02 0.  0.
         23    2    1    2    0    0  0.47146124075E+02  0.76377717764E+02 -0.14762755967E+03  0.19526142323E+03  0.90976998422E+02 0.  0.
        -11    1    3    3    0    0  0.49921702782E+02 -0.95798591742E+02  0.31844288474E+02  0.11262151347E+03  0.00000000000E+00 0. -1.
         11    1    3    3    0    0  0.10388166445E+03 -0.26478177193E+02  0.47897276984E+01  0.10730999752E+03  0.00000000000E+00 0.  1.
        -11    1    4    4    0    0  0.24308418209E+02 -0.14911539677E+02 -0.61086566775E+02  0.67415293901E+02  0.00000000000E+00 0.  1.
         11    1    4    4    0    0  0.22837705866E+02  0.91289257441E+02 -0.86540992892E+02  0.12784612933E+03  0.00000000000E+00 0. -1.
         -1    1    1    2    0  502 -0.20094949131E+03  0.45899051171E+02 -0.60783742895E+02  0.21490017300E+03  0.00000000000E+00 0.  1.
<scales pt_clust_5="13000.00000" pt_clust_6="13000.00000" pt_clust_7="13000.00000" pt_clust_8="13000.00000" pt_clust_9="13000.00000"></scales>
<clustering>
<clus scale="   90.977">  7  8 -1 -1</clus>
<clus scale="   91.765">  5  6 -1 -1</clus>
<clus scale="  206.125">  7  9 -1 -1</clus>
<clus scale="  216.859">  2  5  1 -1</clus>
<clus scale="  353.267">  1  5  2 -1</clus>
</clustering>
</event>
<event>
 9    1  0.3312826E-006  0.4472295E+03  0.7546771E-02  0.1081120E+00
         21   -1    0    0  501  502  0.00000000000E+00  0.00000000000E+00  0.58170875355E+03  0.58170875355E+03  0.00000000000E+00 0.  1.
         -2   -1    0    0    0  501 -0.00000000000E+00 -0.00000000000E+00 -0.24077185505E+03  0.24077185505E+03  0.00000000000E+00 0.  1.
         23    2    1    2    0    0 -0.22007496190E+02 -0.37403229522E+02 -0.13547063478E+03  0.16904482635E+03  0.91326496482E+02 0.  0.
         23    2    1    2    0    0 -0.56536771325E+02 -0.14064508095E+03  0.49229042888E+02  0.18401926628E+03  0.91989925498E+02 0.  0.
        -11    1    3    3    0    0 -0.24284949046E+02  0.24067665684E+02 -0.76671678754E+02  0.83949732606E+02  0.00000000000E+00 0. -1.
         11    1    3    3    0    0  0.22774528562E+01 -0.61470895206E+02 -0.58798956024E+02  0.85095093739E+02  0.00000000000E+00 0.  1.
        -13    1    4    4    0    0 -0.69960369140E+02 -0.11183118416E+03  0.82672113537E+01  0.13217039677E+03  0.00000000000E+00 0.  1.
         13    1    4    4    0    0  0.13423597815E+02 -0.28813896790E+02  0.40961831534E+02  0.51848869507E+02  0.00000000000E+00 0. -1.
         -2    1    1    2    0  502  0.78544267515E+02  0.17804831047E+03  0.42717849039E+03  0.46941651597E+03  0.00000000000E+00 0.  1.
<scales pt_clust_5="13000.00000" pt_clust_6="13000.00000" pt_clust_7="13000.00000" pt_clust_8="13000.00000" pt_clust_9="13000.00000"></scales>
<clustering>
<clus scale="   91.326">  5  6 -1 -1</clus>
<clus scale="   91.990">  7  8 -1 -1</clus>
<clus scale="  101.113">  2  5  1 -1</clus>
<clus scale="  184.323">  7  9 -1 -1</clus>
<clus scale="  447.229">  1  5  2 -1</clus>
</clustering>
</event>
<event>
 9    1  0.3312826E-006  0.2556559E+03  0.7546771E-02  0.1149149E+00
          1   -1    0    0  502    0 -0.00000000000E+00  0.00000000000E+00  0.97569056468E+02  0.97569056468E+02  0.00000000000E+00 0. -1.
         21   -1    0    0  501  502  0.00000000000E+00 -0.00000000000E+00 -0.40964686332E+03  0.40964686332E+03  0.00000000000E+00 0. -1.
         23    2    1    2    0    0 -0.16952243355E+02  0.30665726165E+02  0.81597130100E+01  0.97445220852E+02  0.90560614146E+02 0.  0.
         23    2    1    2    0    0 -0.54216757296E+02 -0.41178630416E+02 -0.38353824632E+02  0.11885152555E+03  0.89551844682E+02 0.  0.
        -11    1    4    4    0    0  0.12859725637E+02 -0.43409185574E+02 -0.17981123698E+02  0.48713968685E+02  0.00000000000E+00 0.  1.
         11    1    4    4    0    0 -0.67076482933E+02  0.22305551576E+01 -0.20372700935E+02  0.70137556860E+02  0.00000000000E+00 0. -1.
        -11    1    3    3    0    0  0.35546521725E+02  0.21530659205E+02 -0.67680660207E+01  0.42106189690E+02  0.00000000000E+00 0.  1.
         11    1    3    3    0    0 -0.52498765079E+02  0.91350669591E+01  0.14927779031E+02  0.55339031162E+02  0.00000000000E+00 0. -1.
          1    1    1    2  501    0  0.71169000651E+02  0.10512904252E+02 -0.28188369523E+03  0.29091917339E+03  0.00000000000E+00 0. -1.
<scales pt_clust_5="13000.00000" pt_clust_6="13000.00000" pt_clust_7="13000.00000" pt_clust_8="13000.00000" pt_clust_9="13000.00000"></scales>
<clustering>
<clus scale="   89.552">  5  6 -1 -1</clus>
<clus scale="   71.941">  5  9 -1 -1</clus>
<clus scale="   90.561">  7  8 -1 -1</clus>
<clus scale="   97.103">  1  7  2 -1</clus>
<clus scale="  255.656">  2  5  1 -1</clus>
</clustering>
</event>
<event>
 9    1  0.3312826E-006  0.3420960E+03  0.7546771E-02  0.1096538E+00
         21   -1    0    0  501  502  0.00000000000E+00  0.00000000000E+00  0.19808268411E+03  0.19808268411E+03  0.00000000000E+00 0.  1.
         -1   -1    0    0    0  501 -0.00000000000E+00 -0.00000000000E+00 -0.33742760571E+03  0.33742760571E+03  0.00000000000E+00 0.  1.
         23    2    1    2    0    0 -0.41899702433E+02  0.11143917571E+03 -0.12113924118E+03  0.19293020410E+03  0.91504496909E+02 0.  0.
         23    2    1    2    0    0 -0.35065748097E+02 -0.28372014741E+02 -0.14245567047E+03  0.17446734430E+03  0.90059193134E+02 0.  0.
        -11    1    3    3    0    0  0.24311667202E+02  0.17535746391E+02 -0.66027647438E+01  0.30694560851E+02  0.00000000000E+00 0. -1.
         11    1    3    3    0    0 -0.66211369635E+02  0.93903429317E+02 -0.11453647643E+03  0.16223564325E+03  0.00000000000E+00 0.  1.
        -11    1    4    4    0    0 -0.63876535473E+02 -0.32174919888E+02 -0.10539115633E+03  0.12736849331E+03  0.00000000000E+00 0. -1.
         11    1    4    4    0    0  0.28810787375E+02  0.38029051475E+01 -0.37064514132E+02  0.47098850990E+02  0.00000000000E+00 0.  1.
         -1    1    1    2    0  502  0.76965450531E+02 -0.83067160967E+02  0.12424999004E+03  0.16811274143E+03  0.00000000000E+00 0.  1.
<scales pt_clust_5="13000.00000" pt_clust_6="13000.00000" pt_clust_7="13000.00000" pt_clust_8="13000.00000" pt_clust_9="13000.00000"></scales>
<clustering>
<clus scale="   90.059">  7  8 -1 -1</clus>
<clus scale="   91.504">  5  6 -1 -1</clus>
<clus scale="  113.242">  7  9 -1 -1</clus>
<clus scale="  150.158">  2  5  1 -1</clus>
<clus scale="  342.096">  1  5  2 -1</clus>
</clustering>
</event>
<event>
 9    1  0.3312826E-006  0.1695468E+03  0.7546771E-02  0.1198440E+00
         21   -1    0    0  501  502  0.00000000000E+00  0.00000000000E+00  0.10937709868E+04  0.10937709868E+04  0.00000000000E+00 0. -1.
          1   -1    0    0  502    0 -0.00000000000E+00 -0.00000000000E+00 -0.31815674603E+02  0.31815674603E+02  0.00000000000E+00 0. -1.
         23    2    1    2    0    0  0.64470905442E+02  0.66228413216E+01  0.96179272279E+02  0.14504116631E+03  0.87098380204E+02 0.  0.
         23    2    1    2    0    0 -0.14755059858E+02  0.35486905584E+02  0.45946214795E+03  0.47005685340E+03  0.91492883738E+02 0.  0.
        -11    1    3    3    0    0 -0.48937187878E+01  0.32811809206E+02  0.40300253587E+02  0.52198407506E+02  0.00000000000E+00 0.  1.
         11    1    3    3    0    0  0.69364624230E+02 -0.26188967884E+02  0.55879018691E+02  0.92842758809E+02  0.00000000000E+00 0. -1.
        -13    1    4    4    0    0 -0.97691014866E+01 -0.29382778157E+02  0.97653421389E+02  0.10244497892E+03  0.00000000000E+00 0.  1.
         13    1    4    4    0    0 -0.49859583713E+01  0.64869683742E+02  0.36180872656E+03  0.36761187448E+03  0.00000000000E+00 0. -1.
          1    1    1    2  501    0 -0.49715845584E+02 -0.42109746906E+02  0.50631389198E+03  0.51048864170E+03  0.00000000000E+00 0. -1.
<scales pt_clust_5="13000.00000" pt_clust_6="13000.00000" pt_clust_7="13000.00000" pt_clust_8="13000.00000" pt_clust_9="13000.00000"></scales>
<clustering>
<clus scale="   87.098">  5  6 -1 -1</clus>
<clus scale="   91.493">  7  8 -1 -1</clus>
<clus scale="   65.153">  7  9 -1 -1</clus>
<clus scale="  108.566">  2  5  1 -1</clus>
<clus scale="  169.547">  1  5  2 -1</clus>
</clustering>
</event>
<event>
 9    1  0.3312826E-006  0.1685111E+03  0.7546771E-02  0.1202251E+00
         21   -1    0    0  501  502  0.00000000000E+00  0.00000000000E+00  0.53093764669E+02  0.53093764669E+02  0.00000000000E+00 0. -1.
          1   -1    0    0  502    0 -0.00000000000E+00 -0.00000000000E+00 -0.43820031729E+03  0.43820031729E+03  0.00000000000E+00 0. -1.
         23    2    1    2    0    0  0.14176346485E+02 -0.43932173814E+02 -0.26634911339E+03  0.28514048188E+03  0.90731689672E+02 0.  0.
         23    2    1    2    0    0 -0.11814867651E+02 -0.98689760595E+01 -0.21016109213E+02  0.94558313866E+02  0.90898900371E+02 0.  0.
        -13    1    3    3    0    0  0.51688795467E+02 -0.19342101517E+02 -0.12022370795E+03  0.13228600992E+03  0.00000000000E+00 0.  1.
         13    1    3    3    0    0 -0.37512448982E+02 -0.24590072297E+02 -0.14612540544E+03  0.15285447196E+03  0.00000000000E+00 0. -1.
        -13    1    4    4    0    0  0.10741904962E+02  0.37560149096E+02 -0.36243003794E+01  0.39233772130E+02  0.00000000000E+00 0.  1.
         13    1    4    4    0    0 -0.22556772613E+02 -0.47429125155E+02 -0.17391808834E+02  0.55324541736E+02  0.00000000000E+00 0. -1.
          1    1    1    2  501    0 -0.23614788335E+01  0.53801149874E+02 -0.97741330022E+02  0.11159528621E+03  0.00000000000E+00 0. -1.
<scales pt_clust_5="13000.00000" pt_clust_6="13000.00000" pt_clust_7="13000.00000" pt_clust_8="13000.00000" pt_clust_9="13000.00000"></scales>
<clustering>
<clus scale="   90.732">  5  6 -1 -1</clus>
<clus scale="   90.899">  7  8 -1 -1</clus>
<clus scale="   53.853">  7  9 -1 -1</clus>
<clus scale="  101.800">  2  5  1 -1</clus>
<clus scale="  168.511">  1  5  2 -1</clus>
</clustering>
</event>
<event>
 9    1  0.3312826E-006  0.2405032E+03  0.7546771E-02  0.1153125E+00
         21   -1    0    0  501  502  0.00000000000E+00  0.00000000000E+00  0.65274601290E+03  0.65274601290E+03  0.00000000000E+00 0. -1.
          4   -1    0    0  502    0 -0.00000000000E+00 -0.00000000000E+00 -0.56898876990E+02  0.56898876990E+02  0.00000000000E+00 0. -1.
         23    2    1    2    0    0 -0.21378601605E+01  0.55227088317E+02  0.59174615854E+02  0.12154696401E+03  0.90650027959E+02 0.  0.
         23    2    1    2    0    0  0.94922018892E+02 -0.52483700147E+02  0.24466750044E+03  0.28169401309E+03  0.87889719466E+02 0.  0.
        -11    1    3    3    0    0  0.12165553459E+02 -0.19722659442E+02  0.34103115121E+02  0.41231134442E+02  0.00000000000E+00 0. -1.
         11    1    3    3    0    0 -0.14303413620E+02  0.74949747759E+02  0.25071500733E+02  0.80315829569E+02  0.00000000000E+00 0.  1.
        -13    1    4    4    0    0  0.17530350407E+02 -0.34648944049E+02  0.20577515210E+02  0.43946520241E+02  0.00000000000E+00 0.  1.
         13    1    4    4    0    0  0.77391668484E+02 -0.17834756098E+02  0.22408998523E+03  0.23774749284E+03  0.00000000000E+00 0. -1.
          4    1    1    2  501    0 -0.92784158731E+02 -0.27433881702E+01  0.29200501962E+03  0.30640391279E+03  0.00000000000E+00 0. -1.
<scales pt_clust_5="13000.00000" pt_clust_6="13000.00000" pt_clust_7="13000.00000" pt_clust_8="13000.00000" pt_clust_9="13000.00000"></scales>
<clustering>
<clus scale="   87.890">  7  8 -1 -1</clus>
<clus scale="   90.650">  5  6 -1 -1</clus>
<clus scale="   92.825">  7  9 -1 -1</clus>
<clus scale="  106.170">  2  5  1 -1</clus>
<clus scale="  240.503">  1  5  2 -1</clus>
</clustering>
</event>
<event>
 9    1  0.3312826E-006  0.2063489E+03  0.7546771E-02  0.1163422E+00
          3   -1    0    0  502    0 -0.00000000000E+00  0.00000000000E+00  0.20007086389E+03  0.20007086389E+03  0.00000000000E+00 0. -1.
         21   -1    0    0  501  502  0.00000000000E+00 -0.00000000000E+00 -0.15387392651E+03  0.15387392651E+03  0.00000000000E+00 0. -1.
         23    2    1    2    0    0  0.10712835595E+03  0.82383539005E+01  0.63956748028E+02  0.14683302942E+03  0.76974786687E+02 0.  0.
         23    2    1    2    0    0 -0.20951247406E+02  0.18546734901E+02  0.21291088406E+02  0.10878115671E+03  0.10294218506E+03 0.  0.
        -11    1    4    4    0    0  0.38658846955E+02 -0.10236019194E+02  0.29901140823E+01  0.40102659751E+02  0.00000000000E+00 0.  1.
         11    1    4    4    0    0 -0.59610094361E+02  0.28782754096E+02  0.18300974324E+02  0.68678496957E+02  0.00000000000E+00 0. -1.
        -13    1    3    3    0    0  0.88418761484E+02 -0.13753475187E+02  0.74150806201E+02  0.11621263925E+03  0.00000000000E+00 0. -1.
         13    1    3    3    0    0  0.18709594469E+02  0.21991829088E+02 -0.10194058172E+02  0.30620390165E+02  0.00000000000E+00 0.  1.
          3    1    1    2  501    0 -0.86177108547E+02 -0.26785088802E+02 -0.39050899052E+02  0.98330604272E+02  0.00000000000E+00 0. -1.
<scales pt_clust_5="13000.00000" pt_clust_6="13000.00000" pt_clust_7="13000.00000" pt_clust_8="13000.00000" pt_clust_9="13000.00000"></scales>
<clustering>
<clus scale="   76.975">  7  8 -1 -1</clus>
<clus scale="  102.942">  5  6 -1 -1</clus>
<clus scale="   90.244">  5  9 -1 -1</clus>
<clus scale="  132.172">  1  7  2 -1</clus>
<clus scale="  206.349">  2  5  1 -1</clus>
</clustering>
</event>
<event>
 9    1  0.3312826E-006  0.1363920E+03  0.7546771E-02  0.1234834E+00
         -1   -1    0    0    0  501 -0.00000000000E+00  0.00000000000E+00  0.64044075442E+02  0.64044075442E+02  0.00000000000E+00 0.  1.
         21   -1    0    0  501  502  0.00000000000E+00 -0.00000000000E+00 -0.30905230998E+03  0.30905230998E+03  0.00000000000E+00 0. -1.
         23    2    1    2    0    0 -0.12126216008E+02 -0.25592850951E+02 -0.47256116394E+01  0.96802147332E+02  0.92446120461E+02 0.  0.
         23    2    1    2    0    0 -0.18316613173E+02  0.46302227661E+01 -0.18614501713E+03  0.21074213677E+03  0.96981150372E+02 0.  0.
        -11    1    4    4    0    0 -0.50121559713E+02  0.26601502840E+02 -0.13648337026E+03  0.14780906961E+03  0.00000000000E+00 0. -1.
         11    1    4    4    0    0  0.31804946539E+02 -0.21971280074E+02 -0.49661646869E+02  0.62933067160E+02  0.00000000000E+00 0.  1.
        -11    1    3    3    0    0 -0.36408727911E+02 -0.92419851418E+01 -0.37347956306E+02  0.52970554062E+02  0.00000000000E+00 0. -1.
         11    1    3    3    0    0  0.24282511903E+02 -0.16350865809E+02  0.32622344667E+02  0.43831593270E+02  0.00000000000E+00 0.  1.
         -1    1    1    2    0  502  0.30442829181E+02  0.20962628185E+02 -0.54137605769E+02  0.65552101319E+02  0.00000000000E+00 0.  1.
<scales pt_clust_5="13000.00000" pt_clust_6="13000.00000" pt_clust_7="13000.00000" pt_clust_8="13000.00000" pt_clust_9="13000.00000"></scales>
<clustering>
<clus scale="   92.446">  7  8 -1 -1</clus>
<clus scale="   96.687">  1  7  2 -1</clus>
<clus scale="   96.981">  5  6 -1 -1</clus>
<clus scale="   29.541">  5  9 -1 -1</clus>
<clus scale="  136.392">  2  5  1 -1</clus>
</clustering>
</event>
<event>
 9    1  0.3312826E-006  0.1293398E+03  0.7546771E-02  0.1243411E+00
         -1   -1    0    0    0  501 -0.00000000000E+00  0.00000000000E+00  0.10287747329E+03  0.10287747329E+03  0.00000000000E+00 0.  1.
         21   -1    0    0  501  502  0.00000000000E+00 -0.00000000000E+00 -0.13669703716E+03  0.13669703716E+03  0.00000000000E+00 0. -1.
         23    2    1    2    0    0 -0.23563353715E+02  0.19164352582E+02 -0.52738622926E+02  0.10885830368E+03  0.90256655619E+02 0.  0.
         23    2    1    2    0    0  0.19322764179E+02 -0.46370081297E+02  0.98643913845E+01  0.10173136106E+03  0.87911375544E+02 0.  0.
        -13    1    4    4    0    0  0.37115238777E+02 -0.17977941673E+02  0.39421811809E+02  0.57051087480E+02  0.00000000000E+00 0.  1.
         13    1    4    4    0    0 -0.17792474598E+02 -0.28392139624E+02 -0.29557420425E+02  0.44680273577E+02  0.00000000000E+00 0. -1.
        -13    1    3    3    0    0  0.29239592629E+02  0.27785696416E+02 -0.13594097671E+02  0.42565222822E+02  0.00000000000E+00 0.  1.
         13    1    3    3    0    0 -0.52802946344E+02 -0.86213438334E+01 -0.39144525255E+02  0.66293080857E+02  0.00000000000E+00 0. -1.
         -1    1    1    2    0  502  0.42405895354E+01  0.27205728715E+02  0.90546676778E+01  0.28984845718E+02  0.00000000000E+00 0.  1.
<scales pt_clust_5="13000.00000" pt_clust_6="13000.00000" pt_clust_7="13000.00000" pt_clust_8="13000.00000" pt_clust_9="13000.00000"></scales>
<clustering>
<clus scale="   87.911">  5  6 -1 -1</clus>
<clus scale="   27.534">  5  9 -1 -1</clus>
<clus scale="   90.257">  7  8 -1 -1</clus>
<clus scale="   95.230">  1  7  2 -1</clus>
<clus scale="  129.340">  2  5  1 -1</clus>
</clustering>
</event>
<event>
 9    1  0.3312826E-006  0.2784870E+03  0.7546771E-02  0.1134089E+00
          1   -1    0    0  502    0 -0.00000000000E+00  0.00000000000E+00  0.38875712185E+03  0.38875712185E+03  0.00000000000E+00 0. -1.
         21   -1    0    0  501  502  0.00000000000E+00 -0.00000000000E+00 -0.98231630271E+02  0.98231630271E+02  0.00000000000E+00 0. -1.
         23    2    1    2    0    0  0.34703007894E+02 -0.16112745633E+02  0.11548503701E+03  0.15805991468E+03  0.10090700435E+03 0.  0.
         23    2    1    2    0    0  0.55177965407E+02  0.98042292662E+02  0.14393442266E+03  0.20339547431E+03  0.89418688910E+02 0.  0.
        -11    1    4    4    0    0 -0.58287340044E+01  0.69281530435E+02  0.10373075637E+03  0.12487583600E+03  0.00000000000E+00 0.  1.
         11    1    4    4    0    0  0.61006699411E+02  0.28760762227E+02  0.40203666284E+02  0.78519638305E+02  0.00000000000E+00 0. -1.
        -13    1    3    3    0    0  0.41566539570E+02 -0.51860310598E+02  0.96030685237E+02  0.11678682089E+03  0.00000000000E+00 0. -1.
         13    1    3    3    0    0 -0.68635316760E+01  0.35747564965E+02  0.19454351774E+02  0.41273093789E+02  0.00000000000E+00 0.  1.
          1    1    1    2  501    0 -0.89880973301E+02 -0.81929547029E+02  0.31106031911E+02  0.12553336313E+03  0.00000000000E+00 0. -1.
<scales pt_clust_5="13000.00000" pt_clust_6="13000.00000" pt_clust_7="13000.00000" pt_clust_8="13000.00000" pt_clust_9="13000.00000"></scales>
<clustering>
<clus scale="   89.419">  5  6 -1 -1</clus>
<clus scale="  100.907">  7  8 -1 -1</clus>
<clus scale="  107.917">  1  7  2 -1</clus>
<clus scale="  117.534">  5  9 -1 -1</clus>
<clus scale="  278.487">  2  5  1 -1</clus>
</clustering>
</event>
<event>
 9    1  0.3312826E-006  0.3131743E+03  0.7546771E-02  0.1112569E+00
          2   -1    0    0  502    0 -0.00000000000E+00  0.00000000000E+00  0.13398111299E+04  0.13398111299E+04  0.00000000000E+00 0. -1.
         21   -1    0    0  501  502  0.00000000000E+00 -0.00000000000E+00 -0.36641048048E+02  0.36641048048E+02  0.00000000000E+00 0.  1.
         23    2    1    2    0    0 -0.36472626332E+02  0.83169667940E+02  0.35545439055E+03  0.37833237417E+03  0.92412745076E+02 0.  0.
         23    2    1    2    0    0 -0.96796144010E+02 -0.61917687636E+02  0.70557089038E+03  0.72090812214E+03  0.93139388452E+02 0.  0.
        -13    1    4    4    0    0 -0.91126466669E+02 -0.84307759627E+02  0.61775759485E+03  0.63010814727E+03  0.00000000000E+00 0. -1.
         13    1    4    4    0    0 -0.56696773406E+01  0.22390071992E+02  0.87813295532E+02  0.90799974874E+02  0.00000000000E+00 0.  1.
        -13    1    3    3    0    0 -0.52519406548E+02  0.95426328414E+02  0.28753341747E+03  0.30747347590E+03  0.00000000000E+00 0.  1.
         13    1    3    3    0    0  0.16046780216E+02 -0.12256660473E+02  0.67920973072E+02  0.70858898271E+02  0.00000000000E+00 0. -1.
          2    1    1    2  501    0  0.13326877034E+03 -0.21251980304E+02  0.24214480089E+03  0.27721168159E+03  0.00000000000E+00 0. -1.
<scales pt_clust_5="13000.00000" pt_clust_6="13000.00000" pt_clust_7="13000.00000" pt_clust_8="13000.00000" pt_clust_9="13000.00000"></scales>
<clustering>
<clus scale="   92.413">  7  8 -1 -1</clus>
<clus scale="   93.139">  5  6 -1 -1</clus>
<clus scale="  129.567">  1  7  2 -1</clus>
<clus scale="  123.538">  5  9 -1 -1</clus>
<clus scale="  313.174">  2  5  1 -1</clus>
</clustering>
</event>
<event>
 9    1  0.3312826E-006  0.1426942E+03  0.7546771E-02  0.1227938E+00
         21   -1    0    0  501  502  0.00000000000E+00  0.00000000000E+00  0.52981386997E+03  0.52981386997E+03  0.00000000000E+00 0. -1.
          1   -1    0    0  502    0 -0.00000000000E+00 -0.00000000000E+00 -0.18911660648E+03  0.18911660648E+03  0.00000000000E+00 0. -1.
         23    2    1    2    0    0 -0.18605079487E+02 -0.27945095500E+02 -0.16605375432E+03  0.19247229630E+03  0.91349100564E+02 0.  0.
         23    2    1    2    0    0 -0.12940626992E+02  0.43445034984E+02  0.24201284307E+03  0.25939698700E+03  0.81618930156E+02 0.  0.
        -11    1    3    3    0    0 -0.31227131281E+02  0.26641239633E+02 -0.63485682429E+02  0.75599743721E+02  0.00000000000E+00 0. -1.
         11    1    3    3    0    0  0.12622051794E+02 -0.54586335133E+02 -0.10256807189E+03  0.11687255258E+03  0.00000000000E+00 0.  1.
        -13    1    4    4    0    0 -0.14774815557E+02 -0.18127346882E+02  0.26929526127E+02  0.35666444414E+02  0.00000000000E+00 0. -1.
         13    1    4    4    0    0  0.18341885649E+01  0.61572381866E+02  0.21508331694E+03  0.22373054258E+03  0.00000000000E+00 0.  1.
          1    1    1    2  501    0  0.31545706479E+02 -0.15499939484E+02  0.26473817474E+03  0.26706119315E+03  0.00000000000E+00 0. -1.
<scales pt_clust_5="13000.00000" pt_clust_6="13000.00000" pt_clust_7="13000.00000" pt_clust_8="13000.00000" pt_clust_9="13000.00000"></scales>
<clustering>
<clus scale="   81.619">  7  8 -1 -1</clus>
<clus scale="   35.148">  7  9 -1 -1</clus>
<clus scale="   91.349">  5  6 -1 -1</clus>
<clus scale="   97.323">  2  5  1 -1</clus>
<clus scale="  142.694">  1  5  2 -1</clus>
</clustering>
</event>
<event>
 9    1  0.3312826E-006  0.3596354E+03  0.7546771E-02  0.1087319E+00
         21   -1    0    0  501  502  0.00000000000E+00  0.00000000000E+00  0.19637449622E+03  0.19637449622E+03  0.00000000000E+00 0. -1.
          2   -1    0    0  502    0 -0.00000000000E+00 -0.00000000000E+00 -0.35217852217E+03  0.35217852217E+03  0.00000000000E+00 0. -1.
         23    2    1    2    0    0  0.13234605515E+03  0.34166148254E+02 -0.29520845513E+02  0.16739020541E+03  0.92006502749E+02 0.  0.
         23    2    1    2    0    0 -0.20394865552E+01 -0.31044485070E+02 -0.20654793216E+03  0.22808774325E+03  0.91619052514E+02 0.  0.
        -11    1    3    3    0    0  0.24016056795E+02 -0.29011626771E+02  0.31619064300E+01  0.37794749955E+02  0.00000000000E+00 0.  1.
         11    1    3    3    0    0  0.10832999835E+03  0.63177775026E+02 -0.32682751943E+02  0.12959545546E+03  0.00000000000E+00 0. -1.
        -13    1    4    4    0    0  0.27233379903E+02 -0.52894098741E+02 -0.14123688464E+03  0.15325566953E+03  0.00000000000E+00 0.  1.
         13    1    4    4    0    0 -0.29272866459E+02  0.21849613671E+02 -0.65311047526E+02  0.74832073720E+02  0.00000000000E+00 0. -1.
          2    1    1    2  501    0 -0.13030656859E+03 -0.31216631845E+01  0.80264751732E+02  0.15307506972E+03  0.00000000000E+00 0. -1.
<scales pt_clust_5="13000.00000" pt_clust_6="13000.00000" pt_clust_7="13000.00000" pt_clust_8="13000.00000" pt_clust_9="13000.00000"></scales>
<clustering>
<clus scale="   91.619">  7  8 -1 -1</clus>
<clus scale="   92.007">  5  6 -1 -1</clus>
<clus scale="  130.344">  7  9 -1 -1</clus>
<clus scale="  164.767">  2  5  1 -1</clus>
<clus scale="  359.635">  1  5  2 -1</clus>
</clustering>
</event>
<event>
 9    1  0.3312826E-006  0.1455246E+03  0.7546771E-02  0.1222115E+00
          1   -1    0    0  502    0 -0.00000000000E+00  0.00000000000E+00  0.44688768243E+02  0.44688768243E+02  0.00000000000E+00 0. -1.
         21   -1    0    0  501  502  0.00000000000E+00 -0.00000000000E+00 -0.38499744321E+03  0.38499744321E+03  0.00000000000E+00 0. -1.
         23    2    1    2    0    0 -0.28094951087E+01  0.41431482485E+02 -0.77818415605E+02  0.12955531727E+03  0.94891587733E+02 0.  0.
         23    2    1    2    0    0  0.37519070881E+01 -0.62005108107E+02 -0.25527196706E+03  0.27830737578E+03  0.91828688386E+02 0.  0.
        -11    1    3    3    0    0 -0.37706058012E+02  0.54522557776E+02 -0.50978107032E+02  0.83625495597E+02  0.00000000000E+00 0.  1.
         11    1    3    3    0    0  0.34896562903E+02 -0.13091075292E+02 -0.26840308573E+02  0.45929821674E+02  0.00000000000E+00 0. -1.
        -13    1    4    4    0    0  0.20406233477E+02 -0.80954482352E+02 -0.17019727309E+03  0.18957097443E+03  0.00000000000E+00 0. -1.
         13    1    4    4    0    0 -0.16654326389E+02  0.18949374246E+02 -0.85074693969E+02  0.88736401357E+02  0.00000000000E+00 0.  1.
          1    1    1    2  501    0 -0.94241197939E+00  0.20573625622E+02 -0.72182923046E+01  0.21823518400E+02  0.00000000000E+00 0. -1.
<scales pt_clust_5="13000.00000" pt_clust_6="13000.00000" pt_clust_7="13000.00000" pt_clust_8="13000.00000" pt_clust_9="13000.00000"></scales>
<clustering>
<clus scale="   91.829">  7  8 -1 -1</clus>
<clus scale="   20.595">  7  9 -1 -1</clus>
<clus scale="   94.892">  5  6 -1 -1</clus>
<clus scale="  103.580">  1  5  2 -1</clus>
<clus scale="  145.525">  2  5  1 -1</clus>
</clustering>
</event>
<event>
 9    1  0.3312826E-006  0.2038386E+03  0.7546771E-02  0.1173254E+00
          2   -1    0    0  502    0 -0.00000000000E+00  0.00000000000E+00  0.26990607331E+03  0.26990607331E+03  0.00000000000E+00 0. -1.
         21   -1    0    0  501  502  0.00000000000E+00 -0.00000000000E+00 -0.10003327847E+03  0.10003327847E+03  0.00000000000E+00 0. -1.
         23    2    1    2    0    0 -0.29667681789E+02  0.52095541923E+02  0.11521691380E+03  0.15890036610E+03  0.91543827154E+02 0.  0.
         23    2    1    2    0    0  0.20071011592E+02 -0.91380815686E+02  0.88778119596E+02  0.15812626531E+03  0.91482579107E+02 0.  0.
        -11    1    4    4    0    0  0.43512031028E+02 -0.13811900556E+02  0.51825982874E+02  0.69065171700E+02  0.00000000000E+00 0.  1.
         11    1    4    4    0    0 -0.23441019436E+02 -0.77568915129E+02  0.36952136722E+02  0.89061093609E+02  0.00000000000E+00 0. -1.
        -13    1    3    3    0    0 -0.38897703712E+02  0.73826925206E+02  0.10219681584E+03  0.13193799834E+03  0.00000000000E+00 0.  1.
         13    1    3    3    0    0  0.92300219235E+01 -0.21731383283E+02  0.13020097962E+02  0.26962367756E+02  0.00000000000E+00 0. -1.
          2    1    1    2  501    0  0.95966701964E+01  0.39285273763E+02 -0.34122238549E+02  0.52912720371E+02  0.00000000000E+00 0. -1.
<scales pt_clust_5="13000.00000" pt_clust_6="13000.00000" pt_clust_7="13000.00000" pt_clust_8="13000.00000" pt_clust_9="13000.00000"></scales>
<clustering>
<clus scale="   91.483">  5  6 -1 -1</clus>
<clus scale="   40.440">  5  9 -1 -1</clus>
<clus scale="   91.544">  7  8 -1 -1</clus>
<clus scale="  109.428">  1  7  2 -1</clus>
<clus scale="  203.839">  2  5  1 -1</clus>
</clustering>
</event>
<event>
 9    1  0.3312826E-006  0.1667915E+03  0.7546771E-02  0.1194268E+00
         21   -1    0    0  501  502  0.00000000000E+00  0.00000000000E+00  0.64519890438E+03  0.64519890438E+03  0.00000000000E+00 0. -1.
          1   -1    0    0  502    0 -0.00000000000E+00 -0.00000000000E+00 -0.34127258857E+02  0.34127258857E+02  0.00000000000E+00 0. -1.
         23    2    1    2    0    0  0.65895783604E+02 -0.63137927846E+02  0.20132515938E+03  0.23693314715E+03  0.85304420694E+02 0.  0.
         23    2    1    2    0    0 -0.25723214151E+02  0.60012921291E+02  0.19835809643E+03  0.22719856377E+03  0.89498706650E+02 0.  0.
        -13    1    3    3    0    0  0.34522648227E+01 -0.62337621668E+02  0.97645952016E+02  0.11589921981E+03  0.00000000000E+00 0.  1.
         13    1    3    3    0    0  0.62443518782E+02 -0.80030617808E+00  0.10367920737E+03  0.12103392734E+03  0.00000000000E+00 0. -1.
        -13    1    4    4    0    0  0.28467000748E+02  0.34396347828E+02  0.49154152371E+02  0.66404891166E+02  0.00000000000E+00 0.  1.
         13    1    4    4    0    0 -0.54190214899E+02  0.25616573463E+02  0.14920394406E+03  0.16079367260E+03  0.00000000000E+00 0. -1.
          1    1    1    2  501    0 -0.40172569453E+02  0.31250065546E+01  0.21138838971E+03  0.21519445232E+03  0.00000000000E+00 0. -1.
<scales pt_clust_5="13000.00000" pt_clust_6="13000.00000" pt_clust_7="13000.00000" pt_clust_8="13000.00000" pt_clust_9="13000.00000"></scales>
<clustering>
<clus scale="   85.304">  5  6 -1 -1</clus>
<clus scale="   89.499">  7  8 -1 -1</clus>
<clus scale="   40.294">  7  9 -1 -1</clus>
<clus scale="  124.922">  2  5  1 -1</clus>
<clus scale="  166.791">  1  5  2 -1</clus>
</clustering>
</event>
<event>
 9    1  0.3312826E-006  0.2395824E+03  0.7546771E-02  0.1136053E+00
          2   -1    0    0  502    0 -0.00000000000E+00  0.00000000000E+00  0.77712494460E+03  0.77712494460E+03  0.00000000000E+00 0. -1.
         21   -1    0    0  501  502  0.00000000000E+00 -0.00000000000E+00 -0.57024484249E+02  0.57024484249E+02  0.00000000000E+00 0. -1.
         23    2    1    2    0    0 -0.25700434200E+02  0.13040627366E+03  0.42088730758E+03  0.45083724741E+03  0.91879211148E+02 0.  0.
         23    2    1    2    0    0  0.83691135222E+02 -0.58959727475E+02  0.23268067419E+03  0.26975998607E+03  0.90275679810E+02 0.  0.
        -11    1    3    3    0    0  0.34796740708E+02  0.48513390610E+02  0.14956686479E+03  0.16104225929E+03  0.00000000000E+00 0.  1.
         11    1    3    3    0    0 -0.60497174908E+02  0.81892883052E+02  0.27132044278E+03  0.28979498812E+03  0.00000000000E+00 0. -1.
        -13    1    4    4    0    0 -0.59786173159E+01 -0.40038668583E+02  0.42754629745E+02  0.58879514363E+02  0.00000000000E+00 0.  1.
         13    1    4    4    0    0  0.89669752537E+02 -0.18921058892E+02  0.18992604445E+03  0.21088047171E+03  0.00000000000E+00 0. -1.
          2    1    1    2  501    0 -0.57990701022E+02 -0.71446546187E+02  0.66532478582E+02  0.11355219537E+03  0.00000000000E+00 0. -1.
<scales pt_clust_5="13000.00000" pt_clust_6="13000.00000" pt_clust_7="13000.00000" pt_clust_8="13000.00000" pt_clust_9="13000.00000"></scales>
<clustering>
<clus scale="   90.276">  7  8 -1 -1</clus>
<clus scale="   91.879">  5  6 -1 -1</clus>
<clus scale="   92.019">  7  9 -1 -1</clus>
<clus scale="  161.580">  1  5  2 -1</clus>
<clus scale="  239.582">  2  5  1 -1</clus>
</clustering>
</event>
<event>
 9    1  0.3312826E-006  0.2483157E+03  0.7546771E-02  0.1146036E+00
          1   -1    0    0  502    0 -0.00000000000E+00  0.00000000000E+00  0.76113247683E+03  0.76113247683E+03  0.00000000000E+00 0. -1.
         21   -1    0    0  501  502  0.00000000000E+00 -0.00000000000E+00 -0.43228774278E+02  0.43228774278E+02  0.00000000000E+00 0. -1.
         23    2    1    2    0    0  0.16348420977E+02 -0.66655084000E+02  0.20989683311E+03  0.23891303326E+03  0.91173383275E+02 0.  0.
         23    2    1    2    0    0 -0.37246414389E+02  0.74909852561E+02  0.52345017032E+03  0.53818353603E+03  0.92965887569E+02 0.  0.
        -11    1    4    4    0    0  0.22427124175E+02 -0.71280879839E+01  0.10667564173E+03  0.10924045989E+03  0.00000000000E+00 0.  1.
         11    1    4    4    0    0 -0.59673538564E+02  0.82037940545E+02  0.41677452858E+03  0.42894307614E+03  0.00000000000E+00 0. -1.
        -13    1    3    3    0    0  0.19196340122E+02 -0.87837570318E+02  0.18756609611E+03  0.20800235249E+03  0.00000000000E+00 0.  1.
         13    1    3    3    0    0 -0.28479191446E+01  0.21182486319E+02  0.22330737004E+02  0.30910680763E+02  0.00000000000E+00 0. -1.
          1    1    1    2  501    0  0.20897993412E+02 -0.82547685609E+01 -0.15443300880E+02  0.27264681820E+02  0.00000000000E+00 0. -1.
<scales pt_clust_5="13000.00000" pt_clust_6="13000.00000" pt_clust_7="13000.00000" pt_clust_8="13000.00000" pt_clust_9="13000.00000"></scales>
<clustering>
<clus scale="   91.173">  7  8 -1 -1</clus>
<clus scale="   92.966">  5  6 -1 -1</clus>
<clus scale="   22.469">  5  9 -1 -1</clus>
<clus scale="  114.117">  1  7  2 -1</clus>
<clus scale="  248.316">  2  5  1 -1</clus>
</clustering>
</event>
<event>
 9    1  0.3312826E-006  0.2302269E+03  0.7546771E-02  0.1136036E+00
         -1   -1    0    0    0  501 -0.00000000000E+00  0.00000000000E+00  0.24616649798E+03  0.24616649798E+03  0.00000000000E+00 0.  1.
         21   -1    0    0  501  502  0.00000000000E+00 -0.00000000000E+00 -0.17576242657E+03  0.17576242657E+03  0.00000000000E+00 0.  1.
         23    2    1    2    0    0 -0.68794264763E+02 -0.14246351995E+03  0.35852785919E+01  0.18220159503E+03  0.90310916436E+02 0.  0.
         23    2    1    2    0    0  0.30175109771E+02  0.52004546429E+02  0.90547826341E+02  0.13854762773E+03  0.85915808766E+02 0.  0.
        -11    1    4    4    0    0  0.34222134587E+01  0.35440651811E+02  0.99627048245E+02  0.10579839360E+03  0.00000000000E+00 0. -1.
         11    1    4    4    0    0  0.26752896312E+02  0.16563894618E+02 -0.90792219038E+01  0.32749234135E+02  0.00000000000E+00 0.  1.
        -13    1    3    3    0    0 -0.16831354105E+02 -0.71254213167E+02  0.43792202243E+02  0.85312451332E+02  0.00000000000E+00 0.  1.
         13    1    3    3    0    0 -0.51962910658E+02 -0.71209306782E+02 -0.40206923651E+02  0.96889143695E+02  0.00000000000E+00 0. -1.
         -1    1    1    2    0  502  0.38619154992E+02  0.90458973520E+02 -0.23729033520E+02  0.10117970179E+03  0.00000000000E+00 0.  1.
<scales pt_clust_5="13000.00000" pt_clust_6="13000.00000" pt_clust_7="13000.00000" pt_clust_8="13000.00000" pt_clust_9="13000.00000"></scales>
<clustering>
<clus scale="   85.916">  5  6 -1 -1</clus>
<clus scale="   90.311">  7  8 -1 -1</clus>
<clus scale="   98.358">  5  9 -1 -1</clus>
<clus scale="  182.166">  1  7  2 -1</clus>
<clus scale="  230.227">  2  5  1 -1</clus>
</clustering>
</event>
<event>
 9    1  0.3312826E-006  0.1367269E+03  0.7546771E-02  0.1229167E+00
          3   -1    0    0  502    0 -0.00000000000E+00  0.00000000000E+00  0.11630318548E+03  0.11630318548E+03  0.00000000000E+00 0. -1.
         21   -1    0    0  501  502  0.00000000000E+00 -0.00000000000E+00 -0.14716900349E+03  0.14716900349E+03  0.00000000000E+00 0.  1.
         23    2    1    2    0    0 -0.24229163552E+02  0.47884756418E+02  0.32691080254E+02  0.11269509358E+03  0.93549319210E+02 0.  0.
         23    2    1    2    0    0  0.91568088686E+01 -0.15412679514E+02 -0.98859006849E+01  0.86262076709E+02  0.83797476139E+02 0.  0.
        -11    1    3    3    0    0  0.34521219900E+02  0.18876170366E+02  0.25254357907E+02  0.46752615161E+02  0.00000000000E+00 0. -1.
         11    1    3    3    0    0 -0.58750383452E+02  0.29008586052E+02  0.74367223470E+01  0.65942478417E+02  0.00000000000E+00 0.  1.
        -13    1    4    4    0    0  0.27524025882E+02 -0.43890318656E+02 -0.60056072987E+01  0.52153613408E+02  0.00000000000E+00 0. -1.
         13    1    4    4    0    0 -0.18367217014E+02  0.28477639142E+02 -0.38802933862E+01  0.34108463300E+02  0.00000000000E+00 0.  1.
          3    1    1    2  501    0  0.15072354683E+02 -0.32472076903E+02 -0.53670997578E+02  0.64515018679E+02  0.00000000000E+00 0. -1.
<scales pt_clust_5="13000.00000" pt_clust_6="13000.00000" pt_clust_7="13000.00000" pt_clust_8="13000.00000" pt_clust_9="13000.00000"></scales>
<clustering>
<clus scale="   83.797">  7  8 -1 -1</clus>
<clus scale="   35.800">  7  9 -1 -1</clus>
<clus scale="   93.549">  5  6 -1 -1</clus>
<clus scale="  107.849">  1  5  2 -1</clus>
<clus scale="  136.727">  2  5  1 -1</clus>
</clustering>
</event>
<event>
 9    1  0.3312826E-006  0.2094056E+03  0.7546771E-02  0.1174606E+00
         21   -1    0    0  501  502  0.00000000000E+00  0.00000000000E+00  0.12176460588E+03  0.12176460588E+03  0.00000000000E+00 0.  1.
         -1   -1    0    0    0  501 -0.00000000000E+00 -0.00000000000E+00 -0.22139429320E+03  0.22139429320E+03  0.00000000000E+00 0.  1.
         23    2    1    2    0    0  0.48264673749E+02 -0.17504073590E+02 -0.90889902398E+02  0.13357096864E+03  0.83332814551E+02 0.  0.
         23    2    1    2    0    0  0.53323167664E+02  0.11747447016E+02 -0.18097656040E+02  0.10740770719E+03  0.90705720263E+02 0.  0.
        -11    1    4    4    0    0  0.76839316976E+02  0.20888966643E+02 -0.72938854514E+01  0.79961430238E+02  0.00000000000E+00 0.  1.
         11    1    4    4    0    0 -0.23516149312E+02 -0.91415196271E+01 -0.10803770589E+02  0.27446276951E+02  0.00000000000E+00 0. -1.
        -13    1    3    3    0    0  0.44964453072E+02 -0.45358746149E+02 -0.82420736679E+02  0.10427078079E+03  0.00000000000E+00 0.  1.
         13    1    3    3    0    0  0.33002206773E+01  0.27854672559E+02 -0.84691657195E+01  0.29300187847E+02  0.00000000000E+00 0. -1.
         -1    1    1    2    0  502 -0.10158784141E+03  0.57566265739E+01  0.93578711204E+01  0.10218022326E+03  0.00000000000E+00 0.  1.
<scales pt_clust_5="13000.00000" pt_clust_6="13000.00000" pt_clust_7="13000.00000" pt_clust_8="13000.00000" pt_clust_9="13000.00000"></scales>
<clustering>
<clus scale="   83.333">  7  8 -1 -1</clus>
<clus scale="   90.706">  5  6 -1 -1</clus>
<clus scale="   97.879">  2  7  1 -1</clus>
<clus scale="   81.086">  5  9 -1 -1</clus>
<clus scale="  209.406">  1  5  2 -1</clus>
</clustering>
</event>
<event>
 9    1  0.3312826E-006  0.1941776E+03  0.7546771E-02  0.1184279E+00
         21   -1    0    0  501  502  0.00000000000E+00  0.00000000000E+00  0.49433475151E+02  0.49433475151E+02  0.00000000000E+00 0.  1.
         -3   -1    0    0    0  501 -0.00000000000E+00 -0.00000000000E+00 -0.54873045257E+03  0.54873045257E+03  0.00000000000E+00 0.  1.
         23    2    1    2    0    0  0.30054611181E+02  0.93669949032E+01 -0.31625543808E+03  0.33131351205E+03  0.93595517549E+02 0.  0.
         23    2    1    2    0    0 -0.30265842888E+02 -0.40348799540E+02 -0.21576819175E+02  0.10244003676E+03  0.86512167553E+02 0.  0.
        -13    1    3    3    0    0  0.18185942775E+02  0.45518955413E+02 -0.25128191087E+03  0.25601816840E+03  0.00000000000E+00 0.  1.
         13    1    3    3    0    0  0.11868668406E+02 -0.36151960509E+02 -0.64973527207E+02  0.75295343655E+02  0.00000000000E+00 0. -1.
        -13    1    4    4    0    0  0.13810875070E+02 -0.28188923358E+02  0.22742084470E+02  0.38762844018E+02  0.00000000000E+00 0.  1.
         13    1    4    4    0    0 -0.44076717958E+02 -0.12159876182E+02 -0.44318903645E+02  0.63677192738E+02  0.00000000000E+00 0. -1.
         -3    1    1    2    0  502  0.21123170675E+00  0.30981804637E+02 -0.16146472016E+03  0.16441037891E+03  0.00000000000E+00 0.  1.
<scales pt_clust_5="13000.00000" pt_clust_6="13000.00000" pt_clust_7="13000.00000" pt_clust_8="13000.00000" pt_clust_9="13000.00000"></scales>
<clustering>
<clus scale="   86.512">  7  8 -1 -1</clus>
<clus scale="   30.983">  7  9 -1 -1</clus>
<clus scale="   93.596">  5  6 -1 -1</clus>
<clus scale="   98.748">  2  5  1 -1</clus>
<clus scale="  194.178">  1  5  2 -1</clus>
</clustering>
</event>
<event>
 9    1  0.3312826E-006  0.3860825E+03  0.7546771E-02  0.1095242E+00
         21   -1    0    0  501  502  0.00000000000E+00  0.00000000000E+00  0.56302690819E+02  0.56302690819E+02  0.00000000000E+00 0.  1.
          2   -1    0    0  502    0 -0.00000000000E+00 -0.00000000000E+00 -0.11264662600E+04  0.11264662600E+04  0.00000000000E+00 0. -1.
         23    2    1    2    0    0  0.33354068870E+02  0.45936117578E+02 -0.14981899950E+03  0.18472393861E+03  0.91948790506E+02 0.  0.
         23    2    1    2    0    0  0.15614645924E+03 -0.52286070786E+01 -0.32569450410E+03  0.37260416604E+03  0.91366840179E+02 0.  0.
        -13    1    3    3    0    0 -0.98735244773E+01  0.42356427844E+02 -0.12991116634E+03  0.13699804599E+03  0.00000000000E+00 0.  1.
         13    1    3    3    0    0  0.43227593347E+02  0.35796897337E+01 -0.19907833162E+02  0.47725892621E+02  0.00000000000E+00 0. -1.
        -13    1    4    4    0    0  0.13838195578E+03 -0.32322765425E+02 -0.21871831905E+03  0.26082950358E+03  0.00000000000E+00 0.  1.
         13    1    4    4    0    0  0.17764503458E+02  0.27094158346E+02 -0.10697618506E+03  0.11177466246E+03  0.00000000000E+00 0. -1.
          2    1    1    2  501    0 -0.18950052811E+03 -0.40707510499E+02 -0.59465006557E+03  0.62544084617E+03  0.00000000000E+00 0. -1.
<scales pt_clust_5="13000.00000" pt_clust_6="13000.00000" pt_clust_7="13000.00000" pt_clust_8="13000.00000" pt_clust_9="13000.00000"></scales>
<clustering>
<clus scale="   91.367">  7  8 -1 -1</clus>
<clus scale="   91.949">  5  6 -1 -1</clus>
<clus scale="  108.061">  2  5  1 -1</clus>
<clus scale="  168.679">  7  9 -1 -1</clus>
<clus scale="  386.083">  1  5  2 -1</clus>
</clustering>
</event>
<event>
 9    1  0.3312826E-006  0.1954400E+03  0.7546771E-02  0.1180406E+00
         21   -1    0    0  501  502  0.00000000000E+00  0.00000000000E+00  0.33405459799E+02  0.33405459799E+02  0.00000000000E+00 0.  1.
          1   -1    0    0  502    0 -0.00000000000E+00 -0.00000000000E+00 -0.68857635107E+03  0.68857635107E+03  0.00000000000E+00 0. -1.
         23    2    1    2    0    0 -0.43805276105E+01 -0.33681975116E+02 -0.18920336907E+03  0.21668729812E+03  0.10000902875E+03 0.  0.
         23    2    1    2    0    0  0.17284518220E+02  0.47410586890E+01 -0.46460119420E+03  0.47357769592E+03  0.90001845615E+02 0.  0.
        -11    1    3    3    0    0 -0.21503687736E+02  0.31536130358E+02 -0.66318713972E+02  0.76518676983E+02  0.00000000000E+00 0.  1.
         11    1    3    3    0    0  0.17123160125E+02 -0.65218105474E+02 -0.12288465510E+03  0.14016862114E+03  0.00000000000E+00 0. -1.
        -11    1    4    4    0    0 -0.18653917719E+01 -0.41366582449E+02 -0.23374842395E+03  0.23738786727E+03  0.00000000000E+00 0.  1.
         11    1    4    4    0    0  0.19149909992E+02  0.46107641138E+02 -0.23085277025E+03  0.23618982865E+03  0.00000000000E+00 0. -1.
          1    1    1    2  501    0 -0.12903990610E+02  0.28940916427E+02 -0.13663280011E+01  0.31716816825E+02  0.00000000000E+00 0. -1.
<scales pt_clust_5="13000.00000" pt_clust_6="13000.00000" pt_clust_7="13000.00000" pt_clust_8="13000.00000" pt_clust_9="13000.00000"></scales>
<clustering>
<clus scale="   90.002">  7  8 -1 -1</clus>
<clus scale="   31.687">  7  9 -1 -1</clus>
<clus scale="  100.009">  5  6 -1 -1</clus>
<clus scale="  105.620">  2  5  1 -1</clus>
<clus scale="  195.440">  1  5  2 -1</clus>
</clustering>
</event>
<event>
 9    1  0.3312826E-006  0.7399917E+03  0.7546771E-02  0.1009302E+00
         21   -1    0    0  501  502  0.00000000000E+00  0.00000000000E+00  0.10452042638E+03  0.10452042638E+03  0.00000000000E+00 0.  1.
          2   -1    0    0  502    0 -0.00000000000E+00 -0.00000000000E+00 -0.20170588711E+04  0.20170588711E+04  0.00000000000E+00 0.  1.
         23    2    1    2    0    0  0.92965189114E+02 -0.12044059369E+03 -0.32656756358E+03  0.37146749555E+03  0.90516648584E+02 0.  0.
         23    2    1    2    0    0 -0.11498719422E+03 -0.24850692146E+03 -0.31923662905E+03  0.43055774730E+03  0.92142300744E+02 0.  0.
        -11    1    3    3    0    0  0.83637945522E+02 -0.34620328932E+02 -0.17575519738E+03  0.19769613682E+03  0.00000000000E+00 0.  1.
         11    1    3    3    0    0  0.93272435923E+01 -0.85820264760E+02 -0.15081236620E+03  0.17377135873E+03  0.00000000000E+00 0. -1.
        -11    1    4    4    0    0 -0.54897157910E+02 -0.20993440322E+03 -0.22886941732E+03  0.31538446662E+03  0.00000000000E+00 0.  1.
         11    1    4    4    0    0 -0.60090036308E+02 -0.38572518243E+02 -0.90367211727E+02  0.11517328068E+03  0.00000000000E+00 0. -1.
          2    1    1    2  501    0  0.22022005103E+02  0.36894751515E+03 -0.12667342521E+04  0.13195540546E+04  0.00000000000E+00 0.  1.
<scales pt_clust_5="13000.00000" pt_clust_6="13000.00000" pt_clust_7="13000.00000" pt_clust_8="13000.00000" pt_clust_9="13000.00000"></scales>
<clustering>
<clus scale="   90.517">  5  6 -1 -1</clus>
<clus scale="   92.142">  7  8 -1 -1</clus>
<clus scale="  177.036">  2  5  1 -1</clus>
<clus scale="  291.197">  7  9 -1 -1</clus>
<clus scale="  739.992">  1  5  2 -1</clus>
</clustering>
</event>
<event>
 9    1  0.3312826E-006  0.3741212E+03  0.7546771E-02  0.1098123E+00
          2   -1    0    0  502    0 -0.00000000000E+00  0.00000000000E+00  0.25064132296E+03  0.25064132296E+03  0.00000000000E+00 0. -1.
         21   -1    0    0  501  502  0.00000000000E+00 -0.00000000000E+00 -0.61630395723E+03  0.61630395723E+03  0.00000000000E+00 0.  1.
         23    2    1    2    0    0 -0.72376632998E+01  0.58878179741E+02  0.17660476629E+03  0.20814287882E+03  0.92818051635E+02 0.  0.
         23    2    1    2    0    0 -0.54075474132E+02 -0.19275611894E+03 -0.26163145186E+03  0.34188105604E+03  0.91392349731E+02 0.  0.
        -11    1    4    4    0    0 -0.17840466182E+02 -0.14928285623E+03 -0.13059304291E+03  0.19914365733E+03  0.00000000000E+00 0.  1.
         11    1    4    4    0    0 -0.36235007950E+02 -0.43473262703E+02 -0.13103840895E+03  0.14273739871E+03  0.00000000000E+00 0. -1.
        -13    1    3    3    0    0  0.27271562249E+02  0.97277994610E+00  0.11016780493E+03  0.11349726716E+03  0.00000000000E+00 0.  1.
         13    1    3    3    0    0 -0.34509225549E+02  0.57905399795E+02  0.66436961351E+02  0.94645611662E+02  0.00000000000E+00 0. -1.
          2    1    1    2  501    0  0.61313137432E+02  0.13387793919E+03 -0.28063594870E+03  0.31692134533E+03  0.00000000000E+00 0. -1.
<scales pt_clust_5="13000.00000" pt_clust_6="13000.00000" pt_clust_7="13000.00000" pt_clust_8="13000.00000" pt_clust_9="13000.00000"></scales>
<clustering>
<clus scale="   91.392">  5  6 -1 -1</clus>
<clus scale="   92.818">  7  8 -1 -1</clus>
<clus scale="  110.155">  1  7  2 -1</clus>
<clus scale="  163.267">  5  9 -1 -1</clus>
<clus scale="  374.121">  2  5  1 -1</clus>
</clustering>
</event>
<event>
 9    1  0.3312826E-006  0.2639312E+03  0.7546771E-02  0.1145021E+00
         21   -1    0    0  501  502  0.00000000000E+00  0.00000000000E+00  0.18819427242E+03  0.18819427242E+03  0.00000000000E+00 0.  1.
          2   -1    0    0  502    0 -0.00000000000E+00 -0.00000000000E+00 -0.17677968738E+03  0.17677968738E+03  0.00000000000E+00 0. -1.
         23    2    1    2    0    0  0.87228616304E+01  0.35556875588E+02 -0.19293353466E+02  0.99262347133E+02  0.90224167238E+02 0.  0.
         23    2    1    2    0    0 -0.10198950277E+03  0.35403456570E+02  0.48744805112E+02  0.14713942518E+03  0.87285113313E+02 0.  0.
        -11    1    4    4    0    0 -0.74461999502E+02  0.78657715343E+01  0.70238430494E+02  0.10266399978E+03  0.00000000000E+00 0.  1.
         11    1    4    4    0    0 -0.27527503264E+02  0.27537685035E+02 -0.21493625382E+02  0.44475425407E+02  0.00000000000E+00 0. -1.
        -13    1    3    3    0    0  0.44247052505E+02  0.57493844576E+01 -0.27147741783E+02  0.52228890099E+02  0.00000000000E+00 0.  1.
         13    1    3    3    0    0 -0.35524190875E+02  0.29807491131E+02  0.78543883171E+01  0.47033457035E+02  0.00000000000E+00 0. -1.
          2    1    1    2  501    0  0.93266641135E+02 -0.70960332158E+02 -0.18036866608E+02  0.11857218749E+03  0.00000000000E+00 0. -1.
<scales pt_clust_5="13000.00000" pt_clust_6="13000.00000" pt_clust_7="13000.00000" pt_clust_8="13000.00000" pt_clust_9="13000.00000"></scales>
<clustering>
<clus scale="   87.285">  5  6 -1 -1</clus>
<clus scale="   90.224">  7  8 -1 -1</clus>
<clus scale="   97.369">  2  7  1 -1</clus>
<clus scale="  110.451">  5  9 -1 -1</clus>
<clus scale="  263.931">  1  5  2 -1</clus>
</clustering>
</event>
<event>
 9    1  0.3312826E-006  0.3379970E+03  0.7546771E-02  0.1088127E+00
         21   -1    0    0  501  502  0.00000000000E+00  0.00000000000E+00  0.96140547501E+03  0.96140547501E+03  0.00000000000E+00 0.  1.
         -3   -1    0    0    0  501 -0.00000000000E+00 -0.00000000000E+00 -0.78896488779E+02  0.78896488779E+02  0.00000000000E+00 0.  1.
         23    2    1    2    0    0  0.13270773603E+03 -0.10829567811E+03  0.20075953465E+03  0.27936549096E+03  0.91659094957E+02 0.  0.
         23    2    1    2    0    0  0.39996219142E+00  0.42234943954E+02  0.65123781802E+02  0.12665822430E+03  0.10008620467E+03 0.  0.
        -13    1    3    3    0    0  0.35050112649E+02 -0.23978245384E+02  0.21424310364E+01  0.42521249501E+02  0.00000000000E+00 0.  1.
         13    1    3    3    0    0  0.97657623386E+02 -0.84317432725E+02  0.19861710361E+03  0.23684424146E+03  0.00000000000E+00 0. -1.
        -13    1    4    4    0    0 -0.37056330594E+02  0.55906707091E+02  0.29823754162E+02  0.73404276764E+02  0.00000000000E+00 0. -1.
         13    1    4    4    0    0  0.37456292785E+02 -0.13671763137E+02  0.35300027639E+02  0.53253947533E+02  0.00000000000E+00 0.  1.
         -3    1    1    2    0  502 -0.13310769823E+03  0.66060734156E+02  0.61662566978E+03  0.63427824853E+03  0.00000000000E+00 0.  1.
<scales pt_clust_5="13000.00000" pt_clust_6="13000.00000" pt_clust_7="13000.00000" pt_clust_8="13000.00000" pt_clust_9="13000.00000"></scales>
<clustering>
<clus scale="   91.659">  5  6 -1 -1</clus>
<clus scale="  100.086">  7  8 -1 -1</clus>
<clus scale="  148.599">  7  9 -1 -1</clus>
<clus scale="  194.270">  2  5  1 -1</clus>
<clus scale="  337.997">  1  5  2 -1</clus>
</clustering>
</event>
<event>
 9    1  0.3312826E-006  0.1431894E+03  0.7546771E-02  0.1221791E+00
         21   -1    0    0  501  502  0.00000000000E+00  0.00000000000E+00  0.75936282228E+02  0.75936282228E+02  0.00000000000E+00 0. -1.
          2   -1    0    0  502    0 -0.00000000000E+00 -0.00000000000E+00 -0.21603938231E+03  0.21603938231E+03  0.00000000000E+00 0. -1.
         23    2    1    2    0    0  0.58078175919E+02 -0.14347553407E+02 -0.84816502960E+02  0.13848363634E+03  0.91678522855E+02 0.  0.
         23    2    1    2    0    0 -0.35914152433E+02 -0.16764980352E+02 -0.51442047269E+02  0.11509913488E+03  0.95029657006E+02 0.  0.
        -11    1    4    4    0    0 -0.59585261758E+02 -0.32700157855E+02 -0.53487894410E+02  0.86490800614E+02  0.00000000000E+00 0. -1.
         11    1    4    4    0    0  0.23671109325E+02  0.15935177503E+02  0.20458471404E+01  0.28608334262E+02  0.00000000000E+00 0.  1.
        -11    1    3    3    0    0 -0.13981859275E+02 -0.28955841972E+02 -0.10213481492E+02  0.33737936767E+02  0.00000000000E+00 0.  1.
         11    1    3    3    0    0  0.72060035194E+02  0.14608288565E+02 -0.74603021468E+02  0.10474569957E+03  0.00000000000E+00 0. -1.
          2    1    1    2  501    0 -0.22164023485E+02  0.31112533759E+02 -0.38445498513E+01  0.38392893320E+02  0.00000000000E+00 0. -1.
<scales pt_clust_5="13000.00000" pt_clust_6="13000.00000" pt_clust_7="13000.00000" pt_clust_8="13000.00000" pt_clust_9="13000.00000"></scales>
<clustering>
<clus scale="   91.679">  7  8 -1 -1</clus>
<clus scale="   95.030">  5  6 -1 -1</clus>
<clus scale="   38.200">  5  9 -1 -1</clus>
<clus scale="  109.471">  2  7  1 -1</clus>
<clus scale="  143.189">  1  5  2 -1</clus>
</clustering>
</event>
<event>
 9    1  0.3312826E-006  0.2354322E+03  0.7546771E-02  0.1126368E+00
          1   -1    0    0  502    0 -0.00000000000E+00  0.00000000000E+00  0.12920497958E+03  0.12920497958E+03  0.00000000000E+00 0. -1.
         21   -1    0    0  501  502  0.00000000000E+00 -0.00000000000E+00 -0.40734399796E+03  0.40734399796E+03  0.00000000000E+00 0.  1.
         23    2    1    2    0    0  0.12808230586E+03  0.13242229642E+03 -0.18153074023E+03  0.28206622172E+03  0.11254866558E+03 0.  0.
         23    2    1    2    0    0 -0.41484105197E+02 -0.78874940310E+02 -0.20360665390E+02  0.12728108070E+03  0.88564832837E+02 0.  0.
        -11    1    4    4    0    0 -0.39116797474E+02 -0.49315257456E+01  0.18683090369E+02  0.43629137701E+02  0.00000000000E+00 0. -1.
         11    1    4    4    0    0 -0.23673077234E+01 -0.73943414564E+02 -0.39043755760E+02  0.83651942996E+02  0.00000000000E+00 0.  1.
        -11    1    3    3    0    0  0.86949538271E+02  0.26729989152E+02 -0.12701764140E+03  0.15623122528E+03  0.00000000000E+00 0.  1.
         11    1    3    3    0    0  0.41132767590E+02  0.10569230726E+03 -0.54513098822E+02  0.12583499643E+03  0.00000000000E+00 0. -1.
          1    1    1    2  501    0 -0.86598200664E+02 -0.53547356106E+02 -0.76247612765E+02  0.12720167513E+03  0.00000000000E+00 0. -1.
<scales pt_clust_5="13000.00000" pt_clust_6="13000.00000" pt_clust_7="13000.00000" pt_clust_8="13000.00000" pt_clust_9="13000.00000"></scales>
<clustering>
<clus scale="   88.565">  5  6 -1 -1</clus>
<clus scale="  101.816">  5  9 -1 -1</clus>
<clus scale="  112.549">  7  8 -1 -1</clus>
<clus scale="  215.889">  1  7  2 -1</clus>
<clus scale="  235.432">  2  5  1 -1</clus>
</clustering>
</event>
<event>
 9    1  0.3312826E-006  0.5744857E+03  0.7546771E-02  0.1030008E+00
         21   -1    0    0  501  502  0.00000000000E+00  0.00000000000E+00  0.19823928674E+03  0.19823928674E+03  0.00000000000E+00 0. -1.
          1   -1    0    0  502    0 -0.00000000000E+00 -0.00000000000E+00 -0.82353985605E+03  0.82353985605E+03  0.00000000000E+00 0. -1.
         23    2    1    2    0    0 -0.12249444409E+03 -0.13226388008E+03 -0.29964952939E+03  0.36141376030E+03  0.91276737786E+02 0.  0.
         23    2    1    2    0    0  0.10908738247E+03  0.66619917503E+01 -0.45717446898E+03  0.47800860019E+03  0.86829071297E+02 0.  0.
        -11    1    3    3    0    0 -0.18159278236E+00 -0.51380957807E+02 -0.11234155487E+03  0.12353404693E+03  0.00000000000E+00 0. -1.
         11    1    3    3    0    0 -0.12231285131E+03 -0.80882922277E+02 -0.18730797452E+03  0.23787971337E+03  0.00000000000E+00 0.  1.
        -11    1    4    4    0    0  0.64561236114E+02 -0.37535444397E+02 -0.20604455377E+03  0.21916071941E+03  0.00000000000E+00 0.  1.
         11    1    4    4    0    0  0.44526146358E+02  0.44197436147E+02 -0.25112991521E+03  0.25884788078E+03  0.00000000000E+00 0. -1.
          1    1    1    2  501    0  0.13407061621E+02  0.12560188833E+03  0.13152342907E+03  0.18235678229E+03  0.00000000000E+00 0. -1.
<scales pt_clust_5="13000.00000" pt_clust_6="13000.00000" pt_clust_7="13000.00000" pt_clust_8="13000.00000" pt_clust_9="13000.00000"></scales>
<clustering>
<clus scale="   86.829">  7  8 -1 -1</clus>
<clus scale="   91.277">  5  6 -1 -1</clus>
<clus scale="  126.315">  7  9 -1 -1</clus>
<clus scale="  202.065">  2  5  1 -1</clus>
<clus scale="  574.486">  1  5  2 -1</clus>
</clustering>
</event>
<event>
 9    1  0.3312826E-006  0.3646820E+03  0.7546771E-02  0.1089845E+00
          2   -1    0    0  502    0 -0.00000000000E+00  0.00000000000E+00  0.16796006864E+03  0.16796006864E+03  0.00000000000E+00 0. -1.
         21   -1    0    0  501  502  0.00000000000E+00 -0.00000000000E+00 -0.47197781819E+03  0.47197781819E+03  0.00000000000E+00 0. -1.
         23    2    1    2    0    0 -0.10285040251E+03  0.53796930903E+02  0.23659128259E+02  0.14966745885E+03  0.91478296983E+02 0.  0.
         23    2    1    2    0    0  0.14285602384E+03  0.93109363416E+02 -0.10301338523E+03  0.21887478700E+03  0.90648870617E+02 0.  0.
        -11    1    3    3    0    0 -0.54680994114E+02  0.62846161326E+02  0.46708945895E+02  0.95505898966E+02  0.00000000000E+00 0. -1.
         11    1    3    3    0    0 -0.48169408395E+02 -0.90492304234E+01 -0.23049817636E+02  0.54161559888E+02  0.00000000000E+00 0.  1.
        -11    1    4    4    0    0  0.14847853373E+03  0.61052989179E+02 -0.84167838399E+02  0.18126656473E+03  0.00000000000E+00 0. -1.
         11    1    4    4    0    0 -0.56225098985E+01  0.32056374237E+02 -0.18845546831E+02  0.37608222268E+02  0.00000000000E+00 0.  1.
          2    1    1    2  501    0 -0.40005621327E+02 -0.14690629432E+03 -0.22466349258E+03  0.27139564099E+03  0.00000000000E+00 0. -1.
<scales pt_clust_5="13000.00000" pt_clust_6="13000.00000" pt_clust_7="13000.00000" pt_clust_8="13000.00000" pt_clust_9="13000.00000"></scales>
<clustering>
<clus scale="   90.649">  7  8 -1 -1</clus>
<clus scale="   91.478">  5  6 -1 -1</clus>
<clus scale="  147.786">  1  5  2 -1</clus>
<clus scale="  148.718">  7  9 -1 -1</clus>
<clus scale="  364.682">  2  5  1 -1</clus>
</clustering>
</event>
<event>
 9    1  0.3312826E-006  0.6673971E+03  0.7546771E-02  0.1022236E+00
          1   -1    0    0  502    0 -0.00000000000E+00  0.00000000000E+00  0.53132505867E+03  0.53132505867E+03  0.00000000000E+00 0. -1.
         21   -1    0    0  501  502  0.00000000000E+00 -0.00000000000E+00 -0.33877224409E+03  0.33877224409E+03  0.00000000000E+00 0. -1.
         23    2    1    2    0    0  0.13488297653E+03  0.15595779829E+01 -0.32437723683E+02  0.16579645271E+03  0.90776693983E+02 0.  0.
         23    2    1    2    0    0 -0.14924443843E+03  0.30975900311E+03  0.13435689071E+03  0.37973965615E+03  0.89027467469E+02 0.  0.
        -13    1    4    4    0    0 -0.14526735147E+03  0.21006037100E+03  0.97025309020E+02  0.27320664973E+03  0.00000000000E+00 0. -1.
         13    1    4    4    0    0 -0.39770869604E+01  0.99698632111E+02  0.37331581687E+02  0.10653300642E+03  0.00000000000E+00 0.  1.
        -13    1    3    3    0    0  0.22004033247E+02 -0.31488704642E+02  0.11719941616E+02  0.40163080442E+02  0.00000000000E+00 0.  1.
         13    1    3    3    0    0  0.11287894329E+03  0.33048282624E+02 -0.44157665299E+02  0.12563337226E+03  0.00000000000E+00 0. -1.
          1    1    1    2  501    0  0.14361461901E+02 -0.31131858109E+03  0.90633647562E+02  0.32456119391E+03  0.00000000000E+00 0. -1.
<scales pt_clust_5="13000.00000" pt_clust_6="13000.00000" pt_clust_7="13000.00000" pt_clust_8="13000.00000" pt_clust_9="13000.00000"></scales>
<clustering>
<clus scale="   89.027">  5  6 -1 -1</clus>
<clus scale="   90.777">  7  8 -1 -1</clus>
<clus scale="  162.592">  1  7  2 -1</clus>
<clus scale="  319.460">  5  9 -1 -1</clus>
<clus scale="  667.397">  2  5  1 -1</clus>
</clustering>
</event>
<event>
 9    1  0.3312826E-006  0.6751720E+03  0.7546771E-02  0.1016843E+00
         21   -1    0    0  501  502  0.00000000000E+00  0.00000000000E+00  0.18108995611E+04  0.18108995611E+04  0.00000000000E+00 0. -1.
          2   -1    0    0  502    0 -0.00000000000E+00 -0.00000000000E+00 -0.20564684743E+03  0.20564684743E+03  0.00000000000E+00 0. -1.
         23    2    1    2    0    0 -0.14427001716E+03  0.36151330824E+02 -0.79696287344E+02  0.20135761880E+03  0.10987554715E+03 0.  0.
         23    2    1    2    0    0 -0.20345626206E+03 -0.19193589772E+03  0.73335693062E+03  0.79014739302E+03  0.91031179280E+02 0.  0.
        -13    1    3    3    0    0 -0.18224155323E+02 -0.35455153571E+02 -0.14709363641E+02  0.42491800747E+02  0.00000000000E+00 0. -1.
         13    1    3    3    0    0 -0.12604586183E+03  0.71606484395E+02 -0.64986923703E+02  0.15886581805E+03  0.00000000000E+00 0.  1.
        -13    1    4    4    0    0 -0.24485557508E+02 -0.77010780709E+02  0.22593355366E+03  0.23995035641E+03  0.00000000000E+00 0.  1.
         13    1    4    4    0    0 -0.17897070455E+03 -0.11492511701E+03  0.50742337696E+03  0.55019703661E+03  0.00000000000E+00 0. -1.
          2    1    1    2  501    0  0.34772627921E+03  0.15578456690E+03  0.95159207035E+03  0.10250413967E+04  0.00000000000E+00 0. -1.
<scales pt_clust_5="13000.00000" pt_clust_6="13000.00000" pt_clust_7="13000.00000" pt_clust_8="13000.00000" pt_clust_9="13000.00000"></scales>
<clustering>
<clus scale="   91.031">  7  8 -1 -1</clus>
<clus scale="  109.876">  5  6 -1 -1</clus>
<clus scale="  184.915">  2  5  1 -1</clus>
<clus scale="  319.354">  7  9 -1 -1</clus>
<clus scale="  675.172">  1  5  2 -1</clus>
</clustering>
</event>
<event>
 9    1  0.3312826E-006  0.1382356E+03  0.7546771E-02  0.1221763E+00
         21   -1    0    0  501  502  0.00000000000E+00  0.00000000000E+00  0.11282871661E+03  0.11282871661E+03  0.00000000000E+00 0. -1.
          1   -1    0    0  502    0 -0.00000000000E+00 -0.00000000000E+00 -0.18453853314E+03  0.18453853314E+03  0.00000000000E+00 0. -1.
         23    2    1    2    0    0  0.35958723890E+02  0.67927615338E+02 -0.98456390496E+02  0.15656784801E+03  0.94406776511E+02 0.  0.
         23    2    1    2    0    0 -0.41743628502E+02 -0.24747910717E+02  0.10180095533E+02  0.94190387370E+02  0.80082489488E+02 0.  0.
        -11    1    4    4    0    0 -0.17988286334E+02 -0.53376896617E+02  0.38854560278E+01  0.56460325063E+02  0.00000000000E+00 0.  1.
         11    1    4    4    0    0 -0.23755342168E+02  0.28628985900E+02  0.62946395049E+01  0.37730062307E+02  0.00000000000E+00 0. -1.
        -11    1    3    3    0    0  0.40826623442E+01  0.67031163698E+02 -0.10439627965E+03  0.12413069017E+03  0.00000000000E+00 0. -1.
         11    1    3    3    0    0  0.31876061545E+02  0.89645164066E+00  0.59398891536E+01  0.32437157834E+02  0.00000000000E+00 0.  1.
          1    1    1    2  501    0  0.57849046126E+01 -0.43179704621E+02  0.16566478435E+02  0.46609014367E+02  0.00000000000E+00 0. -1.
<scales pt_clust_5="13000.00000" pt_clust_6="13000.00000" pt_clust_7="13000.00000" pt_clust_8="13000.00000" pt_clust_9="13000.00000"></scales>
<clustering>
<clus scale="   80.082">  5  6 -1 -1</clus>
<clus scale="   43.566">  5  9 -1 -1</clus>
<clus scale="   94.407">  7  8 -1 -1</clus>
<clus scale="  121.737">  2  7  1 -1</clus>
<clus scale="  138.236">  1  5  2 -1</clus>
</clustering>
</event>
<event>
 9    1  0.3312826E-006  0.4198563E+03  0.7546771E-02  0.1092326E+00
         21   -1    0    0  501  502  0.00000000000E+00  0.00000000000E+00  0.11932837383E+03  0.11932837383E+03  0.00000000000E+00 0. -1.
          4   -1    0    0  502    0 -0.00000000000E+00 -0.00000000000E+00 -0.57364486868E+03  0.57364486868E+03  0.00000000000E+00 0. -1.
         23    2    1    2    0    0  0.49906625277E+01 -0.11577645106E+02 -0.14672657399E+03  0.17250146305E+03  0.89828273173E+02 0.  0.
         23    2    1    2    0    0  0.15839198860E+03 -0.99467124783E+02 -0.89632295914E+02  0.22631135064E+03  0.90560189879E+02 0.  0.
        -11    1    3    3    0    0 -0.32026175010E+02 -0.19863541029E+02 -0.25560749306E+02  0.45536667127E+02  0.00000000000E+00 0. -1.
         11    1    3    3    0    0  0.37016837538E+02  0.82858959237E+01 -0.12116582468E+03  0.12696479592E+03  0.00000000000E+00 0.  1.
        -13    1    4    4    0    0  0.31103970150E+02 -0.53919100458E+02 -0.62915615775E+02  0.88504808127E+02  0.00000000000E+00 0.  1.
         13    1    4    4    0    0  0.12728801845E+03 -0.45548024325E+02 -0.26716680139E+02  0.13780654251E+03  0.00000000000E+00 0. -1.
          4    1    1    2  501    0 -0.16338265113E+03  0.11104476989E+03 -0.21795762495E+03  0.29416042882E+03  0.00000000000E+00 0. -1.
<scales pt_clust_5="13000.00000" pt_clust_6="13000.00000" pt_clust_7="13000.00000" pt_clust_8="13000.00000" pt_clust_9="13000.00000"></scales>
<clustering>
<clus scale="   89.828">  5  6 -1 -1</clus>
<clus scale="   90.560">  7  8 -1 -1</clus>
<clus scale="   90.709">  2  5  1 -1</clus>
<clus scale="  191.015">  7  9 -1 -1</clus>
<clus scale="  419.856">  1  5  2 -1</clus>
</clustering>
</event>
<event>
 9    1  0.3312826E-006  0.4721176E+03  0.7546771E-02  0.1075282E+00
         21   -1    0    0  501  502  0.00000000000E+00  0.00000000000E+00  0.80952018703E+03  0.80952018703E+03  0.00000000000E+00 0. -1.
          1   -1    0    0  502    0 -0.00000000000E+00 -0.00000000000E+00 -0.10736037856E+03  0.10736037856E+03  0.00000000000E+00 0. -1.
         23    2    1    2    0    0  0.18587119713E+01 -0.40823217234E+02  0.51704228361E+02  0.11314708030E+03  0.91972521305E+02 0.  0.
         23    2    1    2    0    0  0.11913931777E+03  0.53856966707E+02  0.19705523897E+02  0.16135039457E+03  0.92471034674E+02 0.  0.
        -11    1    4    4    0    0  0.10219779216E+03  0.75500500139E+02 -0.79027547009E+00  0.12706430962E+03  0.00000000000E+00 0. -1.
         11    1    4    4    0    0  0.16941525611E+02 -0.21643533432E+02  0.20495799367E+02  0.34286084950E+02  0.00000000000E+00 0.  1.
        -13    1    3    3    0    0  0.38825265282E+02  0.74964970079E+01  0.24381287378E+02  0.46454772261E+02  0.00000000000E+00 0.  1.
         13    1    3    3    0    0 -0.36966553310E+02 -0.48319714242E+02  0.27322940983E+02  0.66692308042E+02  0.00000000000E+00 0. -1.
          1    1    1    2  501    0 -0.12099802974E+03 -0.13033749473E+02  0.63075005621E+03  0.64238309072E+03  0.00000000000E+00 0. -1.
<scales pt_clust_5="13000.00000" pt_clust_6="13000.00000" pt_clust_7="13000.00000" pt_clust_8="13000.00000" pt_clust_9="13000.00000"></scales>
<clustering>
<clus scale="   91.973">  7  8 -1 -1</clus>
<clus scale="   92.471">  5  6 -1 -1</clus>
<clus scale="  100.643">  2  7  1 -1</clus>
<clus scale="  121.929">  5  9 -1 -1</clus>
<clus scale="  472.118">  1  5  2 -1</clus>
</clustering>
</event>
<event>
 9    1  0.3312826E-006  0.3518734E+03  0.7546771E-02  0.1095959E+00
         21   -1    0    0  501  502  0.00000000000E+00  0.00000000000E+00  0.25679741786E+03  0.25679741786E+03  0.00000000000E+00 0.  1.
          3   -1    0    0  502    0 -0.00000000000E+00 -0.00000000000E+00 -0.23567236778E+03  0.23567236778E+03  0.00000000000E+00 0. -1.
         23    2    1    2    0    0 -0.16701531965E+01 -0.10355287567E+03  0.92779299959E+01  0.14039704808E+03  0.94335908606E+02 0.  0.
         23    2    1    2    0    0  0.15614715160E+03  0.60366490275E+02 -0.24812090464E+01  0.19103389773E+03  0.91987757784E+02 0.  0.
        -11    1    4    4    0    0  0.12475881653E+03  0.58815730998E+02  0.34823739316E+02  0.14225591494E+03  0.00000000000E+00 0.  1.
         11    1    4    4    0    0  0.31388335071E+02  0.15507592767E+01 -0.37304948363E+02  0.48777982792E+02  0.00000000000E+00 0. -1.
        -13    1    3    3    0    0  0.20262406950E+02 -0.10417329461E+03  0.29929821084E+02  0.11026529207E+03  0.00000000000E+00 0.  1.
         13    1    3    3    0    0 -0.21932560147E+02  0.62041894460E+00 -0.20651891088E+02  0.30131756002E+02  0.00000000000E+00 0. -1.
          3    1    1    2  501    0 -0.15447699841E+03  0.43186385394E+02  0.14328329130E+02  0.16103883984E+03  0.00000000000E+00 0. -1.
<scales pt_clust_5="13000.00000" pt_clust_6="13000.00000" pt_clust_7="13000.00000" pt_clust_8="13000.00000" pt_clust_9="13000.00000"></scales>
<clustering>
<clus scale="   91.988">  5  6 -1 -1</clus>
<clus scale="   94.336">  7  8 -1 -1</clus>
<clus scale="  140.090">  2  7  1 -1</clus>
<clus scale="  155.204">  5  9 -1 -1</clus>
<clus scale="  351.873">  1  5  2 -1</clus>
</clustering>
</event>
<event>
 9    1  0.3312826E-006  0.1912502E+03  0.7546771E-02  0.1187772E+00
          3   -1    0    0  502    0 -0.00000000000E+00  0.00000000000E+00  0.25265526078E+03  0.25265526078E+03  0.00000000000E+00 0. -1.
         21   -1    0    0  501  502  0.00000000000E+00 -0.00000000000E+00 -0.82711284720E+02  0.82711284720E+02  0.00000000000E+00 0. -1.
         23    2    1    2    0    0  0.13682140817E+02 -0.18364335719E+02  0.76757213448E+02  0.12262156684E+03  0.92843572927E+02 0.  0.
         23    2    1    2    0    0  0.13803213765E+02 -0.16658732989E+01  0.13202833824E+03  0.16111822216E+03  0.91292363146E+02 0.  0.
        -13    1    4    4    0    0 -0.26314733340E+02  0.27530852240E+02  0.33158189575E+02  0.50496322160E+02  0.00000000000E+00 0.  1.
         13    1    4    4    0    0  0.40117947104E+02 -0.29196725539E+02  0.98870148668E+02  0.11062190000E+03  0.00000000000E+00 0. -1.
        -13    1    3    3    0    0  0.45893112319E+02 -0.46324175094E+01  0.74384514595E+02  0.87525385242E+02  0.00000000000E+00 0. -1.
         13    1    3    3    0    0 -0.32210971501E+02 -0.13731918210E+02  0.23726988534E+01  0.35096181596E+02  0.00000000000E+00 0.  1.
          3    1    1    2  501    0 -0.27485354582E+02  0.20030209018E+02 -0.38841575629E+02  0.51626756504E+02  0.00000000000E+00 0. -1.
<scales pt_clust_5="13000.00000" pt_clust_6="13000.00000" pt_clust_7="13000.00000" pt_clust_8="13000.00000" pt_clust_9="13000.00000"></scales>
<clustering>
<clus scale="   91.292">  5  6 -1 -1</clus>
<clus scale="   34.010">  5  9 -1 -1</clus>
<clus scale="   92.844">  7  8 -1 -1</clus>
<clus scale="   95.626">  1  7  2 -1</clus>
<clus scale="  191.250">  2  5  1 -1</clus>
</clustering>
</event>
<event>
 9    1  0.3312826E-006  0.1293286E+03  0.7546771E-02  0.1237488E+00
         -3   -1    0    0    0  501 -0.00000000000E+00  0.00000000000E+00  0.15414177392E+03  0.15414177392E+03  0.00000000000E+00 0.  1.
         21   -1    0    0  501  502  0.00000000000E+00 -0.00000000000E+00 -0.91534131776E+02  0.91534131776E+02  0.00000000000E+00 0. -1.
         23    2    1    2    0    0  0.23383699791E+02 -0.40517753272E+02  0.18299557393E+02  0.10896782311E+03  0.96698639739E+02 0.  0.
         23    2    1    2    0    0 -0.27780580577E+02 -0.46701823591E+01  0.46227537180E+02  0.91266181376E+02  0.73477611616E+02 0.  0.
        -11    1    3    3    0    0  0.44876020656E+02  0.58747343006E+01 -0.15313502237E+02  0.47779421133E+02  0.00000000000E+00 0. -1.
         11    1    3    3    0    0 -0.21492320865E+02 -0.46392487573E+02  0.33613059630E+02  0.61188401982E+02  0.00000000000E+00 0.  1.
        -13    1    4    4    0    0  0.17227989364E+01 -0.35408443796E+02  0.15262551687E+02  0.38596261635E+02  0.00000000000E+00 0. -1.
         13    1    4    4    0    0 -0.29503379513E+02  0.30738261437E+02  0.30964985493E+02  0.52669919740E+02  0.00000000000E+00 0.  1.
         -3    1    1    2    0  502  0.43968807853E+01  0.45187935631E+02 -0.19194524317E+01  0.45441901203E+02  0.00000000000E+00 0.  1.
<scales pt_clust_5="13000.00000" pt_clust_6="13000.00000" pt_clust_7="13000.00000" pt_clust_8="13000.00000" pt_clust_9="13000.00000"></scales>
<clustering>
<clus scale="   73.478">  7  8 -1 -1</clus>
<clus scale="   45.401">  7  9 -1 -1</clus>
<clus scale="   96.699">  5  6 -1 -1</clus>
<clus scale="  107.420">  1  5  2 -1</clus>
<clus scale="  129.329">  2  5  1 -1</clus>
</clustering>
</event>
<event>
 9    1  0.3312826E-006  0.1288226E+03  0.7546771E-02  0.1235637E+00
          2   -1    0    0  502    0 -0.00000000000E+00  0.00000000000E+00  0.31381563728E+03  0.31381563728E+03  0.00000000000E+00 0. -1.
         21   -1    0    0  501  502  0.00000000000E+00 -0.00000000000E+00 -0.10319175173E+03  0.10319175173E+03  0.00000000000E+00 0.  1.
         23    2    1    2    0    0  0.56210855324E+02  0.36015246039E+02  0.25651642006E+03  0.28025433052E+03  0.91022292930E+02 0.  0.
         23    2    1    2    0    0 -0.35869531073E+02 -0.27670992563E+02 -0.50526849421E+02  0.11428368126E+03  0.91953739464E+02 0.  0.
        -11    1    4    4    0    0 -0.12962180845E+02  0.19199240220E+02  0.17157794198E+02  0.28827397716E+02  0.00000000000E+00 0. -1.
         11    1    4    4    0    0 -0.22907350228E+02 -0.46870232783E+02 -0.67684643619E+02  0.85456283546E+02  0.00000000000E+00 0.  1.
        -13    1    3    3    0    0  0.62867256726E+02 -0.25233532780E+01  0.21131209638E+03  0.22048007020E+03  0.00000000000E+00 0. -1.
         13    1    3    3    0    0 -0.66564014021E+01  0.38538599317E+02  0.45204323682E+02  0.59774260318E+02  0.00000000000E+00 0.  1.
          2    1    1    2  501    0 -0.20341324252E+02 -0.83442534768E+01  0.46343149119E+01  0.22469377230E+02  0.00000000000E+00 0. -1.
<scales pt_clust_5="13000.00000" pt_clust_6="13000.00000" pt_clust_7="13000.00000" pt_clust_8="13000.00000" pt_clust_9="13000.00000"></scales>
<clustering>
<clus scale="   91.022">  7  8 -1 -1</clus>
<clus scale="   91.954">  5  6 -1 -1</clus>
<clus scale="   21.986">  5  9 -1 -1</clus>
<clus scale="  112.880">  1  7  2 -1</clus>
<clus scale="  128.823">  2  5  1 -1</clus>
</clustering>
</event>
<event>
 9    1  0.3312826E-006  0.2102909E+03  0.7546771E-02  0.1173513E+00
          3   -1    0    0  502    0 -0.00000000000E+00  0.00000000000E+00  0.11693557982E+03  0.11693557982E+03  0.00000000000E+00 0. -1.
         21   -1    0    0  501  502  0.00000000000E+00 -0.00000000000E+00 -0.21044032935E+03  0.21044032935E+03  0.00000000000E+00 0. -1.
         23    2    1    2    0    0  0.31016759759E+00 -0.41117042259E+02 -0.49493046555E+01  0.99199834796E+02  0.90141024173E+02 0.  0.
         23    2    1    2    0    0  0.11633523386E+02 -0.58004241416E+02 -0.27956259679E+02  0.11138591264E+03  0.90141212493E+02 0.  0.
        -13    1    4    4    0    0 -0.26804100746E+02 -0.55849180053E+02  0.29477473910E+01  0.62018383921E+02  0.00000000000E+00 0.  1.
         13    1    4    4    0    0  0.38437624132E+02 -0.21550613627E+01 -0.30904007070E+02  0.49367528715E+02  0.00000000000E+00 0. -1.
        -13    1    3    3    0    0 -0.20672225701E+02 -0.39824279497E+02 -0.38822289362E+02  0.59333669229E+02  0.00000000000E+00 0.  1.
         13    1    3    3    0    0  0.20982393299E+02 -0.12927627617E+01  0.33872984706E+02  0.39866165567E+02  0.00000000000E+00 0. -1.
          3    1    1    2  501    0 -0.11943690984E+02  0.99121283675E+02 -0.60599185197E+02  0.11679016174E+03  0.00000000000E+00 0. -1.
<scales pt_clust_5="13000.00000" pt_clust_6="13000.00000" pt_clust_7="13000.00000" pt_clust_8="13000.00000" pt_clust_9="13000.00000"></scales>
<clustering>
<clus scale="   90.141">  7  8 -1 -1</clus>
<clus scale="   90.141">  5  6 -1 -1</clus>
<clus scale="   99.076">  1  7  2 -1</clus>
<clus scale="   83.415">  5  9 -1 -1</clus>
<clus scale="  210.291">  2  5  1 -1</clus>
</clustering>
</event>
<event>
 9    1  0.3312826E-006  0.2108294E+03  0.7546771E-02  0.1164660E+00
          1   -1    0    0  502    0 -0.00000000000E+00  0.00000000000E+00  0.52471786833E+03  0.52471786833E+03  0.00000000000E+00 0. -1.
         21   -1    0    0  501  502  0.00000000000E+00 -0.00000000000E+00 -0.53113455001E+02  0.53113455001E+02  0.00000000000E+00 0. -1.
         23    2    1    2    0    0  0.20341396421E+02  0.85260588380E+02  0.20727174463E+03  0.23971776156E+03  0.82582617704E+02 0.  0.
         23    2    1    2    0    0  0.52617523484E+02 -0.53118029801E+02  0.20394545292E+03  0.23809974325E+03  0.97506979747E+02 0.  0.
        -11    1    4    4    0    0  0.66158120233E+02 -0.20150623543E+02  0.18549337720E+03  0.19796650597E+03  0.00000000000E+00 0. -1.
         11    1    4    4    0    0 -0.13540596750E+02 -0.32967406258E+02  0.18452075723E+02  0.40133237275E+02  0.00000000000E+00 0.  1.
        -13    1    3    3    0    0  0.40418763523E+02  0.90800740411E+01  0.78441711175E+02  0.88708659337E+02  0.00000000000E+00 0. -1.
         13    1    3    3    0    0 -0.20077367102E+02  0.76180514339E+02  0.12883003346E+03  0.15100910223E+03  0.00000000000E+00 0.  1.
          1    1    1    2  501    0 -0.72958919905E+02 -0.32142558579E+02  0.60387215773E+02  0.10001381852E+03  0.00000000000E+00 0. -1.
<scales pt_clust_5="13000.00000" pt_clust_6="13000.00000" pt_clust_7="13000.00000" pt_clust_8="13000.00000" pt_clust_9="13000.00000"></scales>
<clustering>
<clus scale="   82.583">  7  8 -1 -1</clus>
<clus scale="   97.507">  5  6 -1 -1</clus>
<clus scale="   79.725">  5  9 -1 -1</clus>
<clus scale="  120.429">  1  7  2 -1</clus>
<clus scale="  210.829">  2  5  1 -1</clus>
</clustering>
</event>
<event>
 9    1  0.3312826E-006  0.2288759E+03  0.7546771E-02  0.1136119E+00
         21   -1    0    0  501  502  0.00000000000E+00  0.00000000000E+00  0.28461842695E+02  0.28461842695E+02  0.00000000000E+00 0. -1.
          1   -1    0    0  502    0 -0.00000000000E+00 -0.00000000000E+00 -0.16160477602E+04  0.16160477602E+04  0.00000000000E+00 0. -1.
         23    2    1    2    0    0 -0.60589882693E+02  0.14722812950E+03 -0.50095020327E+03  0.53403162653E+03  0.94294305104E+02 0.  0.
         23    2    1    2    0    0 -0.45517601803E+01 -0.33797411955E+02 -0.34264660679E+03  0.35507758365E+03  0.86662619915E+02 0.  0.
        -11    1    3    3    0    0 -0.16591635869E+02  0.13920010665E+03 -0.37113788273E+03  0.39673074001E+03  0.00000000000E+00 0. -1.
         11    1    3    3    0    0 -0.43998246825E+02  0.80280228518E+01 -0.12981232054E+03  0.13730088652E+03  0.00000000000E+00 0.  1.
        -13    1    4    4    0    0  0.27996405543E+02  0.16970648439E+02 -0.12798462209E+03  0.13210550754E+03  0.00000000000E+00 0. -1.
         13    1    4    4    0    0 -0.32548165723E+02 -0.50768060394E+02 -0.21466198471E+03  0.22297207611E+03  0.00000000000E+00 0.  1.
          1    1    1    2  501    0  0.65141642874E+02 -0.11343071755E+03 -0.74398910749E+03  0.75540039276E+03  0.00000000000E+00 0. -1.
<scales pt_clust_5="13000.00000" pt_clust_6="13000.00000" pt_clust_7="13000.00000" pt_clust_8="13000.00000" pt_clust_9="13000.00000"></scales>
<clustering>
<clus scale="   86.663">  7  8 -1 -1</clus>
<clus scale="   94.294">  5  6 -1 -1</clus>
<clus scale="  130.805">  7  9 -1 -1</clus>
<clus scale="  185.037">  2  5  1 -1</clus>
<clus scale="  228.876">  1  5  2 -1</clus>
</clustering>
</event>
<event>
 9    1  0.3312826E-006  0.3192059E+03  0.7546771E-02  0.1119941E+00
         21   -1    0    0  501  502  0.00000000000E+00  0.00000000000E+00  0.22158153762E+03  0.22158153762E+03  0.00000000000E+00 0. -1.
          1   -1    0    0  502    0 -0.00000000000E+00 -0.00000000000E+00 -0.22636266823E+03  0.22636266823E+03  0.00000000000E+00 0. -1.
         23    2    1    2    0    0  0.22575744601E+02 -0.31545438222E+02 -0.68341239617E+02  0.12247180637E+03  0.93936358271E+02 0.  0.
         23    2    1    2    0    0 -0.47725799624E+02  0.46501896802E+02 -0.10689108906E+03  0.15252780767E+03  0.86016561404E+02 0.  0.
        -11    1    3    3    0    0  0.55043447414E+02 -0.38612649181E+02 -0.36755622635E+02  0.76626976812E+02  0.00000000000E+00 0.  1.
         11    1    3    3    0    0 -0.32467702813E+02  0.70672109592E+01 -0.31585616982E+02  0.45844829554E+02  0.00000000000E+00 0. -1.
        -13    1    4    4    0    0 -0.60084253421E+02  0.63739520980E+02 -0.86458276410E+02  0.12307671430E+03  0.00000000000E+00 0. -1.
         13    1    4    4    0    0  0.12358453798E+02 -0.17237624178E+02 -0.20432812645E+02  0.29451093361E+02  0.00000000000E+00 0.  1.
          1    1    1    2  501    0  0.25150055022E+02 -0.14956458580E+02  0.17045119806E+03  0.17294459182E+03  0.00000000000E+00 0. -1.
<scales pt_clust_5="13000.00000" pt_clust_6="13000.00000" pt_clust_7="13000.00000" pt_clust_8="13000.00000" pt_clust_9="13000.00000"></scales>
<clustering>
<clus scale="   86.017">  7  8 -1 -1</clus>
<clus scale="   29.261">  7  9 -1 -1</clus>
<clus scale="   93.936">  5  6 -1 -1</clus>
<clus scale="  101.631">  2  5  1 -1</clus>
<clus scale="  319.206">  1  5  2 -1</clus>
</clustering>
</event>
<event>
 9    1  0.3312826E-006  0.1977642E+03  0.7546771E-02  0.1178401E+00
          1   -1    0    0  502    0 -0.00000000000E+00  0.00000000000E+00  0.52265748205E+03  0.52265748205E+03  0.00000000000E+00 0. -1.
         21   -1    0    0  501  502  0.00000000000E+00 -0.00000000000E+00 -0.46017966289E+02  0.46017966289E+02  0.00000000000E+00 0. -1.
         23    2    1    2    0    0  0.53480156025E+02  0.75937791238E+01  0.22176098085E+03  0.24607081983E+03  0.91951743727E+02 0.  0.
         23    2    1    2    0    0 -0.13884831877E+02 -0.57655364637E+01  0.26572212093E+03  0.28151064448E+03  0.91727680855E+02 0.  0.
        -13    1    4    4    0    0 -0.44582497780E+02  0.18487263854E+02  0.19288736230E+03  0.19883388184E+03  0.00000000000E+00 0.  1.
         13    1    4    4    0    0  0.30697665902E+02 -0.24252800317E+02  0.72834758626E+02  0.82676762631E+02  0.00000000000E+00 0. -1.
        -13    1    3    3    0    0 -0.15533701028E+02 -0.14897240464E+02  0.11483753819E+03  0.11683699679E+03  0.00000000000E+00 0.  1.
         13    1    3    3    0    0  0.69013857053E+02  0.22491019588E+02  0.10692344266E+03  0.12923382304E+03  0.00000000000E+00 0. -1.
          1    1    1    2  501    0 -0.39595324148E+02 -0.18282426601E+01 -0.10843586022E+02  0.41093984030E+02  0.00000000000E+00 0. -1.
<scales pt_clust_5="13000.00000" pt_clust_6="13000.00000" pt_clust_7="13000.00000" pt_clust_8="13000.00000" pt_clust_9="13000.00000"></scales>
<clustering>
<clus scale="   91.728">  5  6 -1 -1</clus>
<clus scale="   39.638">  5  9 -1 -1</clus>
<clus scale="   91.952">  7  8 -1 -1</clus>
<clus scale="  106.644">  1  7  2 -1</clus>
<clus scale="  197.764">  2  5  1 -1</clus>
</clustering>
</event>
<event>
 9    1  0.3312826E-006  0.1573529E+03  0.7546771E-02  0.1202514E+00
         -1   -1    0    0    0  501 -0.00000000000E+00  0.00000000000E+00  0.30090011929E+03  0.30090011929E+03  0.00000000000E+00 0.  1.
         21   -1    0    0  501  502  0.00000000000E+00 -0.00000000000E+00 -0.72820992764E+02  0.72820992764E+02  0.00000000000E+00 0. -1.
         23    2    1    2    0    0 -0.10454127945E+02 -0.82674309570E+02  0.15910334678E+03  0.20191424969E+03  0.92255942996E+02 0.  0.
         23    2    1    2    0    0  0.31011001204E+02  0.67574507667E+02  0.24561101576E+02  0.12058916334E+03  0.91708790872E+02 0.  0.
        -11    1    4    4    0    0 -0.26296783350E+02  0.41670633276E+01  0.22879857532E+02  0.35105172155E+02  0.00000000000E+00 0.  1.
         11    1    4    4    0    0  0.57307784554E+02  0.63407444339E+02  0.16812440441E+01  0.85483991189E+02  0.00000000000E+00 0. -1.
        -13    1    3    3    0    0  0.13447200532E+02 -0.81132281262E+02  0.15778036311E+03  0.17792671876E+03  0.00000000000E+00 0. -1.
         13    1    3    3    0    0 -0.23901328477E+02 -0.15420283075E+01  0.13229836641E+01  0.23987530929E+02  0.00000000000E+00 0.  1.
         -1    1    1    2    0  502 -0.20556873259E+02  0.15099801903E+02  0.44414678170E+02  0.51217699017E+02  0.00000000000E+00 0.  1.
<scales pt_clust_5="13000.00000" pt_clust_6="13000.00000" pt_clust_7="13000.00000" pt_clust_8="13000.00000" pt_clust_9="13000.00000"></scales>
<clustering>
<clus scale="   91.709">  5  6 -1 -1</clus>
<clus scale="   25.507">  5  9 -1 -1</clus>
<clus scale="   92.256">  7  8 -1 -1</clus>
<clus scale="  124.320">  1  7  2 -1</clus>
<clus scale="  157.353">  2  5  1 -1</clus>
</clustering>
</event>
<event>
 9    1  0.3312826E-006  0.3787949E+03  0.7546771E-02  0.1056248E+00
          3   -1    0    0  502    0 -0.00000000000E+00  0.00000000000E+00  0.11320320225E+04  0.11320320225E+04  0.00000000000E+00 0. -1.
         21   -1    0    0  501  502  0.00000000000E+00 -0.00000000000E+00 -0.26720935306E+03  0.26720935306E+03  0.00000000000E+00 0. -1.
         23    2    1    2    0    0  0.31308788903E+03 -0.51420177881E+02  0.95452996833E+03  0.10099690153E+04  0.90784858532E+02 0.  0.
         23    2    1    2    0    0 -0.44896082757E+02  0.41649719619E+02 -0.20212735343E+02  0.11205078604E+03  0.91632235547E+02 0.  0.
        -11    1    4    4    0    0 -0.99447665367E+01 -0.21911437323E+02 -0.30433777925E+02  0.38797220336E+02  0.00000000000E+00 0.  1.
         11    1    4    4    0    0 -0.34951316220E+02  0.63561156941E+02  0.10221042582E+02  0.73253565706E+02  0.00000000000E+00 0. -1.
        -11    1    3    3    0    0  0.28212273762E+03 -0.22040478629E+02  0.76420324493E+03  0.81491448713E+03  0.00000000000E+00 0. -1.
         11    1    3    3    0    0  0.30965151412E+02 -0.29379699252E+02  0.19032672340E+03  0.19505452819E+03  0.00000000000E+00 0.  1.
          3    1    1    2  501    0 -0.26819180627E+03  0.97704582628E+01 -0.69494563589E+02  0.27722157415E+03  0.00000000000E+00 0. -1.
<scales pt_clust_5="13000.00000" pt_clust_6="13000.00000" pt_clust_7="13000.00000" pt_clust_8="13000.00000" pt_clust_9="13000.00000"></scales>
<clustering>
<clus scale="   90.785">  7  8 -1 -1</clus>
<clus scale="   91.632">  5  6 -1 -1</clus>
<clus scale="  268.370">  5  9 -1 -1</clus>
<clus scale="  330.015">  1  7  2 -1</clus>
<clus scale="  378.795">  2  5  1 -1</clus>
</clustering>
</event>
<event>
 9    1  0.3312826E-006  0.5389324E+03  0.7546771E-02  0.1029051E+00
         21   -1    0    0  501  502  0.00000000000E+00  0.00000000000E+00  0.73947982097E+03  0.73947982097E+03  0.00000000000E+00 0. -1.
          1   -1    0    0  502    0 -0.00000000000E+00 -0.00000000000E+00 -0.24182155480E+03  0.24182155480E+03  0.00000000000E+00 0. -1.
         23    2    1    2    0    0 -0.10662863182E+03 -0.20923617161E+03  0.61250663336E+01  0.25188175793E+03  0.90870583278E+02 0.  0.
         23    2    1    2    0    0 -0.28321742701E+02  0.27073522723E+02 -0.74527895468E+02  0.11964917099E+03  0.85008353558E+02 0.  0.
        -11    1    4    4    0    0 -0.54916573188E+02  0.17425580606E+02 -0.25416521941E+02  0.62972060930E+02  0.00000000000E+00 0. -1.
         11    1    4    4    0    0  0.26594830487E+02  0.96479421176E+01 -0.49111373526E+02  0.56677110065E+02  0.00000000000E+00 0.  1.
        -11    1    3    3    0    0 -0.53341601785E+02 -0.73580833576E+02 -0.39595789059E+02  0.99132699257E+02  0.00000000000E+00 0. -1.
         11    1    3    3    0    0 -0.53287030038E+02 -0.13565533803E+03  0.45720855392E+02  0.15274905867E+03  0.00000000000E+00 0.  1.
          1    1    1    2  501    0  0.13495037452E+03  0.18216264889E+03  0.56606109530E+03  0.60977044685E+03  0.00000000000E+00 0. -1.
<scales pt_clust_5="13000.00000" pt_clust_6="13000.00000" pt_clust_7="13000.00000" pt_clust_8="13000.00000" pt_clust_9="13000.00000"></scales>
<clustering>
<clus scale="   85.008">  5  6 -1 -1</clus>
<clus scale="   90.871">  7  8 -1 -1</clus>
<clus scale="  226.704">  5  9 -1 -1</clus>
<clus scale="  251.807">  2  7  1 -1</clus>
<clus scale="  538.932">  1  5  2 -1</clus>
</clustering>
</event>
<event>
 9    1  0.3312826E-006  0.2446180E+03  0.7546771E-02  0.1147468E+00
         21   -1    0    0  501  502  0.00000000000E+00  0.00000000000E+00  0.50557452478E+03  0.50557452478E+03  0.00000000000E+00 0.  1.
         -2   -1    0    0    0  501 -0.00000000000E+00 -0.00000000000E+00 -0.64087261810E+02  0.64087261810E+02  0.00000000000E+00 0.  1.
         23    2    1    2    0    0  0.60948655656E+02 -0.44004051980E+02  0.13868833930E+03  0.18039947422E+03  0.87512396983E+02 0.  0.
         23    2    1    2    0    0 -0.12307056943E+02  0.26889874141E+01  0.13917574972E+02  0.93415437595E+02  0.91509839821E+02 0.  0.
        -13    1    3    3    0    0  0.23961359759E+02  0.69471284850E+00  0.11543122926E+03  0.11789401204E+03  0.00000000000E+00 0. -1.
         13    1    3    3    0    0  0.36987295897E+02 -0.44698764829E+02  0.23257110040E+02  0.62505462180E+02  0.00000000000E+00 0.  1.
        -13    1    4    4    0    0  0.27430776987E+02 -0.58427855156E+01  0.37190663994E+02  0.46580373088E+02  0.00000000000E+00 0.  1.
         13    1    4    4    0    0 -0.39737833930E+02  0.85317729297E+01 -0.23273089022E+02  0.46835064507E+02  0.00000000000E+00 0. -1.
         -2    1    1    2    0  502 -0.48641598713E+02  0.41315064566E+02  0.28888134870E+03  0.29584687477E+03  0.00000000000E+00 0.  1.
<scales pt_clust_5="13000.00000" pt_clust_6="13000.00000" pt_clust_7="13000.00000" pt_clust_8="13000.00000" pt_clust_9="13000.00000"></scales>
<clustering>
<clus scale="   87.512">  5  6 -1 -1</clus>
<clus scale="   91.510">  7  8 -1 -1</clus>
<clus scale="   63.820">  7  9 -1 -1</clus>
<clus scale="  115.367">  2  5  1 -1</clus>
<clus scale="  244.618">  1  5  2 -1</clus>
</clustering>
</event>
<event>
 9    1  0.3312826E-006  0.2438026E+03  0.7546771E-02  0.1155701E+00
          2   -1    0    0  502    0 -0.00000000000E+00  0.00000000000E+00  0.37718235612E+03  0.37718235612E+03  0.00000000000E+00 0. -1.
         21   -1    0    0  501  502  0.00000000000E+00 -0.00000000000E+00 -0.82643602538E+02  0.82643602538E+02  0.00000000000E+00 0. -1.
         23    2    1    2    0    0  0.30280877327E+01  0.29273238497E+02  0.14485960107E+03  0.17374280135E+03  0.91302602322E+02 0.  0.
         23    2    1    2    0    0 -0.70921026185E+02  0.13281742995E+02 -0.10402590583E+02  0.10706767749E+03  0.78416050788E+02 0.  0.
        -13    1    3    3    0    0  0.36495931072E+02 -0.10995477207E+02  0.90832816657E+02  0.98506111920E+02  0.00000000000E+00 0. -1.
         13    1    3    3    0    0 -0.33467843339E+02  0.40268715703E+02  0.54026784418E+02  0.75236689432E+02  0.00000000000E+00 0.  1.
        -13    1    4    4    0    0 -0.36700530873E+02 -0.35154262663E+01  0.32873668877E+02  0.49396004835E+02  0.00000000000E+00 0.  1.
         13    1    4    4    0    0 -0.34220495312E+02  0.16797169261E+02 -0.43276259460E+02  0.57671672660E+02  0.00000000000E+00 0. -1.
          2    1    1    2  501    0  0.67892938452E+02 -0.42554981492E+02  0.16008174309E+03  0.17901547981E+03  0.00000000000E+00 0. -1.
<scales pt_clust_5="13000.00000" pt_clust_6="13000.00000" pt_clust_7="13000.00000" pt_clust_8="13000.00000" pt_clust_9="13000.00000"></scales>
<clustering>
<clus scale="   78.416">  7  8 -1 -1</clus>
<clus scale="   80.127">  7  9 -1 -1</clus>
<clus scale="   91.303">  5  6 -1 -1</clus>
<clus scale="   95.928">  1  5  2 -1</clus>
<clus scale="  243.803">  2  5  1 -1</clus>
</clustering>
</event>
<event>
 9    1  0.3312826E-006  0.1981646E+03  0.7546771E-02  0.1164092E+00
         21   -1    0    0  501  502  0.00000000000E+00  0.00000000000E+00  0.30545638760E+03  0.30545638760E+03  0.00000000000E+00 0. -1.
          2   -1    0    0  502    0 -0.00000000000E+00 -0.00000000000E+00 -0.10019667029E+03  0.10019667029E+03  0.00000000000E+00 0. -1.
         23    2    1    2    0    0 -0.11319655508E+03  0.12726282094E+02  0.12088217688E+03  0.19027254004E+03  0.92820905334E+02 0.  0.
         23    2    1    2    0    0  0.67274189527E+02 -0.70653629726E+00 -0.38135401887E+01  0.11522561459E+03  0.93467017706E+02 0.  0.
        -11    1    3    3    0    0 -0.48704775148E+02 -0.19052632521E+02  0.10401690526E+03  0.11642454427E+03  0.00000000000E+00 0.  1.
         11    1    3    3    0    0 -0.64491779930E+02  0.31778914614E+02  0.16865271626E+02  0.73847995772E+02  0.00000000000E+00 0. -1.
        -11    1    4    4    0    0  0.26485798677E+02 -0.33371580773E+02 -0.34327130323E+02  0.54712994901E+02  0.00000000000E+00 0.  1.
         11    1    4    4    0    0  0.40788390850E+02  0.32665044476E+02  0.30513590134E+02  0.60512619689E+02  0.00000000000E+00 0. -1.
          2    1    1    2  501    0  0.45922365551E+02 -0.12019745796E+02  0.88191080619E+02  0.10015490326E+03  0.00000000000E+00 0. -1.
<scales pt_clust_5="13000.00000" pt_clust_6="13000.00000" pt_clust_7="13000.00000" pt_clust_8="13000.00000" pt_clust_9="13000.00000"></scales>
<clustering>
<clus scale="   92.821">  5  6 -1 -1</clus>
<clus scale="   93.467">  7  8 -1 -1</clus>
<clus scale="   47.469">  7  9 -1 -1</clus>
<clus scale="  146.939">  2  5  1 -1</clus>
<clus scale="  198.165">  1  5  2 -1</clus>
</clustering>
</event>
<event>
 9    1  0.3312826E-006  0.1938515E+03  0.7546771E-02  0.1180131E+00
         21   -1    0    0  501  502  0.00000000000E+00  0.00000000000E+00  0.13326938743E+03  0.13326938743E+03  0.00000000000E+00 0.  1.
         -1   -1    0    0    0  501 -0.00000000000E+00 -0.00000000000E+00 -0.32474867715E+03  0.32474867715E+03  0.00000000000E+00 0.  1.
         23    2    1    2    0    0  0.77488201299E+02  0.27011432819E+02 -0.23529473715E+03  0.25927649810E+03  0.71600630546E+02 0.  0.
         23    2    1    2    0    0 -0.20464722772E+02 -0.42873853594E+02 -0.26335187666E+02  0.10695700840E+03  0.92137328684E+02 0.  0.
        -11    1    4    4    0    0  0.28678619289E+02  0.32236971287E+01  0.98268841703E+01  0.30486440921E+02  0.00000000000E+00 0.  1.
         11    1    4    4    0    0 -0.49143342062E+02 -0.46097550722E+02 -0.36162071836E+02  0.76470567482E+02  0.00000000000E+00 0. -1.
        -13    1    3    3    0    0  0.42542844807E+01 -0.19577360537E+02 -0.27000336592E+02  0.33621275379E+02  0.00000000000E+00 0. -1.
         13    1    3    3    0    0  0.73233916819E+02  0.46588793355E+02 -0.20829440056E+03  0.22565522272E+03  0.00000000000E+00 0.  1.
         -1    1    1    2    0  502 -0.57023478527E+02  0.15862420775E+02  0.70150635100E+02  0.91784558076E+02  0.00000000000E+00 0.  1.
<scales pt_clust_5="13000.00000" pt_clust_6="13000.00000" pt_clust_7="13000.00000" pt_clust_8="13000.00000" pt_clust_9="13000.00000"></scales>
<clustering>
<clus scale="   71.601">  7  8 -1 -1</clus>
<clus scale="   92.137">  5  6 -1 -1</clus>
<clus scale="   59.189">  5  9 -1 -1</clus>
<clus scale="  108.907">  2  7  1 -1</clus>
<clus scale="  193.852">  1  5  2 -1</clus>
</clustering>
</event>
<event>
 9    1  0.3312826E-006  0.2237765E+03  0.7546771E-02  0.1162178E+00
         -3   -1    0    0    0  501 -0.00000000000E+00  0.00000000000E+00  0.88621832105E+03  0.88621832105E+03  0.00000000000E+00 0.  1.
         21   -1    0    0  501  502  0.00000000000E+00 -0.00000000000E+00 -0.32645787949E+02  0.32645787949E+02  0.00000000000E+00 0. -1.
         23    2    1    2    0    0 -0.53083763333E+02 -0.11426039668E+02  0.38656692017E+03  0.40101261131E+03  0.91807899174E+02 0.  0.
         23    2    1    2    0    0  0.47255359204E+02 -0.60089773286E+02  0.40766583978E+03  0.42474032502E+03  0.91482549975E+02 0.  0.
        -11    1    3    3    0    0 -0.11392590659E+02 -0.49095411253E+02  0.17527821712E+03  0.18238038251E+03  0.00000000000E+00 0. -1.
         11    1    3    3    0    0 -0.41691172675E+02  0.37669371586E+02  0.21128870305E+03  0.21863222881E+03  0.00000000000E+00 0.  1.
        -11    1    4    4    0    0 -0.45816477718E+01 -0.55974193441E+02  0.12102525978E+03  0.13342119522E+03  0.00000000000E+00 0. -1.
         11    1    4    4    0    0  0.51837006976E+02 -0.41155798453E+01  0.28664057999E+03  0.29131912980E+03  0.00000000000E+00 0.  1.
         -3    1    1    2    0  502  0.58284041297E+01  0.71515812954E+02  0.59339773157E+02  0.93111172667E+02  0.00000000000E+00 0.  1.
<scales pt_clust_5="13000.00000" pt_clust_6="13000.00000" pt_clust_7="13000.00000" pt_clust_8="13000.00000" pt_clust_9="13000.00000"></scales>
<clustering>
<clus scale="   91.483">  7  8 -1 -1</clus>
<clus scale="   71.753">  7  9 -1 -1</clus>
<clus scale="   91.808">  5  6 -1 -1</clus>
<clus scale="  106.664">  1  5  2 -1</clus>
<clus scale="  223.777">  2  5  1 -1</clus>
</clustering>
</event>
<event>
 9    1  0.3312826E-006  0.1791757E+03  0.7546771E-02  0.1183196E+00
         21   -1    0    0  501  502  0.00000000000E+00  0.00000000000E+00  0.48699263691E+02  0.48699263691E+02  0.00000000000E+00 0. -1.
          1   -1    0    0  502    0 -0.00000000000E+00 -0.00000000000E+00 -0.57637578307E+03  0.57637578307E+03  0.00000000000E+00 0. -1.
         23    2    1    2    0    0 -0.90536945002E+02  0.84887066308E+01 -0.34916857296E+03  0.37215407218E+03  0.91164491694E+02 0.  0.
         23    2    1    2    0    0  0.33240962125E+02 -0.48040311555E+02 -0.86766012916E+02  0.13775265659E+03  0.89636043550E+02 0.  0.
        -11    1    4    4    0    0 -0.25948875482E+02 -0.20763722437E+02 -0.57274279784E+02  0.66217969110E+02  0.00000000000E+00 0. -1.
         11    1    4    4    0    0  0.59189837608E+02 -0.27276589118E+02 -0.29491733131E+02  0.71534687481E+02  0.00000000000E+00 0.  1.
        -13    1    3    3    0    0 -0.10446023658E+03 -0.10708940131E+02 -0.28838246195E+03  0.30690563172E+03  0.00000000000E+00 0. -1.
         13    1    3    3    0    0  0.13923291581E+02  0.19197646762E+02 -0.60786111013E+02  0.65248440454E+02  0.00000000000E+00 0.  1.
          1    1    1    2  501    0  0.57295982877E+02  0.39551604924E+02 -0.91741933500E+02  0.11516831799E+03  0.00000000000E+00 0. -1.
<scales pt_clust_5="13000.00000" pt_clust_6="13000.00000" pt_clust_7="13000.00000" pt_clust_8="13000.00000" pt_clust_9="13000.00000"></scales>
<clustering>
<clus scale="   89.636">  5  6 -1 -1</clus>
<clus scale="   69.622">  5  9 -1 -1</clus>
<clus scale="   91.164">  7  8 -1 -1</clus>
<clus scale="  128.763">  2  7  1 -1</clus>
<clus scale="  179.176">  1  5  2 -1</clus>
</clustering>
</event>
<event>
 9    1  0.3312826E-006  0.3785440E+03  0.7546771E-02  0.1094530E+00
         21   -1    0    0  501  502  0.00000000000E+00  0.00000000000E+00  0.11132989577E+03  0.11132989577E+03  0.00000000000E+00 0. -1.
          2   -1    0    0  502    0 -0.00000000000E+00 -0.00000000000E+00 -0.56358219857E+03  0.56358219857E+03  0.00000000000E+00 0. -1.
         23    2    1    2    0    0  0.69903469678E+02  0.11047689130E+02 -0.15230388633E+03  0.19193732986E+03  0.92924261055E+02 0.  0.
         23    2    1    2    0    0 -0.11290091305E+03 -0.12376553141E+03 -0.30757268161E+03  0.36209374231E+03  0.91904302467E+02 0.  0.
        -11    1    3    3    0    0 -0.21103429142E+02  0.14686678730E+02 -0.32279583275E+02  0.41267720437E+02  0.00000000000E+00 0.  1.
         11    1    3    3    0    0  0.91006898821E+02 -0.36389896006E+01 -0.12002430306E+03  0.15066960942E+03  0.00000000000E+00 0. -1.
        -11    1    4    4    0    0 -0.26666400793E+02 -0.12132690999E+02 -0.14009538483E+03  0.14312587457E+03  0.00000000000E+00 0.  1.
         11    1    4    4    0    0 -0.86234512260E+02 -0.11163284041E+03 -0.16747729678E+03  0.21896786773E+03  0.00000000000E+00 0. -1.
          2    1    1    2  501    0  0.42997443375E+02  0.11271784228E+03  0.76242651394E+01  0.12088102218E+03  0.00000000000E+00 0. -1.
<scales pt_clust_5="13000.00000" pt_clust_6="13000.00000" pt_clust_7="13000.00000" pt_clust_8="13000.00000" pt_clust_9="13000.00000"></scales>
<clustering>
<clus scale="   91.904">  7  8 -1 -1</clus>
<clus scale="   92.924">  5  6 -1 -1</clus>
<clus scale="  116.805">  2  5  1 -1</clus>
<clus scale="  126.051">  7  9 -1 -1</clus>
<clus scale="  378.544">  1  5  2 -1</clus>
</clustering>
</event>
<event>
 9    1  0.3312826E-006  0.2553103E+03  0.7546771E-02  0.1147644E+00
         -1   -1    0    0    0  501 -0.00000000000E+00  0.00000000000E+00  0.48340920428E+03  0.48340920428E+03  0.00000000000E+00 0.  1.
         21   -1    0    0  501  502  0.00000000000E+00 -0.00000000000E+00 -0.70700012617E+02  0.70700012617E+02  0.00000000000E+00 0.  1.
         23    2    1    2    0    0  0.10934888387E+02  0.41515568020E+02  0.19050657760E+03  0.21564596593E+03  0.91473014283E+02 0.  0.
         23    2    1    2    0    0  0.86145113870E+02  0.16381210727E+02  0.17368438139E+03  0.21545681727E+03  0.92552963560E+02 0.  0.
        -11    1    4    4    0    0  0.44653971123E+02  0.54897558475E+02  0.10108582834E+03  0.12339393727E+03  0.00000000000E+00 0. -1.
         11    1    4    4    0    0  0.41491142748E+02 -0.38516347749E+02  0.72598553047E+02  0.92062880006E+02  0.00000000000E+00 0.  1.
        -13    1    3    3    0    0  0.50940425869E+02  0.18572341958E+02  0.90132447491E+02  0.10518420492E+03  0.00000000000E+00 0.  1.
         13    1    3    3    0    0 -0.40005537482E+02  0.22943226063E+02  0.10037413011E+03  0.11046176101E+03  0.00000000000E+00 0. -1.
         -1    1    1    2    0  502 -0.97080002258E+02 -0.57896778747E+02  0.48518232680E+02  0.12300643369E+03  0.00000000000E+00 0.  1.
<scales pt_clust_5="13000.00000" pt_clust_6="13000.00000" pt_clust_7="13000.00000" pt_clust_8="13000.00000" pt_clust_9="13000.00000"></scales>
<clustering>
<clus scale="   91.473">  7  8 -1 -1</clus>
<clus scale="   92.553">  5  6 -1 -1</clus>
<clus scale="  101.047">  1  7  2 -1</clus>
<clus scale="  104.062">  5  9 -1 -1</clus>
<clus scale="  255.310">  2  5  1 -1</clus>
</clustering>
</event>
<event>
 9    1  0.3312826E-006  0.1398919E+03  0.7546771E-02  0.1230466E+00
          1   -1    0    0  502    0 -0.00000000000E+00  0.00000000000E+00  0.28484217961E+03  0.28484217961E+03  0.00000000000E+00 0. -1.
         21   -1    0    0  501  502  0.00000000000E+00 -0.00000000000E+00 -0.51337831545E+02  0.51337831545E+02  0.00000000000E+00 0.  1.
         23    2    1    2    0    0 -0.75712692508E+01  0.30813305071E+02  0.12659952438E+03  0.16011645872E+03  0.92752665137E+02 0.  0.
         23    2    1    2    0    0  0.24340469028E+02  0.78137085206E+01  0.94101411358E+02  0.13205014985E+03  0.89042989523E+02 0.  0.
        -13    1    4    4    0    0  0.32044648879E+02 -0.27924000789E+02  0.15287373981E+02  0.45169825604E+02  0.00000000000E+00 0. -1.
         13    1    4    4    0    0 -0.77041798518E+01  0.35737709309E+02  0.78814037378E+02  0.86880324249E+02  0.00000000000E+00 0.  1.
        -13    1    3    3    0    0 -0.39355832907E+02 -0.14810158106E+02  0.47644018937E+02  0.63546635689E+02  0.00000000000E+00 0.  1.
         13    1    3    3    0    0  0.31784563656E+02  0.45623463178E+02  0.78955505447E+02  0.96569823027E+02  0.00000000000E+00 0. -1.
          1    1    1    2  501    0 -0.16769199777E+02 -0.38627013592E+02  0.12803412324E+02  0.44013402587E+02  0.00000000000E+00 0. -1.
<scales pt_clust_5="13000.00000" pt_clust_6="13000.00000" pt_clust_7="13000.00000" pt_clust_8="13000.00000" pt_clust_9="13000.00000"></scales>
<clustering>
<clus scale="   89.043">  5  6 -1 -1</clus>
<clus scale="   42.110">  5  9 -1 -1</clus>
<clus scale="   92.753">  7  8 -1 -1</clus>
<clus scale="   98.030">  1  7  2 -1</clus>
<clus scale="  139.892">  2  5  1 -1</clus>
</clustering>
</event>
<event>
 9    1  0.3312826E-006  0.1879400E+03  0.7546771E-02  0.1185420E+00
          1   -1    0    0  502    0 -0.00000000000E+00  0.00000000000E+00  0.20381876686E+03  0.20381876686E+03  0.00000000000E+00 0. -1.
         21   -1    0    0  501  502  0.00000000000E+00 -0.00000000000E+00 -0.15083728123E+03  0.15083728123E+03  0.00000000000E+00 0. -1.
         23    2    1    2    0    0  0.50184330320E+02  0.23183819303E+02  0.11521774345E+03  0.15667931181E+03  0.90649444883E+02 0.  0.
         23    2    1    2    0    0 -0.24798082025E+02 -0.11813140625E+02  0.31189521565E+02  0.10049786580E+03  0.91501582565E+02 0.  0.
        -11    1    4    4    0    0  0.26402258356E+01  0.36215219513E+02  0.26565259662E+02  0.44991398486E+02  0.00000000000E+00 0.  1.
         11    1    4    4    0    0 -0.27438307861E+02 -0.48028360138E+02  0.46242619026E+01  0.55506467316E+02  0.00000000000E+00 0. -1.
        -11    1    3    3    0    0  0.59904191090E+02 -0.13685504511E+01  0.11567044720E+03  0.13026909609E+03  0.00000000000E+00 0. -1.
         11    1    3    3    0    0 -0.97198607705E+01  0.24552369754E+02 -0.45270374979E+00  0.26410215724E+02  0.00000000000E+00 0.  1.
          1    1    1    2  501    0 -0.25386248294E+02 -0.11370678677E+02 -0.93425779385E+02  0.97478870478E+02  0.00000000000E+00 0. -1.
<scales pt_clust_5="13000.00000" pt_clust_6="13000.00000" pt_clust_7="13000.00000" pt_clust_8="13000.00000" pt_clust_9="13000.00000"></scales>
<clustering>
<clus scale="   90.649">  7  8 -1 -1</clus>
<clus scale="   91.502">  5  6 -1 -1</clus>
<clus scale="   27.816">  5  9 -1 -1</clus>
<clus scale="  106.176">  1  7  2 -1</clus>
<clus scale="  187.940">  2  5  1 -1</clus>
</clustering>
</event>
<event>
 9    1  0.3312826E-006  0.3231460E+03  0.7546771E-02  0.1104249E+00
         21   -1    0    0  501  502  0.00000000000E+00  0.00000000000E+00  0.99495739622E+02  0.99495739622E+02  0.00000000000E+00 0. -1.
          2   -1    0    0  502    0 -0.00000000000E+00 -0.00000000000E+00 -0.73287837447E+03  0.73287837447E+03  0.00000000000E+00 0. -1.
         23    2    1    2    0    0 -0.59555368209E+02  0.96614650163E+02 -0.42132324900E+03  0.44586084253E+03  0.91637209937E+02 0.  0.
         23    2    1    2    0    0  0.21376729134E+02 -0.65141611082E+02 -0.27998835219E+03  0.30247455942E+03  0.91635078939E+02 0.  0.
        -11    1    3    3    0    0  0.13626713255E+02  0.21996608415E+02 -0.24968768716E+02  0.35957996428E+02  0.00000000000E+00 0.  1.
         11    1    3    3    0    0 -0.73182081464E+02  0.74618041748E+02 -0.39635448029E+03  0.40990284611E+03  0.00000000000E+00 0. -1.
        -13    1    4    4    0    0 -0.18303077546E+02 -0.70788736557E+02 -0.20128779214E+03  0.21415607190E+03  0.00000000000E+00 0. -1.
         13    1    4    4    0    0  0.39679806680E+02  0.56471254749E+01 -0.78700560052E+02  0.88318487514E+02  0.00000000000E+00 0.  1.
          2    1    1    2  501    0  0.38178639075E+02 -0.31473039081E+02  0.67928966340E+02  0.84038712143E+02  0.00000000000E+00 0. -1.
<scales pt_clust_5="13000.00000" pt_clust_6="13000.00000" pt_clust_7="13000.00000" pt_clust_8="13000.00000" pt_clust_9="13000.00000"></scales>
<clustering>
<clus scale="   91.635">  7  8 -1 -1</clus>
<clus scale="   49.479">  7  9 -1 -1</clus>
<clus scale="   91.637">  5  6 -1 -1</clus>
<clus scale="  145.872">  2  5  1 -1</clus>
<clus scale="  323.146">  1  5  2 -1</clus>
</clustering>
</event>
<event>
 9    1  0.3312826E-006  0.3502623E+03  0.7546771E-02  0.1096059E+00
          1   -1    0    0  502    0 -0.00000000000E+00  0.00000000000E+00  0.16709438417E+03  0.16709438417E+03  0.00000000000E+00 0. -1.
         21   -1    0    0  501  502  0.00000000000E+00 -0.00000000000E+00 -0.38814401385E+03  0.38814401385E+03  0.00000000000E+00 0.  1.
         23    2    1    2    0    0 -0.16190859288E+02 -0.10595844132E+03 -0.13247140794E+03  0.19394936241E+03  0.92619361074E+02 0.  0.
         23    2    1    2    0    0  0.42820714534E+02  0.20046646339E+03  0.60682245079E+01  0.22491137904E+03  0.92346567552E+02 0.  0.
        -11    1    3    3    0    0 -0.23608385594E+02 -0.23566571396E+02 -0.99418464165E+02  0.10486548610E+03  0.00000000000E+00 0.  1.
         11    1    3    3    0    0  0.74175263054E+01 -0.82391869926E+02 -0.33052943773E+02  0.89083876310E+02  0.00000000000E+00 0. -1.
        -13    1    4    4    0    0  0.23216986184E+02  0.59465691982E+02  0.44067268979E+02  0.77570104844E+02  0.00000000000E+00 0. -1.
         13    1    4    4    0    0  0.19603728351E+02  0.14100077140E+03 -0.37999044471E+02  0.14734127420E+03  0.00000000000E+00 0.  1.
          1    1    1    2  501    0 -0.26629855246E+02 -0.94508022064E+02 -0.94646446243E+02  0.13637765657E+03  0.00000000000E+00 0. -1.
<scales pt_clust_5="13000.00000" pt_clust_6="13000.00000" pt_clust_7="13000.00000" pt_clust_8="13000.00000" pt_clust_9="13000.00000"></scales>
<clustering>
<clus scale="   92.347">  7  8 -1 -1</clus>
<clus scale="   92.619">  5  6 -1 -1</clus>
<clus scale="   98.188">  7  9 -1 -1</clus>
<clus scale="  141.661">  1  5  2 -1</clus>
<clus scale="  350.262">  2  5  1 -1</clus>
</clustering>
</event>
<event>
 9    1  0.3312826E-006  0.3600819E+03  0.7546771E-02  0.1074960E+00
         21   -1    0    0  501  502  0.00000000000E+00  0.00000000000E+00  0.10711439141E+04  0.10711439141E+04  0.00000000000E+00 0.  1.
         -1   -1    0    0    0  501 -0.00000000000E+00 -0.00000000000E+00 -0.86412297569E+02  0.86412297569E+02  0.00000000000E+00 0.  1.
         23    2    1    2    0    0 -0.16110995395E+03  0.13441874912E+03  0.24747242227E+03  0.33706239573E+03  0.91343535359E+02 0.  0.
         23    2    1    2    0    0 -0.86709058021E+01 -0.98015181741E+02  0.12310491588E+03  0.18226483062E+03  0.91561387635E+02 0.  0.
        -11    1    3    3    0    0 -0.12167366909E+03  0.44788837271E+02  0.12328154019E+03  0.17891020050E+03  0.00000000000E+00 0.  1.
         11    1    3    3    0    0 -0.39436284869E+02  0.89629911850E+02  0.12419088208E+03  0.15815219523E+03  0.00000000000E+00 0. -1.
        -13    1    4    4    0    0  0.28063862938E+02 -0.90585853059E+02  0.10190899134E+03  0.13920782914E+03  0.00000000000E+00 0. -1.
         13    1    4    4    0    0 -0.36734768740E+02 -0.74293286825E+01  0.21195924547E+02  0.43057001480E+02  0.00000000000E+00 0.  1.
         -1    1    1    2    0  502  0.16978085976E+03 -0.36403567379E+02  0.61415427834E+03  0.63822898529E+03  0.00000000000E+00 0.  1.
<scales pt_clust_5="13000.00000" pt_clust_6="13000.00000" pt_clust_7="13000.00000" pt_clust_8="13000.00000" pt_clust_9="13000.00000"></scales>
<clustering>
<clus scale="   91.344">  5  6 -1 -1</clus>
<clus scale="   91.561">  7  8 -1 -1</clus>
<clus scale="  173.640">  7  9 -1 -1</clus>
<clus scale="  228.842">  2  5  1 -1</clus>
<clus scale="  360.082">  1  5  2 -1</clus>
</clustering>
</event>
<event>
 9    1  0.3312826E-006  0.1814188E+03  0.7546771E-02  0.1175411E+00
         21   -1    0    0  501  502  0.00000000000E+00  0.00000000000E+00  0.27750438606E+03  0.27750438606E+03  0.00000000000E+00 0.  1.
          4   -1    0    0  502    0 -0.00000000000E+00 -0.00000000000E+00 -0.10299032066E+03  0.10299032066E+03  0.00000000000E+00 0.  1.
         23    2    1    2    0    0  0.63848153227E+02  0.98598076208E+02  0.35678161789E+02  0.15204738162E+03  0.89706787510E+02 0.  0.
         23    2    1    2    0    0 -0.17627748573E+02 -0.71902596330E+02  0.65660127867E+02  0.13787321949E+03  0.96005475786E+02 0.  0.
        -13    1    3    3    0    0  0.19243014703E+02  0.15937192055E+02 -0.28792698195E+02  0.38122266129E+02  0.00000000000E+00 0. -1.
         13    1    3    3    0    0  0.44605138524E+02  0.82660884153E+02  0.64470859985E+02  0.11392511549E+03  0.00000000000E+00 0.  1.
        -13    1    4    4    0    0 -0.40287126667E+02 -0.28620253159E+02 -0.74145602875E+01  0.49971463559E+02  0.00000000000E+00 0. -1.
         13    1    4    4    0    0  0.22659378094E+02 -0.43282343171E+02  0.73074688155E+02  0.87901755926E+02  0.00000000000E+00 0.  1.
          4    1    1    2  501    0 -0.46220404653E+02 -0.26695479878E+02  0.73175775751E+02  0.90574105620E+02  0.00000000000E+00 0.  1.
<scales pt_clust_5="13000.00000" pt_clust_6="13000.00000" pt_clust_7="13000.00000" pt_clust_8="13000.00000" pt_clust_9="13000.00000"></scales>
<clustering>
<clus scale="   89.707">  5  6 -1 -1</clus>
<clus scale="   96.005">  7  8 -1 -1</clus>
<clus scale="   53.376">  7  9 -1 -1</clus>
<clus scale="  147.802">  2  5  1 -1</clus>
<clus scale="  181.419">  1  5  2 -1</clus>
</clustering>
</event>
<event>
 9    1  0.3312826E-006  0.3990034E+03  0.7546771E-02  0.1093088E+00
         21   -1    0    0  501  502  0.00000000000E+00  0.00000000000E+00  0.10470869461E+04  0.10470869461E+04  0.00000000000E+00 0. -1.
          3   -1    0    0  502    0 -0.00000000000E+00 -0.00000000000E+00 -0.64925171490E+02  0.64925171490E+02  0.00000000000E+00 0. -1.
         23    2    1    2    0    0  0.30363225221E+02  0.35115547034E+02  0.34510891174E+03  0.36032065559E+03  0.92605544063E+02 0.  0.
         23    2    1    2    0    0 -0.96056321401E+02 -0.10964257483E+03  0.79845706669E+02  0.18569704889E+03  0.82823583565E+02 0.  0.
        -13    1    3    3    0    0 -0.29378134350E+02  0.22389351055E+02  0.77819666597E+02  0.86140921331E+02  0.00000000000E+00 0.  1.
         13    1    3    3    0    0  0.59741359571E+02  0.12726195979E+02  0.26728924514E+03  0.27417973426E+03  0.00000000000E+00 0. -1.
        -13    1    4    4    0    0 -0.15923340577E+01 -0.55610224941E+02  0.10386445968E+02  0.56594265660E+02  0.00000000000E+00 0. -1.
         13    1    4    4    0    0 -0.94463987343E+02 -0.54032349892E+02  0.69459260701E+02  0.12910278323E+03  0.00000000000E+00 0.  1.
          3    1    1    2  501    0  0.65693096180E+02  0.74527027799E+02  0.55720715621E+03  0.56599441313E+03  0.00000000000E+00 0. -1.
<scales pt_clust_5="13000.00000" pt_clust_6="13000.00000" pt_clust_7="13000.00000" pt_clust_8="13000.00000" pt_clust_9="13000.00000"></scales>
<clustering>
<clus scale="   82.824">  7  8 -1 -1</clus>
<clus scale="   92.606">  5  6 -1 -1</clus>
<clus scale="   99.347">  7  9 -1 -1</clus>
<clus scale="  103.590">  2  5  1 -1</clus>
<clus scale="  399.003">  1  5  2 -1</clus>
</clustering>
</event>
<event>
 9    1  0.3312826E-006  0.1930729E+03  0.7546771E-02  0.1188280E+00
          1   -1    0    0  502    0 -0.00000000000E+00  0.00000000000E+00  0.75630565284E+03  0.75630565284E+03  0.00000000000E+00 0. -1.
         21   -1    0    0  501  502  0.00000000000E+00 -0.00000000000E+00 -0.38250234579E+02  0.38250234579E+02  0.00000000000E+00 0.  1.
         23    2    1    2    0    0  0.39113989445E+01 -0.13631388178E+02  0.47669620245E+03  0.48547433767E+03  0.90801703283E+02 0.  0.
         23    2    1    2    0    0  0.64118465855E+02  0.46343044163E+01  0.19642677712E+03  0.22705756504E+03  0.94015980726E+02 0.  0.
        -11    1    4    4    0    0 -0.76276980519E+01 -0.18987158376E+02  0.47096270234E+01  0.20997012822E+02  0.00000000000E+00 0.  1.
         11    1    4    4    0    0  0.71746163907E+02  0.23621462792E+02  0.19171715010E+03  0.20606055222E+03  0.00000000000E+00 0. -1.
        -11    1    3    3    0    0 -0.28309962705E+02 -0.40862050063E+02  0.25536169731E+03  0.26015525668E+03  0.00000000000E+00 0.  1.
         11    1    3    3    0    0  0.32221361649E+02  0.27230661885E+02  0.22133450514E+03  0.22531908099E+03  0.00000000000E+00 0. -1.
          1    1    1    2  501    0 -0.68029864800E+02  0.89970837618E+01  0.44932438694E+02  0.82023984711E+02  0.00000000000E+00 0. -1.
<scales pt_clust_5="13000.00000" pt_clust_6="13000.00000" pt_clust_7="13000.00000" pt_clust_8="13000.00000" pt_clust_9="13000.00000"></scales>
<clustering>
<clus scale="   90.802">  7  8 -1 -1</clus>
<clus scale="   91.902">  1  7  2 -1</clus>
<clus scale="   94.016">  5  6 -1 -1</clus>
<clus scale="   67.382">  5  9 -1 -1</clus>
<clus scale="  193.073">  2  5  1 -1</clus>
</clustering>
</event>
<event>
 9    1  0.3312826E-006  0.2279089E+03  0.7546771E-02  0.1142337E+00
         21   -1    0    0  501  502  0.00000000000E+00  0.00000000000E+00  0.99162396059E+02  0.99162396059E+02  0.00000000000E+00 0. -1.
         -1   -1    0    0    0  501 -0.00000000000E+00 -0.00000000000E+00 -0.42091111646E+03  0.42091111646E+03  0.00000000000E+00 0.  1.
         23    2    1    2    0    0 -0.11697565400E+03 -0.61162789615E+02 -0.57718462487E+02  0.17128354089E+03  0.92641459426E+02 0.  0.
         23    2    1    2    0    0  0.55937017911E+01  0.82400379598E+01 -0.17357301146E+03  0.19585446119E+03  0.90178666730E+02 0.  0.
        -11    1    3    3    0    0 -0.91602605331E+02 -0.45160084178E+02  0.44811989158E+01  0.10222793967E+03  0.00000000000E+00 0. -1.
         11    1    3    3    0    0 -0.25373048668E+02 -0.16002705438E+02 -0.62199661403E+02  0.69055601211E+02  0.00000000000E+00 0.  1.
        -13    1    4    4    0    0 -0.31151722017E+02  0.24963517693E+02 -0.13200001131E+03  0.13790435086E+03  0.00000000000E+00 0. -1.
         13    1    4    4    0    0  0.36745423808E+02 -0.16723479733E+02 -0.41573000151E+02  0.57950110326E+02  0.00000000000E+00 0.  1.
         -1    1    1    2    0  502  0.11138195221E+03  0.52922751655E+02 -0.90457246454E+02  0.15293551045E+03  0.00000000000E+00 0.  1.
<scales pt_clust_5="13000.00000" pt_clust_6="13000.00000" pt_clust_7="13000.00000" pt_clust_8="13000.00000" pt_clust_9="13000.00000"></scales>
<clustering>
<clus scale="   90.179">  7  8 -1 -1</clus>
<clus scale="   92.641">  5  6 -1 -1</clus>
<clus scale="  123.316">  7  9 -1 -1</clus>
<clus scale="  161.266">  2  5  1 -1</clus>
<clus scale="  227.909">  1  5  2 -1</clus>
</clustering>
</event>
<event>
 9    1  0.3312826E-006  0.1044908E+04  0.7546771E-02  0.9747794E-01
         21   -1    0    0  501  502  0.00000000000E+00  0.00000000000E+00  0.49147794566E+03  0.49147794566E+03  0.00000000000E+00 0. -1.
          1   -1    0    0  502    0 -0.00000000000E+00 -0.00000000000E+00 -0.85998104724E+03  0.85998104724E+03  0.00000000000E+00 0. -1.
         23    2    1    2    0    0 -0.13580377968E+03  0.98660616619E+02  0.90079855128E+02  0.21034946595E+03  0.89196040710E+02 0.  0.
         23    2    1    2    0    0  0.53526821697E+02  0.30471533519E+03 -0.61994946240E+03  0.69893218077E+03  0.91936397781E+02 0.  0.
        -11    1    4    4    0    0  0.24106546044E+02  0.18790907504E+03 -0.27823484784E+03  0.33660893719E+03  0.00000000000E+00 0. -1.
         11    1    4    4    0    0  0.29420275653E+02  0.11680626015E+03 -0.34171461456E+03  0.36232324357E+03  0.00000000000E+00 0.  1.
        -13    1    3    3    0    0 -0.24002964190E+01  0.45988028236E+02  0.29268170070E+02  0.54564511756E+02  0.00000000000E+00 0. -1.
         13    1    3    3    0    0 -0.13340348327E+03  0.52672588383E+02  0.60811685058E+02  0.15578495420E+03  0.00000000000E+00 0.  1.
          1    1    1    2  501    0  0.82276957987E+02 -0.40337595181E+03  0.16136650569E+03  0.44217734618E+03  0.00000000000E+00 0. -1.
<scales pt_clust_5="13000.00000" pt_clust_6="13000.00000" pt_clust_7="13000.00000" pt_clust_8="13000.00000" pt_clust_9="13000.00000"></scales>
<clustering>
<clus scale="   89.196">  7  8 -1 -1</clus>
<clus scale="   91.936">  5  6 -1 -1</clus>
<clus scale="  190.086">  2  7  1 -1</clus>
<clus scale="  390.455">  5  9 -1 -1</clus>
<clus scale=" 1044.908">  1  5  2 -1</clus>
</clustering>
</event>
<event>
 9    1  0.3312826E-006  0.2860898E+03  0.7546771E-02  0.1100882E+00
         21   -1    0    0  501  502  0.00000000000E+00  0.00000000000E+00  0.61031286774E+03  0.61031286774E+03  0.00000000000E+00 0.  1.
         -1   -1    0    0    0  501 -0.00000000000E+00 -0.00000000000E+00 -0.11078832383E+03  0.11078832383E+03  0.00000000000E+00 0.  1.
         23    2    1    2    0    0 -0.32816023355E+01 -0.20938650905E+03  0.27062033520E+03  0.35470724524E+03  0.93425825743E+02 0.  0.
         23    2    1    2    0    0 -0.25203024338E+02  0.10386970484E+03  0.37174403291E+02  0.14570074703E+03  0.91775069631E+02 0.  0.
        -11    1    3    3    0    0  0.30242225049E+02 -0.61413437856E+02  0.13429262585E+03  0.15073391086E+03  0.00000000000E+00 0. -1.
         11    1    3    3    0    0 -0.33523827384E+02 -0.14797307120E+03  0.13632770934E+03  0.20397333438E+03  0.00000000000E+00 0.  1.
        -13    1    4    4    0    0  0.31159159912E+02  0.57435994344E+02  0.39241585273E+01  0.65461329904E+02  0.00000000000E+00 0. -1.
         13    1    4    4    0    0 -0.56362184250E+02  0.46433710496E+02  0.33250244764E+02  0.80239417126E+02  0.00000000000E+00 0.  1.
         -1    1    1    2    0  502  0.28484626674E+02  0.10551680421E+03  0.19172980542E+03  0.22069319930E+03  0.00000000000E+00 0.  1.
<scales pt_clust_5="13000.00000" pt_clust_6="13000.00000" pt_clust_7="13000.00000" pt_clust_8="13000.00000" pt_clust_9="13000.00000"></scales>
<clustering>
<clus scale="   91.775">  7  8 -1 -1</clus>
<clus scale="   93.426">  5  6 -1 -1</clus>
<clus scale="  109.294">  7  9 -1 -1</clus>
<clus scale="  229.307">  2  5  1 -1</clus>
<clus scale="  286.090">  1  5  2 -1</clus>
</clustering>
</event>
<event>
 9    1  0.3312826E-006  0.3847848E+03  0.7546771E-02  0.1099264E+00
         21   -1    0    0  501  502  0.00000000000E+00  0.00000000000E+00  0.43738927127E+03  0.43738927127E+03  0.00000000000E+00 0.  1.
         -1   -1    0    0    0  501 -0.00000000000E+00 -0.00000000000E+00 -0.18921907032E+03  0.18921907032E+03  0.00000000000E+00 0.  1.
         23    2    1    2    0    0  0.36839635176E+02 -0.20913169972E+01 -0.75385205993E+02  0.12386842745E+03  0.91098439670E+02 0.  0.
         23    2    1    2    0    0  0.63083778582E+02 -0.38417615386E+02 -0.39573523404E+02  0.12394144229E+03  0.91323277810E+02 0.  0.
        -11    1    4    4    0    0  0.34758672248E+02 -0.16304946510E+02  0.27924423918E+02  0.47474098499E+02  0.00000000000E+00 0. -1.
         11    1    4    4    0    0  0.28325106334E+02 -0.22112668876E+02 -0.67497947322E+02  0.76467343790E+02  0.00000000000E+00 0.  1.
        -13    1    3    3    0    0  0.19072484839E+02 -0.39757980744E+02 -0.68779423213E+02  0.81701075686E+02  0.00000000000E+00 0. -1.
         13    1    3    3    0    0  0.17767150338E+02  0.37666663746E+02 -0.66057827804E+01  0.42167351767E+02  0.00000000000E+00 0.  1.
         -1    1    1    2    0  502 -0.99923413759E+02  0.40508932384E+02  0.36312893034E+03  0.37879847184E+03  0.00000000000E+00 0.  1.
<scales pt_clust_5="13000.00000" pt_clust_6="13000.00000" pt_clust_7="13000.00000" pt_clust_8="13000.00000" pt_clust_9="13000.00000"></scales>
<clustering>
<clus scale="   91.098">  7  8 -1 -1</clus>
<clus scale="   91.323">  5  6 -1 -1</clus>
<clus scale="   98.288">  2  7  1 -1</clus>
<clus scale="  104.773">  5  9 -1 -1</clus>
<clus scale="  384.785">  1  5  2 -1</clus>
</clustering>
</event>
<event>
 9    1  0.3312826E-006  0.2201198E+03  0.7546771E-02  0.1143937E+00
         21   -1    0    0  501  502  0.00000000000E+00  0.00000000000E+00  0.12276116213E+03  0.12276116213E+03  0.00000000000E+00 0.  1.
          4   -1    0    0  502    0 -0.00000000000E+00 -0.00000000000E+00 -0.33685745965E+03  0.33685745965E+03  0.00000000000E+00 0. -1.
         23    2    1    2    0    0 -0.93778720649E+02 -0.11131705385E+03 -0.34855299848E+02  0.17575235280E+03  0.92130682526E+02 0.  0.
         23    2    1    2    0    0  0.46341966055E+02  0.47172503108E+01 -0.10006562494E+03  0.14286093770E+03  0.90698886202E+02 0.  0.
        -11    1    4    4    0    0 -0.22518631300E+02  0.21430043155E+02 -0.29364387220E+02  0.42762164843E+02  0.00000000000E+00 0. -1.
         11    1    4    4    0    0  0.68860597355E+02 -0.16712792844E+02 -0.70701237720E+02  0.10009877286E+03  0.00000000000E+00 0.  1.
        -13    1    3    3    0    0 -0.11044630718E+03 -0.99924114851E+02 -0.41298299043E+02  0.15455990749E+03  0.00000000000E+00 0.  1.
         13    1    3    3    0    0  0.16667586530E+02 -0.11392939004E+02  0.64429991942E+01  0.21192445317E+02  0.00000000000E+00 0. -1.
          4    1    1    2  501    0  0.47436754594E+02  0.10659980354E+03 -0.79175372728E+02  0.14100533128E+03  0.00000000000E+00 0. -1.
<scales pt_clust_5="13000.00000" pt_clust_6="13000.00000" pt_clust_7="13000.00000" pt_clust_8="13000.00000" pt_clust_9="13000.00000"></scales>
<clustering>
<clus scale="   90.699">  5  6 -1 -1</clus>
<clus scale="   92.131">  7  8 -1 -1</clus>
<clus scale="  116.678">  5  9 -1 -1</clus>
<clus scale="  172.262">  2  7  1 -1</clus>
<clus scale="  220.120">  1  5  2 -1</clus>
</clustering>
</event>
<event>
 9    1  0.3312826E-006  0.3828149E+03  0.7546771E-02  0.1073547E+00
          3   -1    0    0  502    0 -0.00000000000E+00  0.00000000000E+00  0.66102895166E+03  0.66102895166E+03  0.00000000000E+00 0. -1.
         21   -1    0    0  501  502  0.00000000000E+00 -0.00000000000E+00 -0.12839453697E+03  0.12839453697E+03  0.00000000000E+00 0. -1.
         23    2    1    2    0    0  0.15897444267E+03  0.81881032713E+02  0.21250262503E+03  0.29039284497E+03  0.84813099373E+02 0.  0.
         23    2    1    2    0    0 -0.10789915491E+03 -0.16891741991E+03  0.33124588356E+03  0.39750458395E+03  0.90059627540E+02 0.  0.
        -13    1    3    3    0    0  0.95506922849E+02  0.79493375972E+02  0.93523411954E+02  0.15552298132E+03  0.00000000000E+00 0.  1.
         13    1    3    3    0    0  0.63467519825E+02  0.23876567410E+01  0.11897921307E+03  0.13486986365E+03  0.00000000000E+00 0. -1.
        -13    1    4    4    0    0 -0.11756112356E+03 -0.11472290611E+03  0.25856130482E+03  0.30632647830E+03  0.00000000000E+00 0. -1.
         13    1    4    4    0    0  0.96619686504E+01 -0.54194513800E+02  0.72684578734E+02  0.91178105650E+02  0.00000000000E+00 0.  1.
          3    1    1    2  501    0 -0.51075287766E+02  0.87036387194E+02 -0.11114093886E+02  0.10152605970E+03  0.00000000000E+00 0. -1.
<scales pt_clust_5="13000.00000" pt_clust_6="13000.00000" pt_clust_7="13000.00000" pt_clust_8="13000.00000" pt_clust_9="13000.00000"></scales>
<clustering>
<clus scale="   84.813">  5  6 -1 -1</clus>
<clus scale="   90.060">  7  8 -1 -1</clus>
<clus scale="  100.916">  7  9 -1 -1</clus>
<clus scale="  197.916">  1  5  2 -1</clus>
<clus scale="  382.815">  2  5  1 -1</clus>
</clustering>
</event>
<event>
 9    1  0.3312826E-006  0.2475914E+03  0.7546771E-02  0.1136049E+00
          1   -1    0    0  502    0 -0.00000000000E+00  0.00000000000E+00  0.87181408003E+03  0.87181408003E+03  0.00000000000E+00 0. -1.
         21   -1    0    0  501  502  0.00000000000E+00 -0.00000000000E+00 -0.19650041236E+03  0.19650041236E+03  0.00000000000E+00 0.  1.
         23    2    1    2    0    0  0.44987932556E+02 -0.10492846056E+03  0.78426237040E+03  0.79781252267E+03  0.91670386641E+02 0.  0.
         23    2    1    2    0    0 -0.10903951344E+03  0.10028585301E+03 -0.11063130833E+03  0.20626031672E+03  0.91417526032E+02 0.  0.
        -11    1    3    3    0    0  0.59487721356E+02 -0.25165647686E+02  0.38837898137E+03  0.39371351511E+03  0.00000000000E+00 0. -1.
         11    1    3    3    0    0 -0.14499788800E+02 -0.79762812874E+02  0.39588338903E+03  0.40409900755E+03  0.00000000000E+00 0.  1.
        -13    1    4    4    0    0 -0.89088372492E+01  0.68145645997E+02 -0.48492115422E+02  0.84111127133E+02  0.00000000000E+00 0. -1.
         13    1    4    4    0    0 -0.10013067620E+03  0.32140207010E+02 -0.62139192907E+02  0.12214918959E+03  0.00000000000E+00 0.  1.
          1    1    1    2  501    0  0.64051580888E+02  0.46426075528E+01  0.16826055975E+01  0.64241653005E+02  0.00000000000E+00 0. -1.
<scales pt_clust_5="13000.00000" pt_clust_6="13000.00000" pt_clust_7="13000.00000" pt_clust_8="13000.00000" pt_clust_9="13000.00000"></scales>
<clustering>
<clus scale="   91.418">  7  8 -1 -1</clus>
<clus scale="   64.220">  7  9 -1 -1</clus>
<clus scale="   91.670">  5  6 -1 -1</clus>
<clus scale="  146.415">  1  5  2 -1</clus>
<clus scale="  247.591">  2  5  1 -1</clus>
</clustering>
</event>
<event>
 9    1  0.3312826E-006  0.2353871E+03  0.7546771E-02  0.1155815E+00
         21   -1    0    0  501  502  0.00000000000E+00  0.00000000000E+00  0.48404962823E+03  0.48404962823E+03  0.00000000000E+00 0. -1.
          1   -1    0    0  502    0 -0.00000000000E+00 -0.00000000000E+00 -0.13376578203E+03  0.13376578203E+03  0.00000000000E+00 0. -1.
         23    2    1    2    0    0  0.53443485726E+02 -0.84185526459E+01 -0.76125275932E+02  0.13075091995E+03  0.91507744131E+02 0.  0.
         23    2    1    2    0    0 -0.16823349703E+01  0.19399789934E+02  0.49579830427E+02  0.10653838162E+03  0.92266381059E+02 0.  0.
        -11    1    4    4    0    0  0.36851421600E+02  0.36733040063E+02  0.28272171894E+02  0.59217051681E+02  0.00000000000E+00 0. -1.
         11    1    4    4    0    0 -0.38533756571E+02 -0.17333250129E+02  0.21307658533E+02  0.47321329943E+02  0.00000000000E+00 0.  1.
        -13    1    3    3    0    0  0.45181794675E+02  0.31763947581E+02 -0.70169479265E+02  0.89297809359E+02  0.00000000000E+00 0. -1.
         13    1    3    3    0    0  0.82616910512E+01 -0.40182500227E+02 -0.59557966672E+01  0.41453110588E+02  0.00000000000E+00 0.  1.
          1    1    1    2  501    0 -0.51761150756E+02 -0.10981237288E+02  0.37682929171E+03  0.38052610868E+03  0.00000000000E+00 0. -1.
<scales pt_clust_5="13000.00000" pt_clust_6="13000.00000" pt_clust_7="13000.00000" pt_clust_8="13000.00000" pt_clust_9="13000.00000"></scales>
<clustering>
<clus scale="   91.508">  7  8 -1 -1</clus>
<clus scale="   92.266">  5  6 -1 -1</clus>
<clus scale="   52.913">  5  9 -1 -1</clus>
<clus scale="  106.305">  2  7  1 -1</clus>
<clus scale="  235.387">  1  5  2 -1</clus>
</clustering>
</event>
<event>
 9    1  0.3312826E-006  0.3602378E+03  0.7546771E-02  0.1087440E+00
          3   -1    0    0  502    0 -0.00000000000E+00  0.00000000000E+00  0.36601393793E+03  0.36601393793E+03  0.00000000000E+00 0. -1.
         21   -1    0    0  501  502  0.00000000000E+00 -0.00000000000E+00 -0.26613257805E+03  0.26613257805E+03  0.00000000000E+00 0.  1.
         23    2    1    2    0    0 -0.13070173490E+03 -0.36359538694E+02  0.19998387424E+03  0.25825907915E+03  0.91100178101E+02 0.  0.
         23    2    1    2    0    0 -0.54805495860E+02  0.10096454485E+03 -0.96343420455E+02  0.17741639502E+03  0.94852732500E+02 0.  0.
        -13    1    4    4    0    0  0.45218789889E+00  0.90102949496E+02 -0.74854517107E+02  0.11714070477E+03  0.00000000000E+00 0.  1.
         13    1    4    4    0    0 -0.55257683759E+02  0.10861595351E+02 -0.21488903348E+02  0.60275690250E+02  0.00000000000E+00 0. -1.
        -13    1    3    3    0    0 -0.11921522564E+03 -0.16027700918E+01  0.18174408748E+03  0.21736088018E+03  0.00000000000E+00 0. -1.
         13    1    3    3    0    0 -0.11486509256E+02 -0.34756768602E+02  0.18239786758E+02  0.40898198977E+02  0.00000000000E+00 0.  1.
          3    1    1    2  501    0  0.18550723076E+03 -0.64605006153E+02 -0.37590939080E+01  0.19647104181E+03  0.00000000000E+00 0. -1.
<scales pt_clust_5="13000.00000" pt_clust_6="13000.00000" pt_clust_7="13000.00000" pt_clust_8="13000.00000" pt_clust_9="13000.00000"></scales>
<clustering>
<clus scale="   91.100">  7  8 -1 -1</clus>
<clus scale="   94.853">  5  6 -1 -1</clus>
<clus scale="  163.414">  1  7  2 -1</clus>
<clus scale="  129.921">  5  9 -1 -1</clus>
<clus scale="  360.238">  2  5  1 -1</clus>
</clustering>
</event>
<event>
 9    1  0.3312826E-006  0.3071499E+03  0.7546771E-02  0.1104129E+00
         21   -1    0    0  501  502  0.00000000000E+00  0.00000000000E+00  0.91120042996E+02  0.91120042996E+02  0.00000000000E+00 0. -1.
         -1   -1    0    0    0  501 -0.00000000000E+00 -0.00000000000E+00 -0.11424124332E+04  0.11424124332E+04  0.00000000000E+00 0.  1.
         23    2    1    2    0    0 -0.10182407272E+01  0.14422038314E+03 -0.84858233246E+03  0.86552102032E+03  0.90741974471E+02 0.  0.
         23    2    1    2    0    0 -0.54727495836E+02  0.28620406143E+02 -0.13386267187E+03  0.17379125066E+03  0.92032371686E+02 0.  0.
        -13    1    4    4    0    0 -0.17061324741E+02 -0.18962251562E+02  0.13920188311E+01  0.25545909704E+02  0.00000000000E+00 0.  1.
         13    1    4    4    0    0 -0.37666171096E+02  0.47582657705E+02 -0.13525469070E+03  0.14824534095E+03  0.00000000000E+00 0. -1.
        -13    1    3    3    0    0  0.19459462480E+02 -0.46330572349E+01 -0.11139808636E+03  0.11317981067E+03  0.00000000000E+00 0.  1.
         13    1    3    3    0    0 -0.20477703207E+02  0.14885344037E+03 -0.73718424610E+03  0.75234120965E+03  0.00000000000E+00 0. -1.
         -1    1    1    2    0  502  0.55745736563E+02 -0.17284078928E+03 -0.68847385924E+02  0.19422020526E+03  0.00000000000E+00 0.  1.
<scales pt_clust_5="13000.00000" pt_clust_6="13000.00000" pt_clust_7="13000.00000" pt_clust_8="13000.00000" pt_clust_9="13000.00000"></scales>
<clustering>
<clus scale="   90.742">  7  8 -1 -1</clus>
<clus scale="   92.032">  5  6 -1 -1</clus>
<clus scale="  170.396">  2  7  1 -1</clus>
<clus scale="  119.870">  5  9 -1 -1</clus>
<clus scale="  307.150">  1  5  2 -1</clus>
</clustering>
</event>
<event>
 9    1  0.3312826E-006  0.1592028E+03  0.7546771E-02  0.1207636E+00
         21   -1    0    0  501  502  0.00000000000E+00  0.00000000000E+00  0.35278857642E+03  0.35278857642E+03  0.00000000000E+00 0. -1.
         -1   -1    0    0    0  501 -0.00000000000E+00 -0.00000000000E+00 -0.50686619073E+02  0.50686619073E+02  0.00000000000E+00 0.  1.
         23    2    1    2    0    0 -0.43035656572E+02  0.36450752219E+02  0.10720934512E+03  0.15182330255E+03  0.91519104258E+02 0.  0.
         23    2    1    2    0    0  0.31457986161E+01 -0.42104718110E+02  0.72468085414E+02  0.12276848491E+03  0.89653634327E+02 0.  0.
        -11    1    4    4    0    0 -0.26568957734E+02  0.17608891857E+02  0.29478597775E+02  0.43416244820E+02  0.00000000000E+00 0. -1.
         11    1    4    4    0    0  0.29714756350E+02 -0.59713609967E+02  0.42989487638E+02  0.79352240092E+02  0.00000000000E+00 0.  1.
        -13    1    3    3    0    0 -0.63436063514E+02  0.14311522676E+02  0.10244681085E+03  0.12134373857E+03  0.00000000000E+00 0. -1.
         13    1    3    3    0    0  0.20400406942E+02  0.22139229543E+02  0.47625342615E+01  0.30479563985E+02  0.00000000000E+00 0.  1.
         -1    1    1    2    0  502  0.39889857956E+02  0.56539658904E+01  0.12242452682E+03  0.12888340802E+03  0.00000000000E+00 0.  1.
<scales pt_clust_5="13000.00000" pt_clust_6="13000.00000" pt_clust_7="13000.00000" pt_clust_8="13000.00000" pt_clust_9="13000.00000"></scales>
<clustering>
<clus scale="   89.654">  5  6 -1 -1</clus>
<clus scale="   40.289">  5  9 -1 -1</clus>
<clus scale="   91.519">  7  8 -1 -1</clus>
<clus scale="  107.501">  2  7  1 -1</clus>
<clus scale="  159.203">  1  5  2 -1</clus>
</clustering>
</event>
<event>
 9    1  0.3312826E-006  0.3032105E+03  0.7546771E-02  0.1128435E+00
         21   -1    0    0  501  502  0.00000000000E+00  0.00000000000E+00  0.14398073964E+03  0.14398073964E+03  0.00000000000E+00 0. -1.
          1   -1    0    0  502    0 -0.00000000000E+00 -0.00000000000E+00 -0.35860811318E+03  0.35860811318E+03  0.00000000000E+00 0. -1.
         23    2    1    2    0    0  0.88456027325E+01 -0.28898158171E+02  0.42509937071E+02  0.10502604840E+03  0.91159354210E+02 0.  0.
         23    2    1    2    0    0  0.74432905257E+02 -0.18259873977E+02 -0.27723349453E+03  0.29977197409E+03  0.84446110509E+02 0.  0.
        -11    1    4    4    0    0 -0.21791583684E+01  0.25636612543E+02 -0.64459678705E+02  0.69404861592E+02  0.00000000000E+00 0. -1.
         11    1    4    4    0    0  0.76612063625E+02 -0.43896486519E+02 -0.21277381582E+03  0.23036711250E+03  0.00000000000E+00 0.  1.
        -13    1    3    3    0    0 -0.50473740761E+01 -0.50722500027E+02  0.56103202065E+02  0.75801169357E+02  0.00000000000E+00 0. -1.
         13    1    3    3    0    0  0.13892976809E+02  0.21824341856E+02 -0.13593264994E+02  0.29224879046E+02  0.00000000000E+00 0.  1.
          1    1    1    2  501    0 -0.83278507989E+02  0.47158032148E+02  0.20096183919E+02  0.97790830332E+02  0.00000000000E+00 0. -1.
<scales pt_clust_5="13000.00000" pt_clust_6="13000.00000" pt_clust_7="13000.00000" pt_clust_8="13000.00000" pt_clust_9="13000.00000"></scales>
<clustering>
<clus scale="   84.446">  5  6 -1 -1</clus>
<clus scale="   91.159">  7  8 -1 -1</clus>
<clus scale="   95.704">  5  9 -1 -1</clus>
<clus scale="   96.038">  2  7  1 -1</clus>
<clus scale="  303.210">  1  5  2 -1</clus>
</clustering>
</event>
<event>
 9    1  0.3312826E-006  0.2501473E+03  0.7546771E-02  0.1138752E+00
         21   -1    0    0  501  502  0.00000000000E+00  0.00000000000E+00  0.16235974711E+03  0.16235974711E+03  0.00000000000E+00 0. -1.
          3   -1    0    0  502    0 -0.00000000000E+00 -0.00000000000E+00 -0.22603017223E+03  0.22603017223E+03  0.00000000000E+00 0. -1.
         23    2    1    2    0    0 -0.29191072135E+02 -0.91996155285E+02 -0.20305207651E+02  0.13451162121E+03  0.91464001137E+02 0.  0.
         23    2    1    2    0    0  0.47005529384E+02  0.15432989307E+03 -0.39683332471E+02  0.18894443923E+03  0.89988880170E+02 0.  0.
        -11    1    3    3    0    0  0.28104959264E+01 -0.31785825619E+02 -0.50661360911E+02  0.59873291933E+02  0.00000000000E+00 0. -1.
         11    1    3    3    0    0 -0.32001568061E+02 -0.60210329667E+02  0.30356153259E+02  0.74638329280E+02  0.00000000000E+00 0.  1.
        -11    1    4    4    0    0  0.73845936966E+02  0.12304531360E+03 -0.31446789318E+02  0.14690906086E+03  0.00000000000E+00 0. -1.
         11    1    4    4    0    0 -0.26840407582E+02  0.31284579471E+02 -0.82365431531E+01  0.42035378373E+02  0.00000000000E+00 0.  1.
          3    1    1    2  501    0 -0.17814457249E+02 -0.62333737784E+02 -0.36818850042E+01  0.64933858890E+02  0.00000000000E+00 0. -1.
<scales pt_clust_5="13000.00000" pt_clust_6="13000.00000" pt_clust_7="13000.00000" pt_clust_8="13000.00000" pt_clust_9="13000.00000"></scales>
<clustering>
<clus scale="   89.989">  7  8 -1 -1</clus>
<clus scale="   64.829">  7  9 -1 -1</clus>
<clus scale="   91.464">  5  6 -1 -1</clus>
<clus scale="  132.970">  2  5  1 -1</clus>
<clus scale="  250.147">  1  5  2 -1</clus>
</clustering>
</event>
<event>
 9    1  0.3312826E-006  0.3679815E+03  0.7546771E-02  0.1099022E+00
         21   -1    0    0  501  502  0.00000000000E+00  0.00000000000E+00  0.14625983732E+03  0.14625983732E+03  0.00000000000E+00 0.  1.
         -3   -1    0    0    0  501 -0.00000000000E+00 -0.00000000000E+00 -0.42171800171E+03  0.42171800171E+03  0.00000000000E+00 0.  1.
         23    2    1    2    0    0  0.44848885182E+02 -0.48499387322E+02 -0.12996435226E+03  0.17227740880E+03  0.91788668423E+02 0.  0.
         23    2    1    2    0    0 -0.31266110251E+02  0.13667662275E+03 -0.22203893873E+03  0.27814672750E+03  0.91685565113E+02 0.  0.
        -11    1    4    4    0    0 -0.52116729129E+02  0.10310591743E+03 -0.20457220493E+03  0.23493992997E+03  0.00000000000E+00 0.  1.
         11    1    4    4    0    0  0.20850618878E+02  0.33570705316E+02 -0.17466733799E+02  0.43206797528E+02  0.00000000000E+00 0. -1.
        -13    1    3    3    0    0  0.60072941480E+02  0.18854935364E+01 -0.76019631243E+02  0.96908708166E+02  0.00000000000E+00 0.  1.
         13    1    3    3    0    0 -0.15224056299E+02 -0.50384880858E+02 -0.53944721018E+02  0.75368700632E+02  0.00000000000E+00 0. -1.
         -3    1    1    2    0  502 -0.13582774931E+02 -0.88177235427E+02  0.76545126594E+02  0.11755370274E+03  0.00000000000E+00 0.  1.
<scales pt_clust_5="13000.00000" pt_clust_6="13000.00000" pt_clust_7="13000.00000" pt_clust_8="13000.00000" pt_clust_9="13000.00000"></scales>
<clustering>
<clus scale="   91.686">  5  6 -1 -1</clus>
<clus scale="   89.217">  5  9 -1 -1</clus>
<clus scale="   91.789">  7  8 -1 -1</clus>
<clus scale="  113.087">  2  7  1 -1</clus>
<clus scale="  367.981">  1  5  2 -1</clus>
</clustering>
</event>
<event>
 9    1  0.3312826E-006  0.2464990E+03  0.7546771E-02  0.1144997E+00
          2   -1    0    0  502    0 -0.00000000000E+00  0.00000000000E+00  0.98161197079E+02  0.98161197079E+02  0.00000000000E+00 0. -1.
         21   -1    0    0  501  502  0.00000000000E+00 -0.00000000000E+00 -0.34808330034E+03  0.34808330034E+03  0.00000000000E+00 0. -1.
         23    2    1    2    0    0 -0.80299691363E+02 -0.11136292035E+01 -0.53302827023E+02  0.13093371394E+03  0.88618087736E+02 0.  0.
         23    2    1    2    0    0  0.15224856827E+02  0.52885152343E+02 -0.56145495807E+01  0.10698932442E+03  0.91578145702E+02 0.  0.
        -11    1    3    3    0    0  0.12590583354E+02 -0.19147924867E+02 -0.20608292133E+02  0.30819920839E+02  0.00000000000E+00 0.  1.
         11    1    3    3    0    0 -0.92890274716E+02  0.18034295663E+02 -0.32694534890E+02  0.10011379310E+03  0.00000000000E+00 0. -1.
        -13    1    4    4    0    0 -0.18455439772E+02  0.67100568941E+02 -0.94513630258E+01  0.70231174505E+02  0.00000000000E+00 0.  1.
         13    1    4    4    0    0  0.33680296600E+02 -0.14215416598E+02  0.38368134451E+01  0.36758149919E+02  0.00000000000E+00 0. -1.
          2    1    1    2  501    0  0.65074834535E+02 -0.51771523139E+02 -0.19100472666E+03  0.20832145906E+03  0.00000000000E+00 0. -1.
<scales pt_clust_5="13000.00000" pt_clust_6="13000.00000" pt_clust_7="13000.00000" pt_clust_8="13000.00000" pt_clust_9="13000.00000"></scales>
<clustering>
<clus scale="   88.618">  5  6 -1 -1</clus>
<clus scale="   91.578">  7  8 -1 -1</clus>
<clus scale="   83.157">  7  9 -1 -1</clus>
<clus scale="  119.593">  1  5  2 -1</clus>
<clus scale="  246.499">  2  5  1 -1</clus>
</clustering>
</event>
<event>
 9    1  0.3312826E-006  0.2145066E+03  0.7546771E-02  0.1174129E+00
          1   -1    0    0  502    0 -0.00000000000E+00  0.00000000000E+00  0.21006788588E+03  0.21006788588E+03  0.00000000000E+00 0. -1.
         21   -1    0    0  501  502  0.00000000000E+00 -0.00000000000E+00 -0.11237131555E+03  0.11237131555E+03  0.00000000000E+00 0. -1.
         23    2    1    2    0    0 -0.19349932281E+02  0.14454103227E+02  0.19277834590E+02  0.94047897083E+02  0.88825846800E+02 0.  0.
         23    2    1    2    0    0  0.60476779083E+02 -0.33517885201E+02  0.12139087771E+03  0.16592971377E+03  0.89532314191E+02 0.  0.
        -11    1    3    3    0    0 -0.31586425194E+02 -0.26436561749E+02  0.28871544351E+02  0.50300697081E+02  0.00000000000E+00 0.  1.
         11    1    3    3    0    0  0.12236492913E+02  0.40890664976E+02 -0.95937097608E+01  0.43747200001E+02  0.00000000000E+00 0. -1.
        -13    1    4    4    0    0  0.22609952940E+02 -0.26828885050E+01  0.11434605045E+03  0.11659085348E+03  0.00000000000E+00 0. -1.
         13    1    4    4    0    0  0.37866826143E+02 -0.30834996696E+02  0.70448272614E+01  0.49338860288E+02  0.00000000000E+00 0.  1.
          1    1    1    2  501    0 -0.41126846802E+02  0.19063781973E+02 -0.42972141969E+02  0.62461590569E+02  0.00000000000E+00 0. -1.
<scales pt_clust_5="13000.00000" pt_clust_6="13000.00000" pt_clust_7="13000.00000" pt_clust_8="13000.00000" pt_clust_9="13000.00000"></scales>
<clustering>
<clus scale="   88.826">  5  6 -1 -1</clus>
<clus scale="   89.532">  7  8 -1 -1</clus>
<clus scale="   45.330">  7  9 -1 -1</clus>
<clus scale="   92.051">  1  5  2 -1</clus>
<clus scale="  214.507">  2  5  1 -1</clus>
</clustering>
</event>
<event>
 9    1  0.3312826E-006  0.7613846E+03  0.7546771E-02  0.9887763E-01
          2   -1    0    0  502    0 -0.00000000000E+00  0.00000000000E+00  0.14526183069E+04  0.14526183069E+04  0.00000000000E+00 0. -1.
         21   -1    0    0  501  502  0.00000000000E+00 -0.00000000000E+00 -0.42394681240E+03  0.42394681240E+03  0.00000000000E+00 0. -1.
         23    2    1    2    0    0 -0.29466284847E+03  0.39679187254E+02  0.10698416353E+04  0.11140682410E+04  0.90478112474E+02 0.  0.
         23    2    1    2    0    0 -0.19965883152E+03  0.94875428242E+02 -0.70760495009E+02  0.24933563959E+03  0.91083574960E+02 0.  0.
        -11    1    4    4    0    0 -0.39591619336E+02 -0.13314296790E+02 -0.31174291638E+02  0.52121044500E+02  0.00000000000E+00 0.  1.
         11    1    4    4    0    0 -0.16006721219E+03  0.10818972503E+03 -0.39586203371E+02  0.19721459509E+03  0.00000000000E+00 0. -1.
        -11    1    3    3    0    0 -0.18335598961E+03  0.25996967400E+02  0.49764797027E+03  0.53098847780E+03  0.00000000000E+00 0. -1.
         11    1    3    3    0    0 -0.11130685886E+03  0.13682219854E+02  0.57219366499E+03  0.58307976317E+03  0.00000000000E+00 0.  1.
          2    1    1    2  501    0  0.49432168000E+03 -0.13455461550E+03  0.29590354237E+02  0.51316123872E+03  0.00000000000E+00 0. -1.
<scales pt_clust_5="13000.00000" pt_clust_6="13000.00000" pt_clust_7="13000.00000" pt_clust_8="13000.00000" pt_clust_9="13000.00000"></scales>
<clustering>
<clus scale="   90.478">  7  8 -1 -1</clus>
<clus scale="   91.084">  5  6 -1 -1</clus>
<clus scale="  310.784">  1  7  2 -1</clus>
<clus scale="  292.021">  5  9 -1 -1</clus>
<clus scale="  761.385">  2  5  1 -1</clus>
</clustering>
</event>
<event>
 9    1  0.3312826E-006  0.1646140E+03  0.7546771E-02  0.1198775E+00
          2   -1    0    0  502    0 -0.00000000000E+00  0.00000000000E+00  0.60093151575E+03  0.60093151575E+03  0.00000000000E+00 0. -1.
         21   -1    0    0  501  502  0.00000000000E+00 -0.00000000000E+00 -0.42063822140E+02  0.42063822140E+02  0.00000000000E+00 0.  1.
         23    2    1    2    0    0 -0.98581662256E+01 -0.77445710748E+02  0.96656042307E+02  0.15234539391E+03  0.88157285447E+02 0.  0.
         23    2    1    2    0    0  0.39489113348E+02  0.52221446729E+02  0.37481763655E+03  0.39498401306E+03  0.10600773715E+03 0.  0.
        -13    1    3    3    0    0 -0.29456038471E+02 -0.87525006836E+02  0.90872636212E+02  0.12956126364E+03  0.00000000000E+00 0. -1.
         13    1    3    3    0    0  0.19597872246E+02  0.10079296088E+02  0.57834060948E+01  0.22784130272E+02  0.00000000000E+00 0.  1.
        -13    1    4    4    0    0  0.67551362258E+02  0.16988594822E+02  0.14586595446E+03  0.16164366850E+03  0.00000000000E+00 0. -1.
         13    1    4    4    0    0 -0.28062248910E+02  0.35232851907E+02  0.22895168209E+03  0.23334034456E+03  0.00000000000E+00 0.  1.
          2    1    1    2  501    0 -0.29630947123E+02  0.25224264019E+02  0.87394014751E+02  0.95665930911E+02  0.00000000000E+00 0. -1.
<scales pt_clust_5="13000.00000" pt_clust_6="13000.00000" pt_clust_7="13000.00000" pt_clust_8="13000.00000" pt_clust_9="13000.00000"></scales>
<clustering>
<clus scale="   88.157">  5  6 -1 -1</clus>
<clus scale="  106.008">  7  8 -1 -1</clus>
<clus scale="   38.913">  7  9 -1 -1</clus>
<clus scale="  117.757">  1  5  2 -1</clus>
<clus scale="  164.614">  2  5  1 -1</clus>
</clustering>
</event>
<event>
 9    1  0.3312826E-006  0.1449492E+03  0.7546771E-02  0.1220476E+00
         21   -1    0    0  501  502  0.00000000000E+00  0.00000000000E+00  0.10221174776E+03  0.10221174776E+03  0.00000000000E+00 0.  1.
         -1   -1    0    0    0  501 -0.00000000000E+00 -0.00000000000E+00 -0.18561721484E+03  0.18561721484E+03  0.00000000000E+00 0.  1.
         23    2    1    2    0    0  0.42903747923E+02 -0.31028229775E+02 -0.92544231596E+02  0.14259198690E+03  0.94681346087E+02 0.  0.
         23    2    1    2    0    0 -0.17833907871E+02 -0.16633992643E+02 -0.70230991770E+01  0.89010734819E+02  0.85316170857E+02 0.  0.
        -11    1    4    4    0    0 -0.46165576800E+02 -0.10141865184E+02  0.18078695987E+02  0.50605900439E+02  0.00000000000E+00 0. -1.
         11    1    4    4    0    0  0.28331668929E+02 -0.64921274586E+01 -0.25101795164E+02  0.38404834379E+02  0.00000000000E+00 0.  1.
        -13    1    3    3    0    0  0.36673836629E+01  0.23211571977E+02  0.52508576642E+01  0.24079000867E+02  0.00000000000E+00 0. -1.
         13    1    3    3    0    0  0.39236364260E+02 -0.54239801751E+02 -0.97795089260E+02  0.11851298603E+03  0.00000000000E+00 0.  1.
         -1    1    1    2    0  502 -0.25069840052E+02  0.47662222418E+02  0.16161863691E+02  0.56226240884E+02  0.00000000000E+00 0.  1.
<scales pt_clust_5="13000.00000" pt_clust_6="13000.00000" pt_clust_7="13000.00000" pt_clust_8="13000.00000" pt_clust_9="13000.00000"></scales>
<clustering>
<clus scale="   85.316">  5  6 -1 -1</clus>
<clus scale="   53.853">  5  9 -1 -1</clus>
<clus scale="   94.681">  7  8 -1 -1</clus>
<clus scale="  108.481">  2  7  1 -1</clus>
<clus scale="  144.949">  1  5  2 -1</clus>
</clustering>
</event>
<event>
 9    1  0.3312826E-006  0.3912322E+03  0.7546771E-02  0.1096550E+00
          1   -1    0    0  502    0 -0.00000000000E+00  0.00000000000E+00  0.91834283244E+03  0.91834283244E+03  0.00000000000E+00 0. -1.
         21   -1    0    0  501  502  0.00000000000E+00 -0.00000000000E+00 -0.83940627585E+02  0.83940627585E+02  0.00000000000E+00 0.  1.
         23    2    1    2    0    0 -0.18840496477E+02 -0.39306434680E+02  0.42224943954E+03  0.43401189479E+03  0.90397873405E+02 0.  0.
         23    2    1    2    0    0 -0.22175459261E+02 -0.16126824841E+03  0.18556867922E+03  0.26289825239E+03  0.90446434238E+02 0.  0.
        -11    1    4    4    0    0 -0.33157980895E+02 -0.14045008333E+03  0.10368051039E+03  0.17769447330E+03  0.00000000000E+00 0.  1.
         11    1    4    4    0    0  0.10982521634E+02 -0.20818165075E+02  0.81888168825E+02  0.85203779095E+02  0.00000000000E+00 0. -1.
        -13    1    3    3    0    0 -0.20755282830E+01 -0.66835309067E+02  0.31522796093E+03  0.32224204212E+03  0.00000000000E+00 0.  1.
         13    1    3    3    0    0 -0.16764968194E+02  0.27528874387E+02  0.10702147861E+03  0.11176985267E+03  0.00000000000E+00 0. -1.
          1    1    1    2  501    0  0.41015955738E+02  0.20057468309E+03  0.22658408610E+03  0.30537331284E+03  0.00000000000E+00 0. -1.
<scales pt_clust_5="13000.00000" pt_clust_6="13000.00000" pt_clust_7="13000.00000" pt_clust_8="13000.00000" pt_clust_9="13000.00000"></scales>
<clustering>
<clus scale="   90.398">  7  8 -1 -1</clus>
<clus scale="   90.446">  5  6 -1 -1</clus>
<clus scale="  100.358">  1  7  2 -1</clus>
<clus scale="  181.874">  5  9 -1 -1</clus>
<clus scale="  391.232">  2  5  1 -1</clus>
</clustering>
</event>
<event>
 9    1  0.3312826E-006  0.2373132E+03  0.7546771E-02  0.1135666E+00
          1   -1    0    0  502    0 -0.00000000000E+00  0.00000000000E+00  0.72287954300E+03  0.72287954300E+03  0.00000000000E+00 0. -1.
         21   -1    0    0  501  502  0.00000000000E+00 -0.00000000000E+00 -0.18904208640E+03  0.18904208640E+03  0.00000000000E+00 0. -1.
         23    2    1    2    0    0  0.11711050704E+03 -0.68386769041E+02  0.63289135038E+03  0.65476555312E+03  0.98867826536E+02 0.  0.
         23    2    1    2    0    0 -0.76645713169E+02 -0.25817711241E+02 -0.17662845947E+02  0.12625005536E+03  0.95320411196E+02 0.  0.
        -11    1    3    3    0    0  0.11257016127E+03 -0.17584150849E+02  0.48912383909E+03  0.50221845201E+03  0.00000000000E+00 0. -1.
         11    1    3    3    0    0  0.45403457717E+01 -0.50802618193E+02  0.14376751129E+03  0.15254710111E+03  0.00000000000E+00 0.  1.
        -11    1    4    4    0    0 -0.13857367550E+02 -0.53759787421E+02 -0.96436679932E+00  0.55525412041E+02  0.00000000000E+00 0.  1.
         11    1    4    4    0    0 -0.62788345619E+02  0.27942076180E+02 -0.16698479148E+02  0.70724643320E+02  0.00000000000E+00 0. -1.
          1    1    1    2  501    0 -0.40464793869E+02  0.94204480282E+02 -0.81391047834E+02  0.13090602093E+03  0.00000000000E+00 0. -1.
<scales pt_clust_5="13000.00000" pt_clust_6="13000.00000" pt_clust_7="13000.00000" pt_clust_8="13000.00000" pt_clust_9="13000.00000"></scales>
<clustering>
<clus scale="   95.320">  7  8 -1 -1</clus>
<clus scale="   98.868">  5  6 -1 -1</clus>
<clus scale="  102.528">  7  9 -1 -1</clus>
<clus scale="  167.829">  1  5  2 -1</clus>
<clus scale="  237.313">  2  5  1 -1</clus>
</clustering>
</event>
<event>
 9    1  0.9565229E-006  0.7777260E+03  0.7546771E-02  0.1009598E+00
         -2   -1    0    0    0  501 -0.00000000000E+00  0.00000000000E+00  0.49334587236E+03  0.49334587236E+03  0.00000000000E+00 0.  1.
         21   -1    0    0  501  502  0.00000000000E+00 -0.00000000000E+00 -0.48102808810E+03  0.48102808810E+03  0.00000000000E+00 0.  1.
         23    2    1    2    0    0 -0.27768649071E+02 -0.11780466480E+03  0.11500811474E+03  0.18989764110E+03  0.90472154405E+02 0.  0.
         23    2    1    2    0    0  0.20176353294E+02  0.16789923546E+02  0.32831334365E+03  0.34172832330E+03  0.91102187496E+02 0.  0.
        -11    1    4    4    0    0 -0.22409991551E+01 -0.33743881007E+02  0.18609904374E+03  0.18914683625E+03  0.00000000000E+00 0.  1.
         11    1    4    4    0    0  0.22417352449E+02  0.50533804553E+02  0.14221429991E+03  0.15258148706E+03  0.00000000000E+00 0. -1.
        -11    1    3    3    0    0  0.24415292402E+02 -0.30353375493E+02  0.38519312073E+01  0.39144236880E+02  0.00000000000E+00 0. -1.
         11    1    3    3    0    0 -0.52183941473E+02 -0.87451289303E+02  0.11115618353E+03  0.15075340422E+03  0.00000000000E+00 0.  1.
         -2    1    1    2    0  502  0.75922957773E+01  0.10101474125E+03 -0.43100367412E+03  0.44274799605E+03  0.00000000000E+00 0.  1.
<scales pt_clust_5="13000.00000" pt_clust_6="13000.00000" pt_clust_7="13000.00000" pt_clust_8="13000.00000" pt_clust_9="13000.00000"></scales>
<clustering>
<clus scale="   90.472">  7  8 -1 -1</clus>
<clus scale="   91.102">  5  6 -1 -1</clus>
<clus scale="  101.300">  5  9 -1 -1</clus>
<clus scale="  151.110">  1  7  2 -1</clus>
<clus scale="  777.726">  2  5  1 -1</clus>
</clustering>
</event>
<event>
 9    1  0.3312826E-006  0.4490960E+03  0.7546771E-02  0.1047022E+00
         -3   -1    0    0    0  501 -0.00000000000E+00  0.00000000000E+00  0.21215751848E+03  0.21215751848E+03  0.00000000000E+00 0.  1.
         21   -1    0    0  501  502  0.00000000000E+00 -0.00000000000E+00 -0.67467437445E+03  0.67467437445E+03  0.00000000000E+00 0.  1.
         23    2    1    2    0    0  0.23676177855E+03 -0.44031303396E+02 -0.23036813775E+02  0.25847696206E+03  0.91020600242E+02 0.  0.
         23    2    1    2    0    0 -0.65511019302E+02 -0.20928955676E+02  0.36004156387E+02  0.11881407784E+03  0.89948713054E+02 0.  0.
        -11    1    3    3    0    0  0.16642664371E+03 -0.72539830296E+02 -0.15394314278E+02  0.18219999898E+03  0.00000000000E+00 0.  1.
         11    1    3    3    0    0  0.70335134840E+02  0.28508526900E+02 -0.76424994970E+01  0.76276963085E+02  0.00000000000E+00 0. -1.
        -11    1    4    4    0    0  0.75957058426E+00  0.28754832228E+02  0.18372088155E+02  0.34131377750E+02  0.00000000000E+00 0.  1.
         11    1    4    4    0    0 -0.66270589886E+02 -0.49683787904E+02  0.17632068232E+02  0.84682700089E+02  0.00000000000E+00 0. -1.
         -3    1    1    2    0  502 -0.17125075925E+03  0.64960259072E+02 -0.47548419858E+03  0.50954085302E+03  0.00000000000E+00 0.  1.
<scales pt_clust_5="13000.00000" pt_clust_6="13000.00000" pt_clust_7="13000.00000" pt_clust_8="13000.00000" pt_clust_9="13000.00000"></scales>
<clustering>
<clus scale="   89.949">  7  8 -1 -1</clus>
<clus scale="   91.021">  5  6 -1 -1</clus>
<clus scale="  183.158">  7  9 -1 -1</clus>
<clus scale="  257.448">  1  5  2 -1</clus>
<clus scale="  449.096">  2  5  1 -1</clus>
</clustering>
</event>
<event>
 9    1  0.3312826E-006  0.3339396E+03  0.7546771E-02  0.1089538E+00
         21   -1    0    0  501  502  0.00000000000E+00  0.00000000000E+00  0.55079756975E+02  0.55079756975E+02  0.00000000000E+00 0. -1.
          2   -1    0    0  502    0 -0.00000000000E+00 -0.00000000000E+00 -0.13149313084E+04  0.13149313084E+04  0.00000000000E+00 0. -1.
         23    2    1    2    0    0 -0.13158200976E+03 -0.10848627647E+03 -0.34081652645E+03  0.39218643367E+03  0.92580757046E+02 0.  0.
         23    2    1    2    0    0 -0.10018891034E+02  0.49618369131E+02 -0.98112950377E+02  0.14270230643E+03  0.90418120392E+02 0.  0.
        -13    1    4    4    0    0 -0.30983379427E+02  0.61618511626E+02 -0.96337804251E+02  0.11848115168E+03  0.00000000000E+00 0. -1.
         13    1    4    4    0    0  0.20964488393E+02 -0.12000142495E+02 -0.17751461261E+01  0.24221154746E+02  0.00000000000E+00 0.  1.
        -13    1    3    3    0    0 -0.13440551813E+02 -0.37624119500E+02 -0.23736869865E+02  0.46472161475E+02  0.00000000000E+00 0.  1.
         13    1    3    3    0    0 -0.11814145795E+03 -0.70862156974E+02 -0.31707965659E+03  0.34571427220E+03  0.00000000000E+00 0. -1.
          2    1    1    2  501    0  0.14160090080E+03  0.58867907342E+02 -0.82092207458E+03  0.83512232526E+03  0.00000000000E+00 0. -1.
<scales pt_clust_5="13000.00000" pt_clust_6="13000.00000" pt_clust_7="13000.00000" pt_clust_8="13000.00000" pt_clust_9="13000.00000"></scales>
<clustering>
<clus scale="   90.418">  5  6 -1 -1</clus>
<clus scale="   92.581">  7  8 -1 -1</clus>
<clus scale="  153.350">  5  9 -1 -1</clus>
<clus scale="  194.047">  2  7  1 -1</clus>
<clus scale="  333.940">  1  5  2 -1</clus>
</clustering>
</event>
<event>
 9    1  0.3312826E-006  0.2803439E+03  0.7546771E-02  0.1135870E+00
         21   -1    0    0  501  502  0.00000000000E+00  0.00000000000E+00  0.18306773044E+03  0.18306773044E+03  0.00000000000E+00 0. -1.
          1   -1    0    0  502    0 -0.00000000000E+00 -0.00000000000E+00 -0.26689975511E+03  0.26689975511E+03  0.00000000000E+00 0. -1.
         23    2    1    2    0    0  0.75353727855E+00 -0.46482235763E+02 -0.13108853975E+03  0.16566851314E+03  0.90003805087E+02 0.  0.
         23    2    1    2    0    0  0.32862253170E+02  0.33040233456E+02 -0.95802314100E+02  0.13673021760E+03  0.85705800895E+02 0.  0.
        -11    1    4    4    0    0 -0.24991324648E+02 -0.59832613715E+01 -0.14207240188E+02  0.29363436414E+02  0.00000000000E+00 0.  1.
         11    1    4    4    0    0  0.57853577818E+02  0.39023494828E+02 -0.81595073912E+02  0.10736678118E+03  0.00000000000E+00 0. -1.
        -13    1    3    3    0    0 -0.14291860272E+02 -0.68295849002E+02 -0.11545493791E+03  0.13490153056E+03  0.00000000000E+00 0.  1.
         13    1    3    3    0    0  0.15045397551E+02  0.21813613239E+02 -0.15633601847E+02  0.30766982574E+02  0.00000000000E+00 0. -1.
          1    1    1    2  501    0 -0.33615790448E+02  0.13442002307E+02  0.14305882918E+03  0.14756875483E+03  0.00000000000E+00 0. -1.
<scales pt_clust_5="13000.00000" pt_clust_6="13000.00000" pt_clust_7="13000.00000" pt_clust_8="13000.00000" pt_clust_9="13000.00000"></scales>
<clustering>
<clus scale="   85.706">  5  6 -1 -1</clus>
<clus scale="   36.204">  5  9 -1 -1</clus>
<clus scale="   90.004">  7  8 -1 -1</clus>
<clus scale="  101.301">  2  7  1 -1</clus>
<clus scale="  280.344">  1  5  2 -1</clus>
</clustering>
</event>
<event>
 9    1  0.3312826E-006  0.3582079E+03  0.7546771E-02  0.1095196E+00
         -1   -1    0    0    0  501 -0.00000000000E+00  0.00000000000E+00  0.29628312652E+03  0.29628312652E+03  0.00000000000E+00 0.  1.
         21   -1    0    0  501  502  0.00000000000E+00 -0.00000000000E+00 -0.27760354242E+03  0.27760354242E+03  0.00000000000E+00 0.  1.
         23    2    1    2    0    0  0.96044047061E+02  0.22288008595E+02 -0.12841051260E+03  0.18665498441E+03  0.92895689654E+02 0.  0.
         23    2    1    2    0    0  0.41620860091E+02  0.47490792777E+02  0.19612389598E+03  0.22529027150E+03  0.91123281688E+02 0.  0.
        -11    1    3    3    0    0  0.93566966577E+02 -0.11293720090E+02 -0.11878794194E+03  0.15163410071E+03  0.00000000000E+00 0.  1.
         11    1    3    3    0    0  0.24770804839E+01  0.33581728685E+02 -0.96225706648E+01  0.35020883704E+02  0.00000000000E+00 0. -1.
        -13    1    4    4    0    0  0.26233713339E+01  0.65754239331E+02  0.13864624373E+03  0.15347078865E+03  0.00000000000E+00 0.  1.
         13    1    4    4    0    0  0.38997488757E+02 -0.18263446555E+02  0.57477652248E+02  0.71819482853E+02  0.00000000000E+00 0. -1.
         -1    1    1    2    0  502 -0.13766490715E+03 -0.69778801372E+02 -0.49033799276E+02  0.16194141303E+03  0.00000000000E+00 0.  1.
<scales pt_clust_5="13000.00000" pt_clust_6="13000.00000" pt_clust_7="13000.00000" pt_clust_8="13000.00000" pt_clust_9="13000.00000"></scales>
<clustering>
<clus scale="   91.123">  7  8 -1 -1</clus>
<clus scale="   92.896">  5  6 -1 -1</clus>
<clus scale="  135.465">  1  5  2 -1</clus>
<clus scale="  134.200">  7  9 -1 -1</clus>
<clus scale="  358.208">  2  5  1 -1</clus>
</clustering>
</event>
<event>
 9    1  0.3312826E-006  0.1407288E+03  0.7546771E-02  0.1234291E+00
         21   -1    0    0  501  502  0.00000000000E+00  0.00000000000E+00  0.22028617062E+03  0.22028617062E+03  0.00000000000E+00 0.  1.
          2   -1    0    0  502    0 -0.00000000000E+00 -0.00000000000E+00 -0.60525318311E+02  0.60525318311E+02  0.00000000000E+00 0. -1.
         23    2    1    2    0    0  0.10329894967E+02 -0.82962047139E+01  0.48141246007E+02  0.10119095915E+03  0.88014185810E+02 0.  0.
         23    2    1    2    0    0  0.21033363765E+02  0.21050648461E+02  0.47339597415E+02  0.10696896837E+03  0.91190956339E+02 0.  0.
        -13    1    4    4    0    0  0.11625759323E+02  0.56535041829E+02  0.19594523006E+02  0.60953380269E+02  0.00000000000E+00 0.  1.
         13    1    4    4    0    0  0.94076044419E+01 -0.35484393367E+02  0.27745074409E+02  0.46015588097E+02  0.00000000000E+00 0. -1.
        -13    1    3    3    0    0  0.81185516799E+01  0.38288157360E+02  0.35574184479E+02  0.52890608587E+02  0.00000000000E+00 0.  1.
         13    1    3    3    0    0  0.22113432867E+01 -0.46584362074E+02  0.12567061527E+02  0.48300350561E+02  0.00000000000E+00 0. -1.
          2    1    1    2  501    0 -0.31363258732E+02 -0.12754443747E+02  0.64280008884E+02  0.72651561413E+02  0.00000000000E+00 0. -1.
<scales pt_clust_5="13000.00000" pt_clust_6="13000.00000" pt_clust_7="13000.00000" pt_clust_8="13000.00000" pt_clust_9="13000.00000"></scales>
<clustering>
<clus scale="   88.014">  7  8 -1 -1</clus>
<clus scale="   89.006">  2  7  1 -1</clus>
<clus scale="   91.191">  5  6 -1 -1</clus>
<clus scale="   33.095">  5  9 -1 -1</clus>
<clus scale="  140.729">  1  5  2 -1</clus>
</clustering>
</event>
<event>
 9    1  0.3312826E-006  0.1828214E+03  0.7546771E-02  0.1189569E+00
         -3   -1    0    0    0  501 -0.00000000000E+00  0.00000000000E+00  0.41265256982E+03  0.41265256982E+03  0.00000000000E+00 0.  1.
         21   -1    0    0  501  502  0.00000000000E+00 -0.00000000000E+00 -0.54834724219E+02  0.54834724219E+02  0.00000000000E+00 0.  1.
         23    2    1    2    0    0 -0.38306127409E+02  0.32573173540E+02  0.19996053504E+03  0.22594520839E+03  0.92404819065E+02 0.  0.
         23    2    1    2    0    0  0.68810184803E+02 -0.62800359803E+01  0.16409844948E+03  0.20078943647E+03  0.92810647505E+02 0.  0.
        -11    1    3    3    0    0 -0.35419738414E+02  0.61578665828E+02  0.16950189249E+03  0.18378623863E+03  0.00000000000E+00 0.  1.
         11    1    3    3    0    0 -0.28863889948E+01 -0.29005492287E+02  0.30458642559E+02  0.42158969755E+02  0.00000000000E+00 0. -1.
        -13    1    4    4    0    0  0.46673660066E+01 -0.32071136961E+02  0.10483759397E+03  0.10973268993E+03  0.00000000000E+00 0. -1.
         13    1    4    4    0    0  0.64142818797E+02  0.25791100980E+02  0.59260855513E+02  0.91056746532E+02  0.00000000000E+00 0.  1.
         -3    1    1    2    0  502 -0.30504057394E+02 -0.26293137560E+02 -0.62411389267E+01  0.40752649182E+02  0.00000000000E+00 0.  1.
<scales pt_clust_5="13000.00000" pt_clust_6="13000.00000" pt_clust_7="13000.00000" pt_clust_8="13000.00000" pt_clust_9="13000.00000"></scales>
<clustering>
<clus scale="   92.405">  5  6 -1 -1</clus>
<clus scale="   92.811">  7  8 -1 -1</clus>
<clus scale="   40.272">  7  9 -1 -1</clus>
<clus scale="  105.200">  1  5  2 -1</clus>
<clus scale="  182.821">  2  5  1 -1</clus>
</clustering>
</event>
<event>
 9    1  0.3312826E-006  0.1181973E+03  0.7546771E-02  0.1257640E+00
         -1   -1    0    0    0  501 -0.00000000000E+00  0.00000000000E+00  0.84945713076E+02  0.84945713076E+02  0.00000000000E+00 0.  1.
         21   -1    0    0  501  502  0.00000000000E+00 -0.00000000000E+00 -0.13347122775E+03  0.13347122775E+03  0.00000000000E+00 0. -1.
         23    2    1    2    0    0  0.85643885961E+01 -0.12633872790E+02 -0.31099300672E+02  0.98941921183E+02  0.92678874462E+02 0.  0.
         23    2    1    2    0    0 -0.21621500015E+02 -0.46459328895E+01 -0.38964989981E+01  0.93938124155E+02  0.91214661705E+02 0.  0.
        -11    1    3    3    0    0  0.30050860041E+02 -0.10772289540E+02  0.23891223850E+02  0.39873386966E+02  0.00000000000E+00 0. -1.
         11    1    3    3    0    0 -0.21486471445E+02 -0.18615832506E+01 -0.54990524522E+02  0.59068534217E+02  0.00000000000E+00 0.  1.
        -11    1    4    4    0    0 -0.55594677848E+02 -0.74862742338E+01  0.10254694871E+02  0.57026057849E+02  0.00000000000E+00 0.  1.
         11    1    4    4    0    0  0.33973177833E+02  0.28403413443E+01 -0.14151193869E+02  0.36912066306E+02  0.00000000000E+00 0. -1.
         -1    1    1    2    0  502  0.13057111418E+02  0.17279805680E+02 -0.13529715000E+02  0.25536895483E+02  0.00000000000E+00 0.  1.
<scales pt_clust_5="13000.00000" pt_clust_6="13000.00000" pt_clust_7="13000.00000" pt_clust_8="13000.00000" pt_clust_9="13000.00000"></scales>
<clustering>
<clus scale="   91.215">  7  8 -1 -1</clus>
<clus scale="   21.658">  7  9 -1 -1</clus>
<clus scale="   92.679">  5  6 -1 -1</clus>
<clus scale="   93.927">  1  5  2 -1</clus>
<clus scale="  118.197">  2  5  1 -1</clus>
</clustering>
</event>
<event>
 9    1  0.3312826E-006  0.1511577E+03  0.7546771E-02  0.1219682E+00
         21   -1    0    0  501  502  0.00000000000E+00  0.00000000000E+00  0.96928341129E+02  0.96928341129E+02  0.00000000000E+00 0.  1.
          1   -1    0    0  502    0 -0.00000000000E+00 -0.00000000000E+00 -0.17708916744E+03  0.17708916744E+03  0.00000000000E+00 0. -1.
         23    2    1    2    0    0  0.27684509042E+02  0.18276745044E+02  0.10382861250E+02  0.97816465542E+02  0.91431863555E+02 0.  0.
         23    2    1    2    0    0 -0.20872806508E+02  0.22355338445E+02 -0.31140320355E+02  0.10390909648E+03  0.94297113269E+02 0.  0.
        -11    1    4    4    0    0  0.12687845062E+02 -0.20917126190E+02  0.17967582678E+02  0.30353609467E+02  0.00000000000E+00 0.  1.
         11    1    4    4    0    0 -0.33560651570E+02  0.43272464635E+02 -0.49107903033E+02  0.73555487013E+02  0.00000000000E+00 0. -1.
        -11    1    3    3    0    0  0.46659073184E+02 -0.21056838219E+02  0.16353400528E+02  0.53739122202E+02  0.00000000000E+00 0.  1.
         11    1    3    3    0    0 -0.18974564142E+02  0.39333583263E+02 -0.59705392784E+01  0.44077343340E+02  0.00000000000E+00 0. -1.
          1    1    1    2  501    0 -0.68117025343E+01 -0.40632083489E+02 -0.59403367203E+02  0.72291946544E+02  0.00000000000E+00 0. -1.
<scales pt_clust_5="13000.00000" pt_clust_6="13000.00000" pt_clust_7="13000.00000" pt_clust_8="13000.00000" pt_clust_9="13000.00000"></scales>
<clustering>
<clus scale="   91.432">  7  8 -1 -1</clus>
<clus scale="   94.297">  5  6 -1 -1</clus>
<clus scale="   41.199">  5  9 -1 -1</clus>
<clus scale="   97.264">  2  7  1 -1</clus>
<clus scale="  151.158">  1  5  2 -1</clus>
</clustering>
</event>
<event>
 9    1  0.3312826E-006  0.4344690E+03  0.7546771E-02  0.1082066E+00
          1   -1    0    0  502    0 -0.00000000000E+00  0.00000000000E+00  0.20159226313E+03  0.20159226313E+03  0.00000000000E+00 0. -1.
         21   -1    0    0  501  502  0.00000000000E+00 -0.00000000000E+00 -0.36985660653E+03  0.36985660653E+03  0.00000000000E+00 0. -1.
         23    2    1    2    0    0  0.25304609632E+02  0.51618307546E+02 -0.60714748881E+01  0.10769267485E+03  0.90862954310E+02 0.  0.
         23    2    1    2    0    0 -0.59452438586E+02 -0.28422710529E+02  0.12795123990E+03  0.17069013811E+03  0.91766881439E+02 0.  0.
        -11    1    3    3    0    0 -0.19779824270E+02 -0.16320087108E+02  0.21992454839E+01  0.25737586757E+02  0.00000000000E+00 0. -1.
         11    1    3    3    0    0  0.45084433902E+02  0.67938394654E+02 -0.82707203721E+01  0.81955088091E+02  0.00000000000E+00 0.  1.
        -11    1    4    4    0    0 -0.68634286809E+02 -0.86161579803E+01  0.13148895492E+03  0.14857405147E+03  0.00000000000E+00 0. -1.
         11    1    4    4    0    0  0.91818482226E+01 -0.19806552548E+02 -0.35377150238E+01  0.22116086639E+02  0.00000000000E+00 0.  1.
          1    1    1    2  501    0  0.34147828954E+02 -0.23195597018E+02 -0.29014410841E+03  0.29306605670E+03  0.00000000000E+00 0. -1.
<scales pt_clust_5="13000.00000" pt_clust_6="13000.00000" pt_clust_7="13000.00000" pt_clust_8="13000.00000" pt_clust_9="13000.00000"></scales>
<clustering>
<clus scale="   90.863">  5  6 -1 -1</clus>
<clus scale="   91.767">  7  8 -1 -1</clus>
<clus scale="   41.281">  7  9 -1 -1</clus>
<clus scale="  107.521">  1  5  2 -1</clus>
<clus scale="  434.469">  2  5  1 -1</clus>
</clustering>
</event>
<event>
 9    1  0.3312826E-006  0.2200951E+03  0.7546771E-02  0.1151446E+00
         21   -1    0    0  501  502  0.00000000000E+00  0.00000000000E+00  0.89221432421E+02  0.89221432421E+02  0.00000000000E+00 0.  1.
         -4   -1    0    0    0  501 -0.00000000000E+00 -0.00000000000E+00 -0.40293167022E+03  0.40293167022E+03  0.00000000000E+00 0.  1.
         23    2    1    2    0    0  0.81409702645E+02 -0.61925688758E+02 -0.59562852961E+02  0.15594967589E+03  0.10153933890E+03 0.  0.
         23    2    1    2    0    0 -0.10012190543E+03  0.95999108557E+01 -0.24488029819E+03  0.27986505207E+03  0.90782887693E+02 0.  0.
        -11    1    4    4    0    0 -0.36708878458E+02  0.48024260612E+02 -0.94135517168E+02  0.11187210089E+03  0.00000000000E+00 0. -1.
         11    1    4    4    0    0 -0.63413026969E+02 -0.38424349756E+02 -0.15074478102E+03  0.16799295118E+03  0.00000000000E+00 0.  1.
        -11    1    3    3    0    0  0.10543510059E+03 -0.45940907774E+02 -0.43794063850E+02  0.12306521634E+03  0.00000000000E+00 0.  1.
         11    1    3    3    0    0 -0.24025397950E+02 -0.15984780984E+02 -0.15768789111E+02  0.32884459548E+02  0.00000000000E+00 0. -1.
         -4    1    1    2    0  502  0.18712202782E+02  0.52325777902E+02 -0.92670866476E+01  0.56338374674E+02  0.00000000000E+00 0.  1.
<scales pt_clust_5="13000.00000" pt_clust_6="13000.00000" pt_clust_7="13000.00000" pt_clust_8="13000.00000" pt_clust_9="13000.00000"></scales>
<clustering>
<clus scale="   90.783">  5  6 -1 -1</clus>
<clus scale="   55.571">  5  9 -1 -1</clus>
<clus scale="  101.539">  7  8 -1 -1</clus>
<clus scale="  144.127">  2  7  1 -1</clus>
<clus scale="  220.095">  1  5  2 -1</clus>
</clustering>
</event>
<event>
 9    1  0.3312826E-006  0.1836425E+03  0.7546771E-02  0.1177908E+00
          1   -1    0    0  502    0 -0.00000000000E+00  0.00000000000E+00  0.86935373491E+02  0.86935373491E+02  0.00000000000E+00 0. -1.
         21   -1    0    0  501  502  0.00000000000E+00 -0.00000000000E+00 -0.32837580760E+03  0.32837580760E+03  0.00000000000E+00 0.  1.
         23    2    1    2    0    0 -0.84304471522E+02 -0.44757708046E+02 -0.17320470879E+03  0.21940126845E+03  0.95008152808E+02 0.  0.
         23    2    1    2    0    0  0.11408853228E+01  0.24050038212E+02 -0.13352551622E+02  0.94139816772E+02  0.90023932983E+02 0.  0.
        -11    1    4    4    0    0 -0.24922672933E+02 -0.22455921075E+02  0.11306994686E+02  0.35401357972E+02  0.00000000000E+00 0.  1.
         11    1    4    4    0    0  0.26063558256E+02  0.46505959286E+02 -0.24659546307E+02  0.58738458800E+02  0.00000000000E+00 0. -1.
        -13    1    3    3    0    0 -0.31875951433E+02  0.29077014260E+02 -0.44017759663E+02  0.61636938631E+02  0.00000000000E+00 0. -1.
         13    1    3    3    0    0 -0.52428520088E+02 -0.73834722306E+02 -0.12918694913E+03  0.15776432982E+03  0.00000000000E+00 0.  1.
          1    1    1    2  501    0  0.83163586199E+02  0.20707669834E+02 -0.54883173696E+02  0.10177009587E+03  0.00000000000E+00 0. -1.
<scales pt_clust_5="13000.00000" pt_clust_6="13000.00000" pt_clust_7="13000.00000" pt_clust_8="13000.00000" pt_clust_9="13000.00000"></scales>
<clustering>
<clus scale="   90.024">  5  6 -1 -1</clus>
<clus scale="   85.703">  5  9 -1 -1</clus>
<clus scale="   95.008">  7  8 -1 -1</clus>
<clus scale="  134.674">  1  7  2 -1</clus>
<clus scale="  183.643">  2  5  1 -1</clus>
</clustering>
</event>
<event>
 9    1  0.3312826E-006  0.1931971E+03  0.7546771E-02  0.1174643E+00
         21   -1    0    0  501  502  0.00000000000E+00  0.00000000000E+00  0.35589717819E+02  0.35589717819E+02  0.00000000000E+00 0.  1.
          1   -1    0    0  502    0 -0.00000000000E+00 -0.00000000000E+00 -0.82675476983E+03  0.82675476983E+03  0.00000000000E+00 0. -1.
         23    2    1    2    0    0  0.66530591073E+02  0.53434348784E+02 -0.48159409442E+03  0.49743448319E+03  0.90700849507E+02 0.  0.
         23    2    1    2    0    0 -0.76607760048E+02  0.16446598145E+02 -0.19709662234E+03  0.23211176589E+03  0.94284430512E+02 0.  0.
        -11    1    3    3    0    0  0.55717941001E+02  0.78822890464E+02 -0.35686571474E+03  0.36968997196E+03  0.00000000000E+00 0.  1.
         11    1    3    3    0    0  0.10812650072E+02 -0.25388541680E+02 -0.12472837969E+03  0.12774451123E+03  0.00000000000E+00 0. -1.
        -13    1    4    4    0    0 -0.91149358619E+02 -0.33879962951E+01 -0.18110006719E+03  0.20277307126E+03  0.00000000000E+00 0. -1.
         13    1    4    4    0    0  0.14541598570E+02  0.19834594440E+02 -0.15996555156E+02  0.29338694628E+02  0.00000000000E+00 0.  1.
          1    1    1    2  501    0  0.10077168975E+02 -0.69880946929E+02 -0.11247433525E+03  0.13279823857E+03  0.00000000000E+00 0. -1.
<scales pt_clust_5="13000.00000" pt_clust_6="13000.00000" pt_clust_7="13000.00000" pt_clust_8="13000.00000" pt_clust_9="13000.00000"></scales>
<clustering>
<clus scale="   90.701">  5  6 -1 -1</clus>
<clus scale="   94.284">  7  8 -1 -1</clus>
<clus scale="   70.604">  7  9 -1 -1</clus>
<clus scale="  124.532">  2  5  1 -1</clus>
<clus scale="  193.197">  1  5  2 -1</clus>
</clustering>
</event>
<event>
 9    1  0.3312826E-006  0.2212931E+03  0.7546771E-02  0.1150248E+00
         -1   -1    0    0    0  501 -0.00000000000E+00  0.00000000000E+00  0.37579019119E+03  0.37579019119E+03  0.00000000000E+00 0.  1.
         21   -1    0    0  501  502  0.00000000000E+00 -0.00000000000E+00 -0.96494299953E+02  0.96494299953E+02  0.00000000000E+00 0. -1.
         23    2    1    2    0    0 -0.10426694670E+03  0.40025693558E+02  0.17447343575E+03  0.22742047231E+03  0.93837301362E+02 0.  0.
         23    2    1    2    0    0  0.39874836387E+02  0.15688000607E+02  0.12395665565E+03  0.15759158788E+03  0.87371277603E+02 0.  0.
        -13    1    3    3    0    0 -0.11018624961E+03  0.61221360051E+01  0.14421371274E+03  0.18159318570E+03  0.00000000000E+00 0. -1.
         13    1    3    3    0    0  0.59193029053E+01  0.33903557553E+02  0.30259723010E+02  0.45827286612E+02  0.00000000000E+00 0.  1.
        -13    1    4    4    0    0 -0.22127292765E+02  0.25366054934E+02  0.53820356827E+02  0.63479797078E+02  0.00000000000E+00 0. -1.
         13    1    4    4    0    0  0.62002129153E+02 -0.96780543270E+01  0.70136298821E+02  0.94111790799E+02  0.00000000000E+00 0.  1.
         -1    1    1    2    0  502  0.64392110317E+02 -0.55713694165E+02 -0.19134200157E+02  0.87272430952E+02  0.00000000000E+00 0.  1.
<scales pt_clust_5="13000.00000" pt_clust_6="13000.00000" pt_clust_7="13000.00000" pt_clust_8="13000.00000" pt_clust_9="13000.00000"></scales>
<clustering>
<clus scale="   87.371">  7  8 -1 -1</clus>
<clus scale="   85.149">  7  9 -1 -1</clus>
<clus scale="   93.837">  5  6 -1 -1</clus>
<clus scale="  145.874">  1  5  2 -1</clus>
<clus scale="  221.293">  2  5  1 -1</clus>
</clustering>
</event>
<event>
 9    1  0.3312826E-006  0.1767525E+03  0.7546771E-02  0.1181650E+00
         21   -1    0    0  501  502  0.00000000000E+00  0.00000000000E+00  0.32764216752E+02  0.32764216752E+02  0.00000000000E+00 0.  1.
          1   -1    0    0  502    0 -0.00000000000E+00 -0.00000000000E+00 -0.78925270450E+03  0.78925270450E+03  0.00000000000E+00 0. -1.
         23    2    1    2    0    0  0.80156796334E+02  0.67018139581E+02 -0.41303112490E+03  0.43574707252E+03  0.91456317678E+02 0.  0.
         23    2    1    2    0    0 -0.87019100495E+02 -0.47730303365E+02 -0.34004073877E+03  0.36551448402E+03  0.90125625063E+02 0.  0.
        -11    1    4    4    0    0 -0.82522158481E+02 -0.69276858128E+02 -0.31058448610E+03  0.32874292802E+03  0.00000000000E+00 0.  1.
         11    1    4    4    0    0 -0.44969420140E+01  0.21546554763E+02 -0.29456252670E+02  0.36771556004E+02  0.00000000000E+00 0. -1.
        -13    1    3    3    0    0 -0.76870106644E+01  0.39131161992E+02 -0.19501196516E+03  0.19904774434E+03  0.00000000000E+00 0.  1.
         13    1    3    3    0    0  0.87843806998E+02  0.27886977589E+02 -0.21801915973E+03  0.23669932817E+03  0.00000000000E+00 0. -1.
          1    1    1    2  501    0  0.68623041610E+01 -0.19287836217E+02 -0.34166240794E+01  0.20755364714E+02  0.00000000000E+00 0. -1.
<scales pt_clust_5="13000.00000" pt_clust_6="13000.00000" pt_clust_7="13000.00000" pt_clust_8="13000.00000" pt_clust_9="13000.00000"></scales>
<clustering>
<clus scale="   90.126">  5  6 -1 -1</clus>
<clus scale="   20.472">  5  9 -1 -1</clus>
<clus scale="   91.456">  7  8 -1 -1</clus>
<clus scale="  138.855">  2  7  1 -1</clus>
<clus scale="  176.752">  1  5  2 -1</clus>
</clustering>
</event>
<event>
 9    1  0.3312826E-006  0.1500257E+03  0.7546771E-02  0.1216733E+00
          1   -1    0    0  502    0 -0.00000000000E+00  0.00000000000E+00  0.56632029075E+02  0.56632029075E+02  0.00000000000E+00 0. -1.
         21   -1    0    0  501  502  0.00000000000E+00 -0.00000000000E+00 -0.34027285772E+03  0.34027285772E+03  0.00000000000E+00 0.  1.
         23    2    1    2    0    0 -0.54863487225E+02 -0.78278339258E+01 -0.45001962191E+02  0.11502509285E+03  0.90190454984E+02 0.  0.
         23    2    1    2    0    0  0.25122540560E+02 -0.17611562302E+02 -0.10583083439E+03  0.14342525205E+03  0.91811373194E+02 0.  0.
        -11    1    4    4    0    0 -0.18793315239E+02 -0.41112654070E+02 -0.36737463283E+02  0.58250152195E+02  0.00000000000E+00 0.  1.
         11    1    4    4    0    0  0.43915855798E+02  0.23501091768E+02 -0.69093371108E+02  0.85175099859E+02  0.00000000000E+00 0. -1.
        -11    1    3    3    0    0 -0.77954327295E+02 -0.15027553536E+02 -0.44111609029E+02  0.90821465307E+02  0.00000000000E+00 0.  1.
         11    1    3    3    0    0  0.23090840070E+02  0.71997196105E+01 -0.89035316156E+00  0.24203627546E+02  0.00000000000E+00 0. -1.
          1    1    1    2  501    0  0.29740946665E+02  0.25439396228E+02 -0.13280803206E+03  0.13845454188E+03  0.00000000000E+00 0. -1.
<scales pt_clust_5="13000.00000" pt_clust_6="13000.00000" pt_clust_7="13000.00000" pt_clust_8="13000.00000" pt_clust_9="13000.00000"></scales>
<clustering>
<clus scale="   90.190">  7  8 -1 -1</clus>
<clus scale="   91.811">  5  6 -1 -1</clus>
<clus scale="   39.137">  5  9 -1 -1</clus>
<clus scale="  105.856">  1  7  2 -1</clus>
<clus scale="  150.026">  2  5  1 -1</clus>
</clustering>
</event>
<event>
 9    1  0.3312826E-006  0.2523044E+03  0.7546771E-02  0.1144488E+00
          1   -1    0    0  502    0 -0.00000000000E+00  0.00000000000E+00  0.18589182104E+03  0.18589182104E+03  0.00000000000E+00 0. -1.
         21   -1    0    0  501  502  0.00000000000E+00 -0.00000000000E+00 -0.17942753675E+03  0.17942753675E+03  0.00000000000E+00 0. -1.
         23    2    1    2    0    0 -0.29576446402E+02  0.55858294887E+02 -0.12275764644E+01  0.11289775808E+03  0.93538663377E+02 0.  0.
         23    2    1    2    0    0  0.77250232313E+02  0.50533452390E+02  0.33757517971E+02  0.13295858351E+03  0.89538744165E+02 0.  0.
        -11    1    4    4    0    0  0.87022308769E+01  0.56941008054E+02  0.27494300842E+02  0.63827453335E+02  0.00000000000E+00 0. -1.
         11    1    4    4    0    0  0.68548001436E+02 -0.64075556647E+01  0.62632171294E+01  0.69131130175E+02  0.00000000000E+00 0.  1.
        -13    1    3    3    0    0 -0.48881544992E+02 -0.48812025471E+01 -0.18839564578E+01  0.49160765566E+02  0.00000000000E+00 0.  1.
         13    1    3    3    0    0  0.19305098591E+02  0.60739497434E+02  0.65637999340E+00  0.63736992515E+02  0.00000000000E+00 0. -1.
          1    1    1    2  501    0 -0.47673785911E+02 -0.10639174728E+03 -0.26065657220E+02  0.11946301619E+03  0.00000000000E+00 0. -1.
<scales pt_clust_5="13000.00000" pt_clust_6="13000.00000" pt_clust_7="13000.00000" pt_clust_8="13000.00000" pt_clust_9="13000.00000"></scales>
<clustering>
<clus scale="   89.539">  5  6 -1 -1</clus>
<clus scale="   93.539">  7  8 -1 -1</clus>
<clus scale="  112.891">  1  7  2 -1</clus>
<clus scale="  104.172">  5  9 -1 -1</clus>
<clus scale="  252.304">  2  5  1 -1</clus>
</clustering>
</event>
<event>
 9    1  0.3312826E-006  0.2630641E+03  0.7546771E-02  0.1145341E+00
         21   -1    0    0  501  502  0.00000000000E+00  0.00000000000E+00  0.62666247367E+02  0.62666247367E+02  0.00000000000E+00 0. -1.
          2   -1    0    0  502    0 -0.00000000000E+00 -0.00000000000E+00 -0.56476309760E+03  0.56476309760E+03  0.00000000000E+00 0. -1.
         23    2    1    2    0    0 -0.28146393031E+02  0.62464271519E+01 -0.22550572133E+03  0.24571562729E+03  0.93231442393E+02 0.  0.
         23    2    1    2    0    0  0.35492819121E+02 -0.56477690997E+02 -0.15436800107E+02  0.11567098935E+03  0.93230966908E+02 0.  0.
        -11    1    4    4    0    0  0.25990751405E+02 -0.87769542557E+01 -0.49291211926E+02  0.56410793805E+02  0.00000000000E+00 0.  1.
         11    1    4    4    0    0  0.95020677166E+01 -0.47700736742E+02  0.33854411820E+02  0.59260195547E+02  0.00000000000E+00 0. -1.
        -11    1    3    3    0    0 -0.11570594475E+02 -0.38762704457E+02 -0.15673082949E+03  0.16186716414E+03  0.00000000000E+00 0.  1.
         11    1    3    3    0    0 -0.16575798556E+02  0.45009131609E+02 -0.68774891837E+02  0.83848463153E+02  0.00000000000E+00 0. -1.
          2    1    1    2  501    0 -0.73464260900E+01  0.50231263845E+02 -0.26115432880E+03  0.26604272833E+03  0.00000000000E+00 0. -1.
<scales pt_clust_5="13000.00000" pt_clust_6="13000.00000" pt_clust_7="13000.00000" pt_clust_8="13000.00000" pt_clust_9="13000.00000"></scales>
<clustering>
<clus scale="   93.231">  5  6 -1 -1</clus>
<clus scale="   50.766">  5  9 -1 -1</clus>
<clus scale="   93.231">  7  8 -1 -1</clus>
<clus scale="   97.588">  2  7  1 -1</clus>
<clus scale="  263.064">  1  5  2 -1</clus>
</clustering>
</event>
<event>
 9    1  0.3312826E-006  0.2730018E+03  0.7546771E-02  0.1139020E+00
         21   -1    0    0  501  502  0.00000000000E+00  0.00000000000E+00  0.21426535784E+03  0.21426535784E+03  0.00000000000E+00 0. -1.
          1   -1    0    0  502    0 -0.00000000000E+00 -0.00000000000E+00 -0.17429415808E+03  0.17429415808E+03  0.00000000000E+00 0. -1.
         23    2    1    2    0    0 -0.14655894633E+02 -0.41514469314E+02  0.54210118583E+02  0.11518662351E+03  0.91602264544E+02 0.  0.
         23    2    1    2    0    0 -0.41850181043E+02  0.36513870543E+02 -0.11544728164E+03  0.15735101826E+03  0.91359551847E+02 0.  0.
        -11    1    3    3    0    0 -0.51991964704E+02 -0.23321348891E+02  0.17109312905E+02  0.59496035969E+02  0.00000000000E+00 0.  1.
         11    1    3    3    0    0  0.37336070071E+02 -0.18193120423E+02  0.37100805678E+02  0.55690587544E+02  0.00000000000E+00 0. -1.
        -13    1    4    4    0    0 -0.50742248035E+02  0.14902437720E+02 -0.12209337245E+03  0.13305506372E+03  0.00000000000E+00 0. -1.
         13    1    4    4    0    0  0.88920669918E+01  0.21611432823E+02  0.66460908064E+01  0.24295954541E+02  0.00000000000E+00 0.  1.
          1    1    1    2  501    0  0.56506075676E+02  0.50005987708E+01  0.10120836282E+03  0.11602187415E+03  0.00000000000E+00 0. -1.
<scales pt_clust_5="13000.00000" pt_clust_6="13000.00000" pt_clust_7="13000.00000" pt_clust_8="13000.00000" pt_clust_9="13000.00000"></scales>
<clustering>
<clus scale="   91.360">  7  8 -1 -1</clus>
<clus scale="   56.727">  7  9 -1 -1</clus>
<clus scale="   91.602">  5  6 -1 -1</clus>
<clus scale="  101.633">  2  5  1 -1</clus>
<clus scale="  273.002">  1  5  2 -1</clus>
</clustering>
</event>
<event>
 9    1  0.3312826E-006  0.6548323E+03  0.7546771E-02  0.1037798E+00
         21   -1    0    0  501  502  0.00000000000E+00  0.00000000000E+00  0.22488990895E+03  0.22488990895E+03  0.00000000000E+00 0.  1.
         -3   -1    0    0    0  501 -0.00000000000E+00 -0.00000000000E+00 -0.75614567171E+03  0.75614567171E+03  0.00000000000E+00 0.  1.
         23    2    1    2    0    0 -0.63131239358E+02  0.13132679430E+02 -0.24193050491E+03  0.26513447322E+03  0.87223271139E+02 0.  0.
         23    2    1    2    0    0  0.35662918832E+02  0.23211660385E+03 -0.37752053933E+03  0.45383217137E+03  0.91059983494E+02 0.  0.
        -11    1    4    4    0    0 -0.19604592973E+02  0.14663171937E+03 -0.19399048785E+03  0.24396210888E+03  0.00000000000E+00 0.  1.
         11    1    4    4    0    0  0.55267511806E+02  0.85484884476E+02 -0.18353005148E+03  0.20987006249E+03  0.00000000000E+00 0. -1.
        -13    1    3    3    0    0 -0.56767793673E+02 -0.74200274443E+01 -0.23596018842E+03  0.24280619787E+03  0.00000000000E+00 0.  1.
         13    1    3    3    0    0 -0.63634456857E+01  0.20552706874E+02 -0.59703164938E+01  0.22328275345E+02  0.00000000000E+00 0. -1.
         -3    1    1    2    0  502  0.27468320526E+02 -0.24524928328E+03  0.88195281481E+02  0.26206893607E+03  0.00000000000E+00 0.  1.
<scales pt_clust_5="13000.00000" pt_clust_6="13000.00000" pt_clust_7="13000.00000" pt_clust_8="13000.00000" pt_clust_9="13000.00000"></scales>
<clustering>
<clus scale="   87.223">  7  8 -1 -1</clus>
<clus scale="   91.060">  5  6 -1 -1</clus>
<clus scale="  108.471">  2  7  1 -1</clus>
<clus scale="  243.541">  5  9 -1 -1</clus>
<clus scale="  654.832">  1  5  2 -1</clus>
</clustering>
</event>
<event>
 9    1  0.4193611E-006  0.3973638E+03  0.7546771E-02  0.1075498E+00
          4   -1    0    0  502    0 -0.00000000000E+00  0.00000000000E+00  0.17127688394E+03  0.17127688394E+03  0.00000000000E+00 0. -1.
         21   -1    0    0  501  502  0.00000000000E+00 -0.00000000000E+00 -0.52451727201E+03  0.52451727201E+03  0.00000000000E+00 0. -1.
         23    2    1    2    0    0  0.11786744924E+03  0.76959829601E+02 -0.21998441552E+03  0.27668187134E+03  0.91346395069E+02 0.  0.
         23    2    1    2    0    0  0.56402261963E+02 -0.60589414508E+02  0.74655864171E+02  0.14733065428E+03  0.96335514384E+02 0.  0.
        -13    1    4    4    0    0 -0.25514725656E+02 -0.14915022650E+02  0.34163540180E+02  0.45173073878E+02  0.00000000000E+00 0.  1.
         13    1    4    4    0    0  0.81916987620E+02 -0.45674391857E+02  0.40492323991E+02  0.10215758041E+03  0.00000000000E+00 0. -1.
        -13    1    3    3    0    0  0.14834745056E+02  0.31826857069E+02 -0.12379280436E+03  0.12867663697E+03  0.00000000000E+00 0.  1.
         13    1    3    3    0    0  0.10303270419E+03  0.45132972531E+02 -0.96191611164E+02  0.14800523437E+03  0.00000000000E+00 0. -1.
          4    1    1    2  501    0 -0.17426971121E+03 -0.16370415093E+02 -0.20791183671E+03  0.27178163032E+03  0.00000000000E+00 0. -1.
<scales pt_clust_5="13000.00000" pt_clust_6="13000.00000" pt_clust_7="13000.00000" pt_clust_8="13000.00000" pt_clust_9="13000.00000"></scales>
<clustering>
<clus scale="   91.346">  7  8 -1 -1</clus>
<clus scale="   96.336">  5  6 -1 -1</clus>
<clus scale="  167.809">  1  7  2 -1</clus>
<clus scale="  147.937">  5  9 -1 -1</clus>
<clus scale="  397.364">  2  5  1 -1</clus>
</clustering>
</event>
<event>
 9    1  0.3312826E-006  0.1507019E+03  0.7546771E-02  0.1220403E+00
         -1   -1    0    0    0  501 -0.00000000000E+00  0.00000000000E+00  0.10695994265E+03  0.10695994265E+03  0.00000000000E+00 0.  1.
         21   -1    0    0  501  502  0.00000000000E+00 -0.00000000000E+00 -0.15532851037E+03  0.15532851037E+03  0.00000000000E+00 0. -1.
         23    2    1    2    0    0 -0.27386728634E+02  0.10335195976E+02  0.16759931207E+02  0.98115405469E+02  0.92135163294E+02 0.  0.
         23    2    1    2    0    0  0.72109053464E+01 -0.26367262049E+02 -0.10935811482E+02  0.10416522839E+03  0.99917832087E+02 0.  0.
        -13    1    4    4    0    0 -0.17023265284E+02  0.23364998968E+02  0.24980333051E+02  0.38206436330E+02  0.00000000000E+00 0.  1.
         13    1    4    4    0    0  0.24234170630E+02 -0.49732261017E+02 -0.35916144533E+02  0.65958792061E+02  0.00000000000E+00 0. -1.
        -13    1    3    3    0    0 -0.23814140334E+02  0.48220483573E+02 -0.54482800548E+01  0.54055638664E+02  0.00000000000E+00 0.  1.
         13    1    3    3    0    0 -0.35725883005E+01 -0.37885287597E+02  0.22208211261E+02  0.44059766805E+02  0.00000000000E+00 0. -1.
         -1    1    1    2    0  502  0.20175823288E+02  0.16032066072E+02 -0.54192687443E+02  0.60007819158E+02  0.00000000000E+00 0.  1.
<scales pt_clust_5="13000.00000" pt_clust_6="13000.00000" pt_clust_7="13000.00000" pt_clust_8="13000.00000" pt_clust_9="13000.00000"></scales>
<clustering>
<clus scale="   92.135">  7  8 -1 -1</clus>
<clus scale="   96.673">  1  7  2 -1</clus>
<clus scale="   99.918">  5  6 -1 -1</clus>
<clus scale="   24.932">  5  9 -1 -1</clus>
<clus scale="  150.702">  2  5  1 -1</clus>
</clustering>
</event>
<event>
 9    1  0.3312826E-006  0.2217267E+03  0.7546771E-02  0.1169634E+00
         21   -1    0    0  501  502  0.00000000000E+00  0.00000000000E+00  0.47795996166E+03  0.47795996166E+03  0.00000000000E+00 0.  1.
         -1   -1    0    0    0  501 -0.00000000000E+00 -0.00000000000E+00 -0.51860715193E+02  0.51860715193E+02  0.00000000000E+00 0.  1.
         23    2    1    2    0    0  0.87316131119E+01  0.22265464622E+02  0.14305162567E+03  0.17026724968E+03  0.89191797406E+02 0.  0.
         23    2    1    2    0    0 -0.50612598756E+02 -0.91225428931E+02  0.16013482044E+03  0.21252604834E+03  0.92954001890E+02 0.  0.
        -11    1    4    4    0    0 -0.19982707728E+01 -0.50229022443E+02  0.13515900765E+03  0.14420438666E+03  0.00000000000E+00 0. -1.
         11    1    4    4    0    0 -0.48614327983E+02 -0.40996406488E+02  0.24975812789E+02  0.68321661679E+02  0.00000000000E+00 0.  1.
        -13    1    3    3    0    0  0.70208436240E+01 -0.33979711175E+02  0.40837407872E+02  0.53587376297E+02  0.00000000000E+00 0. -1.
         13    1    3    3    0    0  0.17107694879E+01  0.56245175796E+02  0.10221421780E+03  0.11667987339E+03  0.00000000000E+00 0.  1.
         -1    1    1    2    0  502  0.41880985644E+02  0.68959964309E+02  0.12291280035E+03  0.14702737883E+03  0.00000000000E+00 0.  1.
<scales pt_clust_5="13000.00000" pt_clust_6="13000.00000" pt_clust_7="13000.00000" pt_clust_8="13000.00000" pt_clust_9="13000.00000"></scales>
<clustering>
<clus scale="   89.192">  7  8 -1 -1</clus>
<clus scale="   92.343">  2  7  1 -1</clus>
<clus scale="   92.954">  5  6 -1 -1</clus>
<clus scale="   88.118">  5  9 -1 -1</clus>
<clus scale="  221.727">  1  5  2 -1</clus>
</clustering>
</event>
<event>
 9    1  0.3312826E-006  0.2655300E+03  0.7546771E-02  0.1143374E+00
         21   -1    0    0  501  502  0.00000000000E+00  0.00000000000E+00  0.31398480800E+03  0.31398480800E+03  0.00000000000E+00 0.  1.
         -1   -1    0    0    0  501 -0.00000000000E+00 -0.00000000000E+00 -0.11102261197E+03  0.11102261197E+03  0.00000000000E+00 0.  1.
         23    2    1    2    0    0 -0.38587588137E+02 -0.58819885318E+01  0.17188057408E+02  0.10094224468E+03  0.91489385707E+02 0.  0.
         23    2    1    2    0    0 -0.60915690872E+02  0.30829950233E+02  0.14583425530E+02  0.12449172120E+03  0.10307426993E+03 0.  0.
        -11    1    4    4    0    0 -0.55213792601E+02  0.61217890110E+02  0.32664681217E+02  0.88674541792E+02  0.00000000000E+00 0.  1.
         11    1    4    4    0    0 -0.57018982702E+01 -0.30387939876E+02 -0.18081255687E+02  0.35817179412E+02  0.00000000000E+00 0. -1.
        -11    1    3    3    0    0 -0.54874231443E+02 -0.27021558062E+02 -0.10975855769E+02  0.62143505586E+02  0.00000000000E+00 0.  1.
         11    1    3    3    0    0  0.16286643307E+02  0.21139569530E+02  0.28163913177E+02  0.38798739098E+02  0.00000000000E+00 0. -1.
         -1    1    1    2    0  502  0.99503279008E+02 -0.24947961702E+02  0.17119071309E+03  0.19957345409E+03  0.00000000000E+00 0.  1.
<scales pt_clust_5="13000.00000" pt_clust_6="13000.00000" pt_clust_7="13000.00000" pt_clust_8="13000.00000" pt_clust_9="13000.00000"></scales>
<clustering>
<clus scale="   91.489">  7  8 -1 -1</clus>
<clus scale="   99.468">  2  7  1 -1</clus>
<clus scale="  103.074">  5  6 -1 -1</clus>
<clus scale="   95.245">  5  9 -1 -1</clus>
<clus scale="  265.530">  1  5  2 -1</clus>
</clustering>
</event>
<event>
 9    1  0.3312826E-006  0.4012784E+03  0.7546771E-02  0.1067980E+00
         21   -1    0    0  501  502  0.00000000000E+00  0.00000000000E+00  0.54775410908E+02  0.54775410908E+02  0.00000000000E+00 0. -1.
          1   -1    0    0  502    0 -0.00000000000E+00 -0.00000000000E+00 -0.16633707479E+04  0.16633707479E+04  0.00000000000E+00 0. -1.
         23    2    1    2    0    0 -0.28287067360E+02  0.17591134199E+03 -0.60719259708E+03  0.63933580072E+03  0.91227505263E+02 0.  0.
         23    2    1    2    0    0 -0.12510313450E+03 -0.17827983282E+03 -0.72697253947E+03  0.76441236400E+03  0.91666220798E+02 0.  0.
        -11    1    4    4    0    0 -0.34309932353E+01 -0.43145970334E+02 -0.25453280398E+03  0.25818655033E+03  0.00000000000E+00 0.  1.
         11    1    4    4    0    0 -0.12167214126E+03 -0.13513386249E+03 -0.47243973549E+03  0.50622581367E+03  0.00000000000E+00 0. -1.
        -13    1    3    3    0    0  0.27431865170E+02  0.11149382534E+03 -0.33519731924E+03  0.35431712228E+03  0.00000000000E+00 0.  1.
         13    1    3    3    0    0 -0.55718932530E+02  0.64417516653E+02 -0.27199527784E+03  0.28501867844E+03  0.00000000000E+00 0. -1.
          1    1    1    2  501    0  0.15339020186E+03  0.23684908270E+01 -0.27443020048E+03  0.31439799412E+03  0.00000000000E+00 0. -1.
<scales pt_clust_5="13000.00000" pt_clust_6="13000.00000" pt_clust_7="13000.00000" pt_clust_8="13000.00000" pt_clust_9="13000.00000"></scales>
<clustering>
<clus scale="   91.228">  7  8 -1 -1</clus>
<clus scale="   91.666">  5  6 -1 -1</clus>
<clus scale="  153.409">  5  9 -1 -1</clus>
<clus scale="  200.168">  2  7  1 -1</clus>
<clus scale="  401.278">  1  5  2 -1</clus>
</clustering>
</event>
<event>
 9    1  0.3312826E-006  0.3079356E+03  0.7546771E-02  0.1117818E+00
          3   -1    0    0  502    0 -0.00000000000E+00  0.00000000000E+00  0.41015349040E+03  0.41015349040E+03  0.00000000000E+00 0. -1.
         21   -1    0    0  501  502  0.00000000000E+00 -0.00000000000E+00 -0.11669579178E+03  0.11669579178E+03  0.00000000000E+00 0.  1.
         23    2    1    2    0    0 -0.27936367378E+02 -0.71997953649E+02  0.13608134272E+03  0.18102902194E+03  0.91045203039E+02 0.  0.
         23    2    1    2    0    0  0.71550797262E+02 -0.45160703049E+02 -0.12310590989E+02  0.13505491851E+03  0.10454317134E+03 0.  0.
        -13    1    4    4    0    0  0.23134200921E+02 -0.74124536193E+02 -0.12409755461E+02  0.78636124960E+02  0.00000000000E+00 0.  1.
         13    1    4    4    0    0  0.48416596341E+02  0.28963833144E+02  0.99164472518E-01  0.56418793546E+02  0.00000000000E+00 0. -1.
        -13    1    3    3    0    0  0.23984271736E+02 -0.56854234822E+02  0.94260600862E+02  0.11266192872E+03  0.00000000000E+00 0.  1.
         13    1    3    3    0    0 -0.51920639114E+02 -0.15143718827E+02  0.41820741856E+02  0.68367093220E+02  0.00000000000E+00 0. -1.
          3    1    1    2  501    0 -0.43614429883E+02  0.11715865670E+03  0.16968694688E+03  0.21076534173E+03  0.00000000000E+00 0. -1.
<scales pt_clust_5="13000.00000" pt_clust_6="13000.00000" pt_clust_7="13000.00000" pt_clust_8="13000.00000" pt_clust_9="13000.00000"></scales>
<clustering>
<clus scale="   91.045">  7  8 -1 -1</clus>
<clus scale="  104.543">  5  6 -1 -1</clus>
<clus scale="  119.387">  1  7  2 -1</clus>
<clus scale="   90.139">  5  9 -1 -1</clus>
<clus scale="  307.936">  2  5  1 -1</clus>
</clustering>
</event>
<event>
 9    1  0.3312826E-006  0.3788877E+03  0.7546771E-02  0.1064661E+00
          2   -1    0    0  502    0 -0.00000000000E+00  0.00000000000E+00  0.90588310313E+03  0.90588310313E+03  0.00000000000E+00 0. -1.
         21   -1    0    0  501  502  0.00000000000E+00 -0.00000000000E+00 -0.11484593667E+03  0.11484593667E+03  0.00000000000E+00 0.  1.
         23    2    1    2    0    0  0.21628128479E+03 -0.11479232505E+03  0.38941384347E+03  0.46859027999E+03  0.89324335855E+02 0.  0.
         23    2    1    2    0    0 -0.40483144731E+02 -0.59236175737E+02  0.87989989346E+02  0.15269317765E+03  0.10210366669E+03 0.  0.
        -11    1    4    4    0    0 -0.97661916871E+01 -0.60967560259E+02  0.10172760218E+03  0.11899969307E+03  0.00000000000E+00 0. -1.
         11    1    4    4    0    0 -0.30716953044E+02  0.17313845222E+01 -0.13737612837E+02  0.33693484580E+02  0.00000000000E+00 0.  1.
        -13    1    3    3    0    0  0.53219107732E+02 -0.74744130845E+02  0.11863896984E+03  0.14998054437E+03  0.00000000000E+00 0. -1.
         13    1    3    3    0    0  0.16306217706E+03 -0.40048194200E+02  0.27077487363E+03  0.31860973563E+03  0.00000000000E+00 0.  1.
          2    1    1    2  501    0 -0.17579814006E+03  0.17402850078E+03  0.31363333365E+03  0.39944558216E+03  0.00000000000E+00 0. -1.
<scales pt_clust_5="13000.00000" pt_clust_6="13000.00000" pt_clust_7="13000.00000" pt_clust_8="13000.00000" pt_clust_9="13000.00000"></scales>
<clustering>
<clus scale="   89.324">  7  8 -1 -1</clus>
<clus scale="  102.104">  5  6 -1 -1</clus>
<clus scale="  247.368">  5  9 -1 -1</clus>
<clus scale="  260.641">  1  7  2 -1</clus>
<clus scale="  378.888">  2  5  1 -1</clus>
</clustering>
</event>
<event>
 9    1  0.3312826E-006  0.2537721E+03  0.7546771E-02  0.1136106E+00
          2   -1    0    0  502    0 -0.00000000000E+00  0.00000000000E+00  0.65534684777E+03  0.65534684777E+03  0.00000000000E+00 0. -1.
         21   -1    0    0  501  502  0.00000000000E+00 -0.00000000000E+00 -0.12609590611E+03  0.12609590611E+03  0.00000000000E+00 0.  1.
         23    2    1    2    0    0 -0.95412238951E+02  0.25984635772E+02  0.50907092310E+03  0.52686957960E+03  0.93057253995E+02 0.  0.
         23    2    1    2    0    0  0.63161096623E+02 -0.97041701527E+02 -0.42717038755E+02  0.15434701704E+03  0.92692180408E+02 0.  0.
        -11    1    4    4    0    0  0.47035623280E+02 -0.35468327578E+02  0.22646461987E+02  0.63112711549E+02  0.00000000000E+00 0. -1.
         11    1    4    4    0    0  0.16125473343E+02 -0.61573373948E+02 -0.65363500742E+02  0.91234305495E+02  0.00000000000E+00 0.  1.
        -13    1    3    3    0    0 -0.11114228513E+03  0.87992095560E+01  0.44290435878E+03  0.45672125488E+03  0.00000000000E+00 0.  1.
         13    1    3    3    0    0  0.15730046174E+02  0.17185426216E+02  0.66166564315E+02  0.70148324714E+02  0.00000000000E+00 0. -1.
          2    1    1    2  501    0  0.32251142328E+02  0.71057065754E+02  0.62897057321E+02  0.10022615724E+03  0.00000000000E+00 0. -1.
<scales pt_clust_5="13000.00000" pt_clust_6="13000.00000" pt_clust_7="13000.00000" pt_clust_8="13000.00000" pt_clust_9="13000.00000"></scales>
<clustering>
<clus scale="   92.692">  5  6 -1 -1</clus>
<clus scale="   78.034">  5  9 -1 -1</clus>
<clus scale="   93.057">  7  8 -1 -1</clus>
<clus scale="  135.788">  1  7  2 -1</clus>
<clus scale="  253.772">  2  5  1 -1</clus>
</clustering>
</event>
<event>
 9    1  0.3312826E-006  0.2459137E+03  0.7546771E-02  0.1148817E+00
          1   -1    0    0  502    0 -0.00000000000E+00  0.00000000000E+00  0.42168210594E+03  0.42168210594E+03  0.00000000000E+00 0. -1.
         21   -1    0    0  501  502  0.00000000000E+00 -0.00000000000E+00 -0.75093798583E+02  0.75093798583E+02  0.00000000000E+00 0. -1.
         23    2    1    2    0    0 -0.60842009794E+01  0.61123939742E+02  0.10918390145E+03  0.15496544252E+03  0.91214091727E+02 0.  0.
         23    2    1    2    0    0  0.21421219733E+02  0.68073841861E+02  0.12659856846E+03  0.17091510066E+03  0.89954752496E+02 0.  0.
        -11    1    4    4    0    0 -0.93265125807E+01  0.80607819416E+02  0.82561621803E+02  0.11576279965E+03  0.00000000000E+00 0. -1.
         11    1    4    4    0    0  0.30747732314E+02 -0.12533977555E+02  0.44036946659E+02  0.55152301011E+02  0.00000000000E+00 0.  1.
        -11    1    3    3    0    0  0.36879075640E+02  0.11171461732E+02  0.65234318075E+02  0.75765322093E+02  0.00000000000E+00 0. -1.
         11    1    3    3    0    0 -0.42963276619E+02  0.49952478010E+02  0.43949583372E+02  0.79200120427E+02  0.00000000000E+00 0.  1.
          1    1    1    2  501    0 -0.15337018754E+02 -0.12919778160E+03  0.11080583745E+03  0.17089536134E+03  0.00000000000E+00 0. -1.
<scales pt_clust_5="13000.00000" pt_clust_6="13000.00000" pt_clust_7="13000.00000" pt_clust_8="13000.00000" pt_clust_9="13000.00000"></scales>
<clustering>
<clus scale="   89.955">  5  6 -1 -1</clus>
<clus scale="   91.214">  7  8 -1 -1</clus>
<clus scale="  109.969">  1  7  2 -1</clus>
<clus scale="  101.139">  5  9 -1 -1</clus>
<clus scale="  245.914">  2  5  1 -1</clus>
</clustering>
</event>
<event>
 9    1  0.3312826E-006  0.3001221E+03  0.7546771E-02  0.1113589E+00
         -2   -1    0    0    0  501 -0.00000000000E+00  0.00000000000E+00  0.39441966091E+03  0.39441966091E+03  0.00000000000E+00 0.  1.
         21   -1    0    0  501  502  0.00000000000E+00 -0.00000000000E+00 -0.18162232904E+03  0.18162232904E+03  0.00000000000E+00 0.  1.
         23    2    1    2    0    0 -0.73408131433E+02  0.86118519668E+02 -0.73560056515E+02  0.16122414265E+03  0.88187238701E+02 0.  0.
         23    2    1    2    0    0 -0.53484001736E+01 -0.78629446272E+02  0.31003117311E+03  0.33223985038E+03  0.89737365004E+02 0.  0.
        -13    1    3    3    0    0 -0.97515173207E-01  0.67305616384E+02 -0.41168607328E+02  0.78898097159E+02  0.00000000000E+00 0.  1.
         13    1    3    3    0    0 -0.73310616260E+02  0.18812903285E+02 -0.32391449187E+02  0.82326045495E+02  0.00000000000E+00 0. -1.
        -13    1    4    4    0    0  0.20629045501E+02  0.37156550632E+01  0.17735460442E+02  0.27457424641E+02  0.00000000000E+00 0. -1.
         13    1    4    4    0    0 -0.25977445675E+02 -0.82345101335E+02  0.29229571266E+03  0.30478242574E+03  0.00000000000E+00 0.  1.
         -2    1    1    2    0  502  0.78756531607E+02 -0.74890733965E+01 -0.23673784726E+02  0.82577996914E+02  0.00000000000E+00 0.  1.
<scales pt_clust_5="13000.00000" pt_clust_6="13000.00000" pt_clust_7="13000.00000" pt_clust_8="13000.00000" pt_clust_9="13000.00000"></scales>
<clustering>
<clus scale="   88.187">  5  6 -1 -1</clus>
<clus scale="   89.737">  7  8 -1 -1</clus>
<clus scale="   79.112">  7  9 -1 -1</clus>
<clus scale="  143.465">  1  5  2 -1</clus>
<clus scale="  300.122">  2  5  1 -1</clus>
</clustering>
</event>
<event>
 9    1  0.3312826E-006  0.2620147E+03  0.7546771E-02  0.1113812E+00
         21   -1    0    0  501  502  0.00000000000E+00  0.00000000000E+00  0.22095384814E+03  0.22095384814E+03  0.00000000000E+00 0. -1.
          2   -1    0    0  502    0 -0.00000000000E+00 -0.00000000000E+00 -0.27378057961E+03  0.27378057961E+03  0.00000000000E+00 0. -1.
         23    2    1    2    0    0 -0.19228319103E+02 -0.19302575324E+03  0.37383027753E+02  0.21762525972E+03  0.91293993428E+02 0.  0.
         23    2    1    2    0    0  0.73186635108E+01  0.75402807655E+02 -0.10223650465E+03  0.15827466197E+03  0.94124489377E+02 0.  0.
        -11    1    4    4    0    0 -0.13929458431E+02  0.89734942662E+02 -0.59904887454E+02  0.10878871857E+03  0.00000000000E+00 0. -1.
         11    1    4    4    0    0  0.21248121942E+02 -0.14332135007E+02 -0.42331617197E+02  0.49485943402E+02  0.00000000000E+00 0.  1.
        -11    1    3    3    0    0 -0.54703971227E+02 -0.92126864130E+02  0.13026399193E+02  0.10793317673E+03  0.00000000000E+00 0.  1.
         11    1    3    3    0    0  0.35475652123E+02 -0.10089888911E+03  0.24356628560E+02  0.10969208300E+03  0.00000000000E+00 0. -1.
          2    1    1    2  501    0  0.11909655592E+02  0.11762294559E+03  0.12026745435E+02  0.11883450606E+03  0.00000000000E+00 0. -1.
<scales pt_clust_5="13000.00000" pt_clust_6="13000.00000" pt_clust_7="13000.00000" pt_clust_8="13000.00000" pt_clust_9="13000.00000"></scales>
<clustering>
<clus scale="   91.294">  7  8 -1 -1</clus>
<clus scale="   94.124">  5  6 -1 -1</clus>
<clus scale="  118.224">  5  9 -1 -1</clus>
<clus scale="  214.391">  2  7  1 -1</clus>
<clus scale="  262.015">  1  5  2 -1</clus>
</clustering>
</event>
<event>
 9    1  0.3312826E-006  0.1867446E+03  0.7546771E-02  0.1192324E+00
         -1   -1    0    0    0  501 -0.00000000000E+00  0.00000000000E+00  0.54673754377E+03  0.54673754377E+03  0.00000000000E+00 0.  1.
         21   -1    0    0  501  502  0.00000000000E+00 -0.00000000000E+00 -0.36116339428E+02  0.36116339428E+02  0.00000000000E+00 0. -1.
         23    2    1    2    0    0  0.43759825075E+01 -0.77247068835E+01  0.14300994906E+03  0.17052928654E+03  0.92463894132E+02 0.  0.
         23    2    1    2    0    0 -0.66510151155E+02 -0.27629806618E+02  0.22645759430E+03  0.25410022260E+03  0.89982635478E+02 0.  0.
        -13    1    4    4    0    0 -0.18953041132E+02 -0.46697470157E+02  0.52586657184E+02  0.72836996101E+02  0.00000000000E+00 0. -1.
         13    1    4    4    0    0 -0.47557110023E+02  0.19067663538E+02  0.17387093712E+03  0.18126322650E+03  0.00000000000E+00 0.  1.
        -13    1    3    3    0    0  0.41351608588E+01  0.37380914069E+02  0.10503777027E+03  0.11156776181E+03  0.00000000000E+00 0.  1.
         13    1    3    3    0    0  0.24082164866E+00 -0.45105620952E+02  0.37972178796E+02  0.58961524735E+02  0.00000000000E+00 0. -1.
         -1    1    1    2    0  502  0.62134168648E+02  0.35354513502E+02  0.14115366098E+03  0.15822437406E+03  0.00000000000E+00 0.  1.
<scales pt_clust_5="13000.00000" pt_clust_6="13000.00000" pt_clust_7="13000.00000" pt_clust_8="13000.00000" pt_clust_9="13000.00000"></scales>
<clustering>
<clus scale="   89.983">  5  6 -1 -1</clus>
<clus scale="   71.488">  5  9 -1 -1</clus>
<clus scale="   92.464">  7  8 -1 -1</clus>
<clus scale="   92.889">  1  7  2 -1</clus>
<clus scale="  186.745">  2  5  1 -1</clus>
</clustering>
</event>
<event>
 9    1  0.3312826E-006  0.4376065E+03  0.7546771E-02  0.1074160E+00
          3   -1    0    0  502    0 -0.00000000000E+00  0.00000000000E+00  0.67922857813E+03  0.67922857813E+03  0.00000000000E+00 0. -1.
         21   -1    0    0  501  502  0.00000000000E+00 -0.00000000000E+00 -0.33056500456E+03  0.33056500456E+03  0.00000000000E+00 0. -1.
         23    2    1    2    0    0 -0.91543454330E+02 -0.22437969617E+02  0.52281520944E+03  0.53880708503E+03  0.89964799468E+02 0.  0.
         23    2    1    2    0    0  0.97083796880E+02  0.14978536269E+03  0.56140701641E+02  0.20777058888E+03  0.90310136381E+02 0.  0.
        -13    1    4    4    0    0  0.96788994886E+02  0.88088996005E+02  0.11022638987E+02  0.13133651175E+03  0.00000000000E+00 0. -1.
         13    1    4    4    0    0  0.29480199350E+00  0.61696366681E+02  0.45118062655E+02  0.76434077136E+02  0.00000000000E+00 0.  1.
        -13    1    3    3    0    0 -0.90251963506E+02 -0.46249762262E+02  0.47061732282E+03  0.48141990192E+03  0.00000000000E+00 0. -1.
         13    1    3    3    0    0 -0.12914908242E+01  0.23811792644E+02  0.52197886613E+02  0.57387183102E+02  0.00000000000E+00 0.  1.
          3    1    1    2  501    0 -0.55403425497E+01 -0.12734739307E+03 -0.23029233751E+03  0.26321590878E+03  0.00000000000E+00 0. -1.
<scales pt_clust_5="13000.00000" pt_clust_6="13000.00000" pt_clust_7="13000.00000" pt_clust_8="13000.00000" pt_clust_9="13000.00000"></scales>
<clustering>
<clus scale="   89.965">  7  8 -1 -1</clus>
<clus scale="   90.310">  5  6 -1 -1</clus>
<clus scale="  127.468">  5  9 -1 -1</clus>
<clus scale="  130.297">  1  7  2 -1</clus>
<clus scale="  437.607">  2  5  1 -1</clus>
</clustering>
</event>
<event>
 9    1  0.3312826E-006  0.1649532E+03  0.7546771E-02  0.1197466E+00
          1   -1    0    0  502    0 -0.00000000000E+00  0.00000000000E+00  0.55701244392E+03  0.55701244392E+03  0.00000000000E+00 0. -1.
         21   -1    0    0  501  502  0.00000000000E+00 -0.00000000000E+00 -0.38710346263E+02  0.38710346263E+02  0.00000000000E+00 0. -1.
         23    2    1    2    0    0 -0.47749396379E+01 -0.77928117291E+02  0.29050418093E+03  0.31447301267E+03  0.91678814614E+02 0.  0.
         23    2    1    2    0    0  0.32189650241E+02  0.86755242167E+02  0.21073698645E+03  0.24777501339E+03  0.91759109493E+02 0.  0.
        -11    1    4    4    0    0  0.61494327694E+02  0.66112351229E+02  0.11969788878E+03  0.14993325149E+03  0.00000000000E+00 0. -1.
         11    1    4    4    0    0 -0.29304677453E+02  0.20642890938E+02  0.91039097668E+02  0.97841761897E+02  0.00000000000E+00 0.  1.
        -13    1    3    3    0    0 -0.25001978278E+02 -0.17141815798E+02  0.19603366514E+02  0.36100315031E+02  0.00000000000E+00 0.  1.
         13    1    3    3    0    0  0.20227038640E+02 -0.60786301492E+02  0.27090081441E+03  0.27837269764E+03  0.00000000000E+00 0. -1.
          1    1    1    2  501    0 -0.27414710603E+02 -0.88271248763E+01  0.17060930274E+02  0.33474764119E+02  0.00000000000E+00 0. -1.
<scales pt_clust_5="13000.00000" pt_clust_6="13000.00000" pt_clust_7="13000.00000" pt_clust_8="13000.00000" pt_clust_9="13000.00000"></scales>
<clustering>
<clus scale="   91.679">  7  8 -1 -1</clus>
<clus scale="   91.759">  5  6 -1 -1</clus>
<clus scale="   28.801">  5  9 -1 -1</clus>
<clus scale="  120.418">  1  7  2 -1</clus>
<clus scale="  164.953">  2  5  1 -1</clus>
</clustering>
</event>
<event>
 9    1  0.3312826E-006  0.1704627E+03  0.7546771E-02  0.1200481E+00
         -1   -1    0    0    0  501 -0.00000000000E+00  0.00000000000E+00  0.17638458921E+03  0.17638458921E+03  0.00000000000E+00 0.  1.
         21   -1    0    0  501  502  0.00000000000E+00 -0.00000000000E+00 -0.12405350749E+03  0.12405350749E+03  0.00000000000E+00 0. -1.
         23    2    1    2    0    0 -0.91528299024E+01  0.43982108489E+02  0.77332916374E+02  0.12815166373E+03  0.91783815568E+02 0.  0.
         23    2    1    2    0    0  0.11609604282E+02 -0.69034871396E+02  0.21411361031E+02  0.11948623029E+03  0.94434720669E+02 0.  0.
        -11    1    4    4    0    0 -0.30562699340E+02 -0.87932660367E+01  0.32089479015E+02  0.45178919664E+02  0.00000000000E+00 0.  1.
         11    1    4    4    0    0  0.42172303622E+02 -0.60241605359E+02 -0.10678117984E+02  0.74307310628E+02  0.00000000000E+00 0. -1.
        -13    1    3    3    0    0 -0.43304092561E+02  0.33655113685E+02  0.74293248859E+02  0.92343911200E+02  0.00000000000E+00 0.  1.
         13    1    3    3    0    0  0.34151262658E+02  0.10326994804E+02  0.30396675149E+01  0.35807752533E+02  0.00000000000E+00 0. -1.
         -1    1    1    2    0  502 -0.24567743800E+01  0.25052762907E+02 -0.46413195681E+02  0.52800202679E+02  0.00000000000E+00 0.  1.
<scales pt_clust_5="13000.00000" pt_clust_6="13000.00000" pt_clust_7="13000.00000" pt_clust_8="13000.00000" pt_clust_9="13000.00000"></scales>
<clustering>
<clus scale="   91.784">  7  8 -1 -1</clus>
<clus scale="   94.435">  5  6 -1 -1</clus>
<clus scale="   25.173">  5  9 -1 -1</clus>
<clus scale="  102.188">  1  7  2 -1</clus>
<clus scale="  170.463">  2  5  1 -1</clus>
</clustering>
</event>
<event>
 9    1  0.3312826E-006  0.4456774E+03  0.7546771E-02  0.1048160E+00
         21   -1    0    0  501  502  0.00000000000E+00  0.00000000000E+00  0.71332395556E+03  0.71332395556E+03  0.00000000000E+00 0.  1.
          2   -1    0    0  502    0 -0.00000000000E+00 -0.00000000000E+00 -0.59990828648E+03  0.59990828648E+03  0.00000000000E+00 0. -1.
         23    2    1    2    0    0  0.13213509151E+03  0.19779938354E+03 -0.49632103249E+03  0.55797919540E+03  0.91771110206E+02 0.  0.
         23    2    1    2    0    0  0.95334416683E+02 -0.11153475303E+02  0.29834169905E+03  0.32683045175E+03  0.92721754637E+02 0.  0.
        -11    1    3    3    0    0  0.61859478410E+02  0.10592082317E+03 -0.35358506852E+03  0.37425688575E+03  0.00000000000E+00 0. -1.
         11    1    3    3    0    0  0.70275613099E+02  0.91878560375E+02 -0.14273596397E+03  0.18372230965E+03  0.00000000000E+00 0.  1.
        -13    1    4    4    0    0  0.39902187371E+02  0.26815239060E+02  0.21223436828E+03  0.21761127884E+03  0.00000000000E+00 0.  1.
         13    1    4    4    0    0  0.55432229312E+02 -0.37968714363E+02  0.86107330770E+02  0.10921917290E+03  0.00000000000E+00 0. -1.
          2    1    1    2  501    0 -0.22746950819E+03 -0.18664590824E+03  0.31139500253E+03  0.42842259490E+03  0.00000000000E+00 0. -1.
<scales pt_clust_5="13000.00000" pt_clust_6="13000.00000" pt_clust_7="13000.00000" pt_clust_8="13000.00000" pt_clust_9="13000.00000"></scales>
<clustering>
<clus scale="   91.771">  5  6 -1 -1</clus>
<clus scale="   92.722">  7  8 -1 -1</clus>
<clus scale="  254.963">  2  5  1 -1</clus>
<clus scale="  124.300">  7  9 -1 -1</clus>
<clus scale="  445.677">  1  5  2 -1</clus>
</clustering>
</event>
<event>
 9    1  0.3312826E-006  0.5987944E+03  0.7546771E-02  0.1043179E+00
          2   -1    0    0  502    0 -0.00000000000E+00  0.00000000000E+00  0.51782395602E+03  0.51782395602E+03  0.00000000000E+00 0. -1.
         21   -1    0    0  501  502  0.00000000000E+00 -0.00000000000E+00 -0.25162837557E+03  0.25162837557E+03  0.00000000000E+00 0. -1.
         23    2    1    2    0    0 -0.68860967842E+02 -0.42229490689E+02  0.65779797853E+02  0.13800857044E+03  0.90521936200E+02 0.  0.
         23    2    1    2    0    0  0.21874415061E+03  0.13334553669E+03  0.31945420090E+03  0.41945968781E+03  0.90914287349E+02 0.  0.
        -11    1    4    4    0    0  0.11275874037E+03  0.19145314782E+02  0.11264914460E+03  0.16053319403E+03  0.00000000000E+00 0.  1.
         11    1    4    4    0    0  0.10598541024E+03  0.11420022191E+03  0.20680505630E+03  0.25892649378E+03  0.00000000000E+00 0. -1.
        -11    1    3    3    0    0 -0.19772361481E+02 -0.29371665246E+02  0.78133719987E+02  0.85781811574E+02  0.00000000000E+00 0.  1.
         11    1    3    3    0    0 -0.49088606361E+02 -0.12857825443E+02 -0.12353922134E+02  0.52226758866E+02  0.00000000000E+00 0. -1.
          2    1    1    2  501    0 -0.14988318277E+03 -0.91116046005E+02 -0.11903841830E+03  0.21198407333E+03  0.00000000000E+00 0. -1.
<scales pt_clust_5="13000.00000" pt_clust_6="13000.00000" pt_clust_7="13000.00000" pt_clust_8="13000.00000" pt_clust_9="13000.00000"></scales>
<clustering>
<clus scale="   90.522">  7  8 -1 -1</clus>
<clus scale="   90.914">  5  6 -1 -1</clus>
<clus scale="  121.323">  1  7  2 -1</clus>
<clus scale="  184.431">  5  9 -1 -1</clus>
<clus scale="  598.794">  2  5  1 -1</clus>
</clustering>
</event>
<event>
 9    1  0.3312826E-006  0.2581332E+03  0.7546771E-02  0.1135899E+00
         -2   -1    0    0    0  501 -0.00000000000E+00  0.00000000000E+00  0.23466220552E+03  0.23466220552E+03  0.00000000000E+00 0.  1.
         21   -1    0    0  501  502  0.00000000000E+00 -0.00000000000E+00 -0.20361637183E+03  0.20361637183E+03  0.00000000000E+00 0. -1.
         23    2    1    2    0    0  0.47781287199E+02 -0.81338724283E+02  0.10817380062E+03  0.16886904864E+03  0.88972720395E+02 0.  0.
         23    2    1    2    0    0 -0.20542861234E+02 -0.46001707265E+02 -0.48248319386E+02  0.13602455429E+03  0.11677590860E+03 0.  0.
        -11    1    3    3    0    0  0.10141804860E+02 -0.88292226321E+02  0.90044424652E+02  0.12651629083E+03  0.00000000000E+00 0. -1.
         11    1    3    3    0    0  0.37639482339E+02  0.69535020379E+01  0.18129375967E+02  0.42352757812E+02  0.00000000000E+00 0.  1.
        -13    1    4    4    0    0 -0.66498657005E+02 -0.27152990964E+02 -0.83475830357E+01  0.72312090581E+02  0.00000000000E+00 0.  1.
         13    1    4    4    0    0  0.45955795770E+02 -0.18848716302E+02 -0.39900736351E+02  0.63712463714E+02  0.00000000000E+00 0. -1.
         -2    1    1    2    0  502 -0.27238425965E+02  0.12734043155E+03 -0.28879647542E+02  0.13338497441E+03  0.00000000000E+00 0.  1.
<scales pt_clust_5="13000.00000" pt_clust_6="13000.00000" pt_clust_7="13000.00000" pt_clust_8="13000.00000" pt_clust_9="13000.00000"></scales>
<clustering>
<clus scale="   88.973">  5  6 -1 -1</clus>
<clus scale="  116.776">  7  8 -1 -1</clus>
<clus scale="  129.673">  1  5  2 -1</clus>
<clus scale="   83.142">  7  9 -1 -1</clus>
<clus scale="  258.133">  2  5  1 -1</clus>
</clustering>
</event>
<event>
 9    1  0.3312826E-006  0.1601595E+03  0.7546771E-02  0.1213679E+00
         21   -1    0    0  501  502  0.00000000000E+00  0.00000000000E+00  0.24296208268E+03  0.24296208268E+03  0.00000000000E+00 0.  1.
          3   -1    0    0  502    0 -0.00000000000E+00 -0.00000000000E+00 -0.66747088737E+02  0.66747088737E+02  0.00000000000E+00 0. -1.
         23    2    1    2    0    0 -0.22830356434E+01 -0.23796811755E+02  0.47667809752E+02  0.10434252922E+03  0.89686358032E+02 0.  0.
         23    2    1    2    0    0  0.44441387504E+02  0.25330366584E+02  0.57663071717E+02  0.12287885023E+03  0.95694919399E+02 0.  0.
        -11    1    4    4    0    0 -0.21837447020E+02  0.34797881070E+02  0.27564088550E+02  0.49472675255E+02  0.00000000000E+00 0. -1.
         11    1    4    4    0    0  0.66278834524E+02 -0.94675144858E+01  0.30098983167E+02  0.73406174972E+02  0.00000000000E+00 0.  1.
        -13    1    3    3    0    0  0.27910690835E+02  0.27564300263E+01 -0.13512699830E+02  0.31131939003E+02  0.00000000000E+00 0. -1.
         13    1    3    3    0    0 -0.30193726479E+02 -0.26553241781E+02  0.61180509582E+02  0.73210590221E+02  0.00000000000E+00 0.  1.
          3    1    1    2  501    0 -0.42158351861E+02 -0.15335548292E+01  0.70884112473E+02  0.82487791964E+02  0.00000000000E+00 0. -1.
<scales pt_clust_5="13000.00000" pt_clust_6="13000.00000" pt_clust_7="13000.00000" pt_clust_8="13000.00000" pt_clust_9="13000.00000"></scales>
<clustering>
<clus scale="   89.686">  7  8 -1 -1</clus>
<clus scale="   92.818">  2  7  1 -1</clus>
<clus scale="   95.695">  5  6 -1 -1</clus>
<clus scale="   42.811">  5  9 -1 -1</clus>
<clus scale="  160.160">  1  5  2 -1</clus>
</clustering>
</event>
<event>
 9    1  0.3312826E-006  0.3220609E+03  0.7546771E-02  0.1119891E+00
          1   -1    0    0  502    0 -0.00000000000E+00  0.00000000000E+00  0.20640948541E+03  0.20640948541E+03  0.00000000000E+00 0. -1.
         21   -1    0    0  501  502  0.00000000000E+00 -0.00000000000E+00 -0.23212979042E+03  0.23212979042E+03  0.00000000000E+00 0.  1.
         23    2    1    2    0    0  0.39896001724E+02  0.82257986091E+00  0.44983773493E+02  0.10880860795E+03  0.90682995624E+02 0.  0.
         23    2    1    2    0    0 -0.14534300948E+03 -0.55130751794E+02 -0.10051032046E+03  0.20743242160E+03  0.93604993531E+02 0.  0.
        -11    1    3    3    0    0 -0.28942349548E+02  0.75371946558E+01  0.13273956037E+02  0.32721045361E+02  0.00000000000E+00 0.  1.
         11    1    3    3    0    0  0.68838351272E+02 -0.67146147949E+01  0.31709817456E+02  0.76087562590E+02  0.00000000000E+00 0. -1.
        -13    1    4    4    0    0 -0.60465680216E+02 -0.68637490944E+02 -0.73498243166E+02  0.11734221489E+03  0.00000000000E+00 0.  1.
         13    1    4    4    0    0 -0.84877329261E+02  0.13506739150E+02 -0.27012077297E+02  0.90090206709E+02  0.00000000000E+00 0. -1.
          1    1    1    2  501    0  0.10544700775E+03  0.54308171933E+02  0.29806241958E+02  0.12229824628E+03  0.00000000000E+00 0. -1.
<scales pt_clust_5="13000.00000" pt_clust_6="13000.00000" pt_clust_7="13000.00000" pt_clust_8="13000.00000" pt_clust_9="13000.00000"></scales>
<clustering>
<clus scale="   90.683">  5  6 -1 -1</clus>
<clus scale="   93.605">  7  8 -1 -1</clus>
<clus scale="   99.075">  1  5  2 -1</clus>
<clus scale="  140.038">  7  9 -1 -1</clus>
<clus scale="  322.061">  2  5  1 -1</clus>
</clustering>
</event>
<event>
 9    1  0.3312826E-006  0.4938919E+03  0.7546771E-02  0.1055059E+00
         21   -1    0    0  501  502  0.00000000000E+00  0.00000000000E+00  0.22540510020E+03  0.22540510020E+03  0.00000000000E+00 0.  1.
         -4   -1    0    0    0  501 -0.00000000000E+00 -0.00000000000E+00 -0.47074989786E+03  0.47074989786E+03  0.00000000000E+00 0.  1.
         23    2    1    2    0    0 -0.10987530632E+03  0.62781548756E+02 -0.90337652613E+02  0.17850991002E+03  0.87697153276E+02 0.  0.
         23    2    1    2    0    0 -0.24982987608E+02 -0.23731815193E+03 -0.15133740049E+03  0.29704759867E+03  0.91598101421E+02 0.  0.
        -13    1    3    3    0    0 -0.12155128317E+01  0.43562516288E+02 -0.23796931277E+02  0.49653441321E+02  0.00000000000E+00 0. -1.
         13    1    3    3    0    0 -0.10865979349E+03  0.19219032468E+02 -0.66540721337E+02  0.12885646870E+03  0.00000000000E+00 0.  1.
        -13    1    4    4    0    0  0.18432086116E+02 -0.25682439897E+02 -0.48217005518E+02  0.57655954929E+02  0.00000000000E+00 0. -1.
         13    1    4    4    0    0 -0.43415073724E+02 -0.21163571204E+03 -0.10312039497E+03  0.23939164375E+03  0.00000000000E+00 0.  1.
         -4    1    1    2    0  502  0.13485829393E+03  0.17453660318E+03 -0.36697445577E+01  0.22059748937E+03  0.00000000000E+00 0.  1.
<scales pt_clust_5="13000.00000" pt_clust_6="13000.00000" pt_clust_7="13000.00000" pt_clust_8="13000.00000" pt_clust_9="13000.00000"></scales>
<clustering>
<clus scale="   87.697">  5  6 -1 -1</clus>
<clus scale="   91.598">  7  8 -1 -1</clus>
<clus scale="  153.964">  2  5  1 -1</clus>
<clus scale="  218.760">  7  9 -1 -1</clus>
<clus scale="  493.892">  1  5  2 -1</clus>
</clustering>
</event>
<event>
 9    1  0.3312826E-006  0.3741154E+03  0.7546771E-02  0.1085630E+00
         21   -1    0    0  501  502  0.00000000000E+00  0.00000000000E+00  0.58198207661E+03  0.58198207661E+03  0.00000000000E+00 0.  1.
         -3   -1    0    0    0  501 -0.00000000000E+00 -0.00000000000E+00 -0.12832151803E+03  0.12832151803E+03  0.00000000000E+00 0.  1.
         23    2    1    2    0    0 -0.61746927469E+02 -0.10286379156E+03  0.22400863782E+03  0.27132482882E+03  0.95098108534E+02 0.  0.
         23    2    1    2    0    0 -0.33487519934E+02  0.14824369863E+02 -0.65073434183E+02  0.11697942640E+03  0.90046979018E+02 0.  0.
        -13    1    4    4    0    0 -0.32550317956E+02  0.40111666894E+02 -0.73912883402E+02  0.90175292363E+02  0.00000000000E+00 0.  1.
         13    1    4    4    0    0 -0.93720197817E+00 -0.25287297031E+02  0.88394492193E+01  0.26804134032E+02  0.00000000000E+00 0. -1.
        -13    1    3    3    0    0 -0.15709455623E+02 -0.10044795006E+03  0.11820241649E+03  0.15591147787E+03  0.00000000000E+00 0.  1.
         13    1    3    3    0    0 -0.46037471847E+02 -0.24158415013E+01  0.10580622133E+03  0.11541335094E+03  0.00000000000E+00 0. -1.
         -3    1    1    2    0  502  0.95234447403E+02  0.88039421701E+02  0.29472535494E+03  0.32199933942E+03  0.00000000000E+00 0.  1.
<scales pt_clust_5="13000.00000" pt_clust_6="13000.00000" pt_clust_7="13000.00000" pt_clust_8="13000.00000" pt_clust_9="13000.00000"></scales>
<clustering>
<clus scale="   90.047">  5  6 -1 -1</clus>
<clus scale="   95.098">  7  8 -1 -1</clus>
<clus scale="  129.694">  5  9 -1 -1</clus>
<clus scale="  153.093">  2  7  1 -1</clus>
<clus scale="  374.115">  1  5  2 -1</clus>
</clustering>
</event>
<event>
 9    1  0.3312826E-006  0.1481883E+03  0.7546771E-02  0.1220826E+00
          1   -1    0    0  502    0 -0.00000000000E+00  0.00000000000E+00  0.14862615121E+03  0.14862615121E+03  0.00000000000E+00 0. -1.
         21   -1    0    0  501  502  0.00000000000E+00 -0.00000000000E+00 -0.34173960268E+03  0.34173960268E+03  0.00000000000E+00 0.  1.
         23    2    1    2    0    0  0.34561878557E+02  0.78409868713E+01  0.11230636401E+03  0.15089406404E+03  0.94341372893E+02 0.  0.
         23    2    1    2    0    0  0.43231199226E+01  0.21597212507E+02 -0.23973387267E+03  0.25765913720E+03  0.91819237205E+02 0.  0.
        -11    1    4    4    0    0  0.26013699776E+02 -0.29247919856E+02 -0.10037087629E+03  0.10773331053E+03  0.00000000000E+00 0.  1.
         11    1    4    4    0    0 -0.21690579853E+02  0.50845132362E+02 -0.13936299638E+03  0.14992582666E+03  0.00000000000E+00 0. -1.
        -13    1    3    3    0    0 -0.12950632868E+02 -0.26388327464E+02  0.67151158299E+01  0.30152205535E+02  0.00000000000E+00 0.  1.
         13    1    3    3    0    0  0.47512511425E+02  0.34229314335E+02  0.10559124818E+03  0.12074185850E+03  0.00000000000E+00 0. -1.
          1    1    1    2  501    0 -0.38884998480E+02 -0.29438199378E+02 -0.65685942810E+02  0.81812552657E+02  0.00000000000E+00 0. -1.
<scales pt_clust_5="13000.00000" pt_clust_6="13000.00000" pt_clust_7="13000.00000" pt_clust_8="13000.00000" pt_clust_9="13000.00000"></scales>
<clustering>
<clus scale="   91.819">  5  6 -1 -1</clus>
<clus scale="   48.771">  5  9 -1 -1</clus>
<clus scale="   94.341">  7  8 -1 -1</clus>
<clus scale="  100.778">  1  7  2 -1</clus>
<clus scale="  148.188">  2  5  1 -1</clus>
</clustering>
</event>
<event>
 9    1  0.3312826E-006  0.2731738E+03  0.7546771E-02  0.1124996E+00
         21   -1    0    0  501  502  0.00000000000E+00  0.00000000000E+00  0.20950186508E+03  0.20950186508E+03  0.00000000000E+00 0.  1.
          2   -1    0    0  502    0 -0.00000000000E+00 -0.00000000000E+00 -0.40938744055E+03  0.40938744055E+03  0.00000000000E+00 0. -1.
         23    2    1    2    0    0 -0.76370394557E+02 -0.75454539868E+02 -0.29646928131E+03  0.32914404913E+03  0.94424284838E+02 0.  0.
         23    2    1    2    0    0  0.15030511849E+03  0.23448179986E+02  0.41898544734E+02  0.18409738991E+03  0.94841526396E+02 0.  0.
        -11    1    3    3    0    0 -0.66271584050E+02 -0.87978664748E+01 -0.20423011894E+03  0.21489361738E+03  0.00000000000E+00 0. -1.
         11    1    3    3    0    0 -0.10098810508E+02 -0.66656673393E+02 -0.92239162366E+02  0.11425043175E+03  0.00000000000E+00 0.  1.
        -13    1    4    4    0    0  0.12111613689E+03 -0.54781302795E+01 -0.55004618446E+01  0.12136467199E+03  0.00000000000E+00 0. -1.
         13    1    4    4    0    0  0.29188981605E+02  0.28926310266E+02  0.47399006578E+02  0.62732717918E+02  0.00000000000E+00 0.  1.
          2    1    1    2  501    0 -0.73934723936E+02  0.52006359881E+02  0.54685161109E+02  0.10564786660E+03  0.00000000000E+00 0. -1.
<scales pt_clust_5="13000.00000" pt_clust_6="13000.00000" pt_clust_7="13000.00000" pt_clust_8="13000.00000" pt_clust_9="13000.00000"></scales>
<clustering>
<clus scale="   94.424">  5  6 -1 -1</clus>
<clus scale="   94.842">  7  8 -1 -1</clus>
<clus scale="   90.394">  7  9 -1 -1</clus>
<clus scale="  142.975">  2  5  1 -1</clus>
<clus scale="  273.174">  1  5  2 -1</clus>
</clustering>
</event>
<event>
 9    1  0.3312826E-006  0.5016496E+03  0.7546771E-02  0.1064653E+00
         -1   -1    0    0    0  501 -0.00000000000E+00  0.00000000000E+00  0.11712851449E+04  0.11712851449E+04  0.00000000000E+00 0.  1.
         21   -1    0    0  501  502  0.00000000000E+00 -0.00000000000E+00 -0.89583462525E+02  0.89583462525E+02  0.00000000000E+00 0.  1.
         23    2    1    2    0    0  0.65550554952E+02 -0.23627149708E+02  0.39363821027E+03  0.40935015324E+03  0.88098750943E+02 0.  0.
         23    2    1    2    0    0 -0.16760567582E+03 -0.18612844797E+03  0.40388825274E+03  0.48386615410E+03  0.90913545066E+02 0.  0.
        -13    1    3    3    0    0  0.98320883990E+01 -0.38158356277E+02  0.67436440044E+02  0.78105080256E+02  0.00000000000E+00 0.  1.
         13    1    3    3    0    0  0.55718466553E+02  0.14531206569E+02  0.32620177022E+03  0.33124507299E+03  0.00000000000E+00 0. -1.
        -13    1    4    4    0    0 -0.10602584313E+03 -0.17369524840E+03  0.31513897963E+03  0.37513210367E+03  0.00000000000E+00 0.  1.
         13    1    4    4    0    0 -0.61579832682E+02 -0.12433199579E+02  0.88749273112E+02  0.10873405043E+03  0.00000000000E+00 0. -1.
         -1    1    1    2    0  502  0.10205512086E+03  0.20975559768E+03  0.28417521939E+03  0.36765230010E+03  0.00000000000E+00 0.  1.
<scales pt_clust_5="13000.00000" pt_clust_6="13000.00000" pt_clust_7="13000.00000" pt_clust_8="13000.00000" pt_clust_9="13000.00000"></scales>
<clustering>
<clus scale="   88.099">  5  6 -1 -1</clus>
<clus scale="   90.914">  7  8 -1 -1</clus>
<clus scale="  112.323">  1  5  2 -1</clus>
<clus scale="  238.225">  7  9 -1 -1</clus>
<clus scale="  501.650">  2  5  1 -1</clus>
</clustering>
</event>
<event>
 9    1  0.3312826E-006  0.1660400E+03  0.7546771E-02  0.1198479E+00
         -4   -1    0    0    0  501 -0.00000000000E+00  0.00000000000E+00  0.86547920026E+03  0.86547920026E+03  0.00000000000E+00 0.  1.
         21   -1    0    0  501  502  0.00000000000E+00 -0.00000000000E+00 -0.23646840084E+02  0.23646840084E+02  0.00000000000E+00 0.  1.
         23    2    1    2    0    0 -0.68849105026E+02  0.17269893679E+02  0.42577895184E+03  0.44116429033E+03  0.91103055601E+02 0.  0.
         23    2    1    2    0    0  0.18814246827E+02  0.27349444514E+02  0.23729192090E+03  0.25704280972E+03  0.93067622202E+02 0.  0.
        -13    1    3    3    0    0  0.14875734024E+02 -0.14522730509E+02  0.39472137398E+02  0.44612182136E+02  0.00000000000E+00 0. -1.
         13    1    3    3    0    0 -0.83724839049E+02  0.31792624189E+02  0.38630681444E+03  0.39655210819E+03  0.00000000000E+00 0.  1.
        -13    1    4    4    0    0 -0.25600384339E+02  0.39880050222E+01  0.16723808919E+02  0.30837795756E+02  0.00000000000E+00 0. -1.
         13    1    4    4    0    0  0.44414631166E+02  0.23361439492E+02  0.22056811198E+03  0.22620501396E+03  0.00000000000E+00 0.  1.
         -4    1    1    2    0  502  0.50034858199E+02 -0.44619338193E+02  0.17876148743E+03  0.19091894029E+03  0.00000000000E+00 0.  1.
<scales pt_clust_5="13000.00000" pt_clust_6="13000.00000" pt_clust_7="13000.00000" pt_clust_8="13000.00000" pt_clust_9="13000.00000"></scales>
<clustering>
<clus scale="   91.103">  5  6 -1 -1</clus>
<clus scale="   93.068">  7  8 -1 -1</clus>
<clus scale="   67.040">  7  9 -1 -1</clus>
<clus scale="  115.491">  1  5  2 -1</clus>
<clus scale="  166.040">  2  5  1 -1</clus>
</clustering>
</event>
<event>
 9    1  0.3312826E-006  0.1209379E+03  0.7546771E-02  0.1253359E+00
         21   -1    0    0  501  502  0.00000000000E+00  0.00000000000E+00  0.66772483984E+02  0.66772483984E+02  0.00000000000E+00 0.  1.
         -1   -1    0    0    0  501 -0.00000000000E+00 -0.00000000000E+00 -0.23395653568E+03  0.23395653568E+03  0.00000000000E+00 0.  1.
         23    2    1    2    0    0  0.21661796438E+02 -0.10463017653E+02 -0.15111037685E+03  0.17872767719E+03  0.92360859883E+02 0.  0.
         23    2    1    2    0    0 -0.39067960071E+01 -0.92658136819E+01 -0.87820991437E+01  0.94476192116E+02  0.93528109427E+02 0.  0.
        -11    1    3    3    0    0  0.57480837078E+02 -0.97257891667E+01 -0.10748159329E+03  0.12227399765E+03  0.00000000000E+00 0.  1.
         11    1    3    3    0    0 -0.35819040639E+02 -0.73722848664E+00 -0.43628783560E+02  0.56453679535E+02  0.00000000000E+00 0. -1.
        -11    1    4    4    0    0 -0.41046861947E+02 -0.24895026522E+02  0.11500671545E+02  0.49364690491E+02  0.00000000000E+00 0.  1.
         11    1    4    4    0    0  0.37140065940E+02  0.15629212840E+02 -0.20282770689E+02  0.45111501625E+02  0.00000000000E+00 0. -1.
         -1    1    1    2    0  502 -0.17755000431E+02  0.19728831335E+02 -0.72915757054E+01  0.27525150362E+02  0.00000000000E+00 0.  1.
<scales pt_clust_5="13000.00000" pt_clust_6="13000.00000" pt_clust_7="13000.00000" pt_clust_8="13000.00000" pt_clust_9="13000.00000"></scales>
<clustering>
<clus scale="   92.361">  5  6 -1 -1</clus>
<clus scale="   93.528">  7  8 -1 -1</clus>
<clus scale="   26.542">  7  9 -1 -1</clus>
<clus scale="   95.442">  2  5  1 -1</clus>
<clus scale="  120.938">  1  5  2 -1</clus>
</clustering>
</event>
<event>
 9    1  0.3312826E-006  0.2592093E+03  0.7546771E-02  0.1142365E+00
         21   -1    0    0  501  502  0.00000000000E+00  0.00000000000E+00  0.88204357117E+02  0.88204357117E+02  0.00000000000E+00 0. -1.
          2   -1    0    0  502    0 -0.00000000000E+00 -0.00000000000E+00 -0.66903340757E+03  0.66903340757E+03  0.00000000000E+00 0. -1.
         23    2    1    2    0    0  0.26849328623E+02  0.56129402658E+02 -0.45704429660E+03  0.46998851146E+03  0.90157171447E+02 0.  0.
         23    2    1    2    0    0 -0.82816008952E+02  0.54203994454E+02 -0.71557879037E+02  0.15296085358E+03  0.92086526282E+02 0.  0.
        -11    1    4    4    0    0  0.13527764967E+02  0.28608298232E+02 -0.33963955848E+02  0.46421820834E+02  0.00000000000E+00 0. -1.
         11    1    4    4    0    0 -0.96343773919E+02  0.25595696222E+02 -0.37593923189E+02  0.10653903275E+03  0.00000000000E+00 0.  1.
        -13    1    3    3    0    0 -0.86462460352E+01 -0.21397790205E+02 -0.71676511796E+02  0.75300367458E+02  0.00000000000E+00 0.  1.
         13    1    3    3    0    0  0.35495574659E+02  0.77527192864E+02 -0.38536778480E+03  0.39468814400E+03  0.00000000000E+00 0. -1.
          2    1    1    2  501    0  0.55966680329E+02 -0.11033339711E+03 -0.52226874818E+02  0.13428839964E+03  0.00000000000E+00 0. -1.
<scales pt_clust_5="13000.00000" pt_clust_6="13000.00000" pt_clust_7="13000.00000" pt_clust_8="13000.00000" pt_clust_9="13000.00000"></scales>
<clustering>
<clus scale="   90.157">  7  8 -1 -1</clus>
<clus scale="   92.087">  5  6 -1 -1</clus>
<clus scale="  109.543">  2  7  1 -1</clus>
<clus scale="  108.841">  5  9 -1 -1</clus>
<clus scale="  259.209">  1  5  2 -1</clus>
</clustering>
</event>
<event>
 9    1  0.3312826E-006  0.3699052E+03  0.7546771E-02  0.1079702E+00
         21   -1    0    0  501  502  0.00000000000E+00  0.00000000000E+00  0.34147481514E+03  0.34147481514E+03  0.00000000000E+00 0. -1.
          2   -1    0    0  502    0 -0.00000000000E+00 -0.00000000000E+00 -0.59294646585E+03  0.59294646585E+03  0.00000000000E+00 0. -1.
         23    2    1    2    0    0  0.12417992492E+03  0.10595714068E+03 -0.46961660290E+03  0.50498322511E+03  0.88434916810E+02 0.  0.
         23    2    1    2    0    0  0.59036520254E+02 -0.14564105717E+03  0.90269992585E+02  0.20251277236E+03  0.90366604167E+02 0.  0.
        -11    1    4    4    0    0  0.29380881666E+02 -0.11095476598E+02 -0.90341342299E+01  0.32679678543E+02  0.00000000000E+00 0.  1.
         11    1    4    4    0    0  0.29655638588E+02 -0.13454558057E+03  0.99304126815E+02  0.16983309381E+03  0.00000000000E+00 0. -1.
        -13    1    3    3    0    0  0.69623074069E+02  0.81109698514E+02 -0.18100874006E+03  0.21021493671E+03  0.00000000000E+00 0.  1.
         13    1    3    3    0    0  0.54556850847E+02  0.24847442163E+02 -0.28860786284E+03  0.29476828841E+03  0.00000000000E+00 0. -1.
          2    1    1    2  501    0 -0.18321644517E+03  0.39683916493E+02  0.12787495960E+03  0.22692528352E+03  0.00000000000E+00 0. -1.
<scales pt_clust_5="13000.00000" pt_clust_6="13000.00000" pt_clust_7="13000.00000" pt_clust_8="13000.00000" pt_clust_9="13000.00000"></scales>
<clustering>
<clus scale="   88.435">  7  8 -1 -1</clus>
<clus scale="   90.367">  5  6 -1 -1</clus>
<clus scale="  185.656">  2  7  1 -1</clus>
<clus scale="  153.656">  5  9 -1 -1</clus>
<clus scale="  369.905">  1  5  2 -1</clus>
</clustering>
</event>
<event>
 9    1  0.3312826E-006  0.2516864E+03  0.7546771E-02  0.1126267E+00
         21   -1    0    0  501  502  0.00000000000E+00  0.00000000000E+00  0.21439807161E+03  0.21439807161E+03  0.00000000000E+00 0.  1.
         -3   -1    0    0    0  501 -0.00000000000E+00 -0.00000000000E+00 -0.33260462133E+03  0.33260462133E+03  0.00000000000E+00 0.  1.
         23    2    1    2    0    0 -0.80672622186E+02  0.12945706180E+03 -0.21390595564E+03  0.27773626185E+03  0.90080355611E+02 0.  0.
         23    2    1    2    0    0  0.71561124086E+02 -0.11336850293E+02 -0.10561413630E+02  0.11012257939E+03  0.82255214899E+02 0.  0.
        -11    1    3    3    0    0 -0.28632816344E+02  0.64478032925E+01 -0.49855921771E+01  0.29770261477E+02  0.00000000000E+00 0. -1.
         11    1    3    3    0    0 -0.52039805842E+02  0.12300925851E+03 -0.20892036346E+03  0.24796600037E+03  0.00000000000E+00 0.  1.
        -11    1    4    4    0    0  0.33826344107E+02 -0.25357794488E+02 -0.41584388277E+02  0.59300089758E+02  0.00000000000E+00 0. -1.
         11    1    4    4    0    0  0.37734779980E+02  0.14020944195E+02  0.31022974647E+02  0.50822489630E+02  0.00000000000E+00 0.  1.
         -3    1    1    2    0  502  0.91114980996E+01 -0.11812021151E+03  0.10626081955E+03  0.15914385171E+03  0.00000000000E+00 0.  1.
<scales pt_clust_5="13000.00000" pt_clust_6="13000.00000" pt_clust_7="13000.00000" pt_clust_8="13000.00000" pt_clust_9="13000.00000"></scales>
<clustering>
<clus scale="   82.255">  7  8 -1 -1</clus>
<clus scale="   90.080">  5  6 -1 -1</clus>
<clus scale="  118.471">  7  9 -1 -1</clus>
<clus scale="  177.149">  2  5  1 -1</clus>
<clus scale="  251.686">  1  5  2 -1</clus>
</clustering>
</event>
<event>
 9    1  0.3312826E-006  0.3502149E+03  0.7546771E-02  0.1087094E+00
         21   -1    0    0  501  502  0.00000000000E+00  0.00000000000E+00  0.32008087141E+03  0.32008087141E+03  0.00000000000E+00 0. -1.
          1   -1    0    0  502    0 -0.00000000000E+00 -0.00000000000E+00 -0.22316974736E+03  0.22316974736E+03  0.00000000000E+00 0. -1.
         23    2    1    2    0    0  0.15329537892E+03 -0.18948138838E+02 -0.13987472404E+01  0.17949887530E+03  0.91429670114E+02 0.  0.
         23    2    1    2    0    0 -0.29194246958E+02  0.24625262464E+02 -0.93636908809E+02  0.13511034940E+03  0.89600380679E+02 0.  0.
        -11    1    4    4    0    0 -0.50136177694E+02 -0.12358818297E+02 -0.33801395079E+02  0.61716375564E+02  0.00000000000E+00 0.  1.
         11    1    4    4    0    0  0.20941930737E+02  0.36984080761E+02 -0.59835513730E+02  0.73393973840E+02  0.00000000000E+00 0. -1.
        -11    1    3    3    0    0  0.46576187616E+02  0.32051351175E+02 -0.19574699771E+02  0.59831423484E+02  0.00000000000E+00 0. -1.
         11    1    3    3    0    0  0.10671919131E+03 -0.50999490013E+02  0.18175952531E+02  0.11966745182E+03  0.00000000000E+00 0.  1.
          1    1    1    2  501    0 -0.12410113197E+03 -0.56771236261E+01  0.19194678010E+03  0.22864139406E+03  0.00000000000E+00 0. -1.
<scales pt_clust_5="13000.00000" pt_clust_6="13000.00000" pt_clust_7="13000.00000" pt_clust_8="13000.00000" pt_clust_9="13000.00000"></scales>
<clustering>
<clus scale="   89.600">  5  6 -1 -1</clus>
<clus scale="   91.430">  7  8 -1 -1</clus>
<clus scale="  124.231">  5  9 -1 -1</clus>
<clus scale="  179.493">  2  7  1 -1</clus>
<clus scale="  350.215">  1  5  2 -1</clus>
</clustering>
</event>
<event>
 9    1  0.3312826E-006  0.1954769E+03  0.7546771E-02  0.1169612E+00
         21   -1    0    0  501  502  0.00000000000E+00  0.00000000000E+00  0.14278747178E+03  0.14278747178E+03  0.00000000000E+00 0. -1.
          1   -1    0    0  502    0 -0.00000000000E+00 -0.00000000000E+00 -0.46473058693E+03  0.46473058693E+03  0.00000000000E+00 0. -1.
         23    2    1    2    0    0  0.85224201142E+02  0.48917770825E+02 -0.38031791166E+03  0.40351113986E+03  0.92322333689E+02 0.  0.
         23    2    1    2    0    0 -0.78980395608E+02 -0.18077391986E+02 -0.14992159476E+02  0.12417694763E+03  0.92900239434E+02 0.  0.
        -11    1    4    4    0    0 -0.83456098574E+02 -0.42325477118E+02 -0.26078813808E+02  0.97141499536E+02  0.00000000000E+00 0.  1.
         11    1    4    4    0    0  0.44757029666E+01  0.24248085132E+02  0.11086654332E+02  0.27035448099E+02  0.00000000000E+00 0. -1.
        -11    1    3    3    0    0 -0.77632722589E+01  0.29534606937E+02 -0.40838615768E+02  0.50993665695E+02  0.00000000000E+00 0.  1.
         11    1    3    3    0    0  0.92987473401E+02  0.19383163888E+02 -0.33947929589E+03  0.35251747416E+03  0.00000000000E+00 0. -1.
          1    1    1    2  501    0 -0.62438055340E+01 -0.30840378840E+02  0.73366955982E+02  0.79829971218E+02  0.00000000000E+00 0. -1.
<scales pt_clust_5="13000.00000" pt_clust_6="13000.00000" pt_clust_7="13000.00000" pt_clust_8="13000.00000" pt_clust_9="13000.00000"></scales>
<clustering>
<clus scale="   92.322">  7  8 -1 -1</clus>
<clus scale="   92.900">  5  6 -1 -1</clus>
<clus scale="   31.466">  5  9 -1 -1</clus>
<clus scale="  134.831">  2  7  1 -1</clus>
<clus scale="  195.477">  1  5  2 -1</clus>
</clustering>
</event>
<event>
 9    1  0.3312826E-006  0.1822938E+03  0.7546771E-02  0.1194877E+00
          3   -1    0    0  502    0 -0.00000000000E+00  0.00000000000E+00  0.49102241112E+03  0.49102241112E+03  0.00000000000E+00 0. -1.
         21   -1    0    0  501  502  0.00000000000E+00 -0.00000000000E+00 -0.10189324678E+03  0.10189324678E+03  0.00000000000E+00 0.  1.
         23    2    1    2    0    0 -0.15647779496E+02  0.17813356560E+02  0.39932697249E+03  0.41033684571E+03  0.91389973823E+02 0.  0.
         23    2    1    2    0    0 -0.39335852036E+01 -0.47105070271E+02  0.50126520076E+02  0.11271853083E+03  0.89210080374E+02 0.  0.
        -11    1    4    4    0    0  0.28358926528E+02 -0.12885344777E+02  0.57207201552E+02  0.65137736630E+02  0.00000000000E+00 0. -1.
         11    1    4    4    0    0 -0.32292511731E+02 -0.34219725493E+02 -0.70806814766E+01  0.47580794202E+02  0.00000000000E+00 0.  1.
        -13    1    3    3    0    0 -0.27286623395E+02  0.47811996875E+02  0.32053151452E+03  0.32522453577E+03  0.00000000000E+00 0. -1.
         13    1    3    3    0    0  0.11638843899E+02 -0.29998640315E+02  0.78795457962E+02  0.85112309941E+02  0.00000000000E+00 0.  1.
          3    1    1    2  501    0  0.19581364699E+02  0.29291713711E+02 -0.60324328225E+02  0.69860281358E+02  0.00000000000E+00 0. -1.
<scales pt_clust_5="13000.00000" pt_clust_6="13000.00000" pt_clust_7="13000.00000" pt_clust_8="13000.00000" pt_clust_9="13000.00000"></scales>
<clustering>
<clus scale="   89.210">  5  6 -1 -1</clus>
<clus scale="   35.234">  5  9 -1 -1</clus>
<clus scale="   91.390">  7  8 -1 -1</clus>
<clus scale="   94.416">  1  7  2 -1</clus>
<clus scale="  182.294">  2  5  1 -1</clus>
</clustering>
</event>
<event>
 9    1  0.3312826E-006  0.1576217E+03  0.7546771E-02  0.1212994E+00
          2   -1    0    0  502    0 -0.00000000000E+00  0.00000000000E+00  0.16003323948E+03  0.16003323948E+03  0.00000000000E+00 0. -1.
         21   -1    0    0  501  502  0.00000000000E+00 -0.00000000000E+00 -0.11142748949E+03  0.11142748949E+03  0.00000000000E+00 0.  1.
         23    2    1    2    0    0  0.23365988127E+02  0.26439611497E+02  0.56185133498E+02  0.11365693045E+03  0.92282751125E+02 0.  0.
         23    2    1    2    0    0  0.26592325622E+02  0.79320716678E+01  0.37422729569E+01  0.96115666591E+02  0.91946436660E+02 0.  0.
        -11    1    4    4    0    0 -0.23028293795E+02  0.33163090779E+02  0.13152845220E+01  0.40395827489E+02  0.00000000000E+00 0. -1.
         11    1    4    4    0    0  0.49620619417E+02 -0.25231019111E+02  0.24269884349E+01  0.55719839103E+02  0.00000000000E+00 0.  1.
        -11    1    3    3    0    0 -0.17756045039E+02  0.48334865152E+02  0.22649028814E+02  0.56254020576E+02  0.00000000000E+00 0. -1.
         11    1    3    3    0    0  0.41122033166E+02 -0.21895253655E+02  0.33536104684E+02  0.57402909871E+02  0.00000000000E+00 0.  1.
          2    1    1    2  501    0 -0.49958313749E+02 -0.34371683165E+02 -0.11321656469E+02  0.61688131933E+02  0.00000000000E+00 0. -1.
<scales pt_clust_5="13000.00000" pt_clust_6="13000.00000" pt_clust_7="13000.00000" pt_clust_8="13000.00000" pt_clust_9="13000.00000"></scales>
<clustering>
<clus scale="   91.946">  5  6 -1 -1</clus>
<clus scale="   60.640">  5  9 -1 -1</clus>
<clus scale="   92.283">  7  8 -1 -1</clus>
<clus scale="   98.798">  1  7  2 -1</clus>
<clus scale="  157.622">  2  5  1 -1</clus>
</clustering>
</event>
<event>
 9    1  0.3312826E-006  0.2246621E+03  0.7546771E-02  0.1164212E+00
          2   -1    0    0  502    0 -0.00000000000E+00  0.00000000000E+00  0.49882613857E+03  0.49882613857E+03  0.00000000000E+00 0. -1.
         21   -1    0    0  501  502  0.00000000000E+00 -0.00000000000E+00 -0.77360469058E+02  0.77360469058E+02  0.00000000000E+00 0. -1.
         23    2    1    2    0    0  0.18103876942E+02  0.41257771650E+02  0.30899113140E+03  0.32494258168E+03  0.89901101350E+02 0.  0.
         23    2    1    2    0    0  0.44760366216E+02  0.93740116279E+01 -0.14969446203E+02  0.10038826807E+03  0.88104242626E+02 0.  0.
        -11    1    3    3    0    0 -0.21645122047E+02  0.41326289622E+02  0.24653752524E+03  0.25091258413E+03  0.00000000000E+00 0.  1.
         11    1    3    3    0    0  0.39748998989E+02 -0.68517971878E-01  0.62453606160E+02  0.74029997553E+02  0.00000000000E+00 0. -1.
        -13    1    4    4    0    0  0.48340769518E+02  0.29565993775E+02 -0.39005806606E+02  0.68792666284E+02  0.00000000000E+00 0. -1.
         13    1    4    4    0    0 -0.35804033018E+01 -0.20191982147E+02  0.24036360403E+02  0.31595601786E+02  0.00000000000E+00 0.  1.
          2    1    1    2  501    0 -0.62864243159E+02 -0.50631783278E+02  0.12744398431E+03  0.15085575787E+03  0.00000000000E+00 0. -1.
<scales pt_clust_5="13000.00000" pt_clust_6="13000.00000" pt_clust_7="13000.00000" pt_clust_8="13000.00000" pt_clust_9="13000.00000"></scales>
<clustering>
<clus scale="   88.104">  7  8 -1 -1</clus>
<clus scale="   80.719">  7  9 -1 -1</clus>
<clus scale="   89.901">  5  6 -1 -1</clus>
<clus scale="  100.559">  1  5  2 -1</clus>
<clus scale="  224.662">  2  5  1 -1</clus>
</clustering>
</event>
<event>
 9    1  0.3312826E-006  0.1675038E+03  0.7546771E-02  0.1188252E+00
         21   -1    0    0  501  502  0.00000000000E+00  0.00000000000E+00  0.91351749702E+02  0.91351749702E+02  0.00000000000E+00 0. -1.
          2   -1    0    0  502    0 -0.00000000000E+00 -0.00000000000E+00 -0.56907978902E+03  0.56907978902E+03  0.00000000000E+00 0. -1.
         23    2    1    2    0    0  0.18026897951E+02 -0.10684781779E+03 -0.47229116869E+03  0.49283954527E+03  0.89946896250E+02 0.  0.
         23    2    1    2    0    0  0.16873310990E+02  0.81182949505E+02 -0.13121975589E+02  0.12359459709E+03  0.90708644973E+02 0.  0.
        -11    1    3    3    0    0  0.46637046439E+02 -0.91328433731E+02 -0.40912226035E+03  0.42177828396E+03  0.00000000000E+00 0.  1.
         11    1    3    3    0    0 -0.28610148487E+02 -0.15519384061E+02 -0.63168908340E+02  0.71061261310E+02  0.00000000000E+00 0. -1.
        -11    1    4    4    0    0 -0.36771492179E+02  0.42531182446E+02 -0.11876459223E+02  0.57463852995E+02  0.00000000000E+00 0.  1.
         11    1    4    4    0    0  0.53644803169E+02  0.38651767059E+02 -0.12455163664E+01  0.66130744097E+02  0.00000000000E+00 0. -1.
          2    1    1    2  501    0 -0.34900208941E+02  0.25664868286E+02  0.76851049578E+01  0.43997396361E+02  0.00000000000E+00 0. -1.
<scales pt_clust_5="13000.00000" pt_clust_6="13000.00000" pt_clust_7="13000.00000" pt_clust_8="13000.00000" pt_clust_9="13000.00000"></scales>
<clustering>
<clus scale="   89.947">  5  6 -1 -1</clus>
<clus scale="   90.709">  7  8 -1 -1</clus>
<clus scale="   43.321">  7  9 -1 -1</clus>
<clus scale="  140.826">  2  5  1 -1</clus>
<clus scale="  167.504">  1  5  2 -1</clus>
</clustering>
</event>
<event>
 9    1  0.3312826E-006  0.4712692E+03  0.7546771E-02  0.1076552E+00
         21   -1    0    0  501  502  0.00000000000E+00  0.00000000000E+00  0.19136692600E+03  0.19136692600E+03  0.00000000000E+00 0.  1.
         -4   -1    0    0    0  501 -0.00000000000E+00 -0.00000000000E+00 -0.55162477518E+03  0.55162477518E+03  0.00000000000E+00 0.  1.
         23    2    1    2    0    0 -0.31090993658E+02  0.34975654066E+02 -0.23625460954E+03  0.25568129277E+03  0.85829695793E+02 0.  0.
         23    2    1    2    0    0 -0.83709587779E+02  0.23990983851E+02 -0.26657373210E+03  0.29500184592E+03  0.91551472184E+02 0.  0.
        -13    1    4    4    0    0 -0.60813969518E+02  0.16986058125E+02 -0.26338431697E+03  0.27084712198E+03  0.00000000000E+00 0.  1.
         13    1    4    4    0    0 -0.22895618262E+02  0.70049257255E+01 -0.31894151347E+01  0.24154723946E+02  0.00000000000E+00 0. -1.
        -13    1    3    3    0    0 -0.59081511404E+02  0.36064969789E+02 -0.17967704677E+03  0.19254907991E+03  0.00000000000E+00 0.  1.
         13    1    3    3    0    0  0.27990517746E+02 -0.10893157238E+01 -0.56577562769E+02  0.63132212866E+02  0.00000000000E+00 0. -1.
         -4    1    1    2    0  502  0.11480058144E+03 -0.58966637916E+02  0.14257049247E+03  0.19230856249E+03  0.00000000000E+00 0.  1.
<scales pt_clust_5="13000.00000" pt_clust_6="13000.00000" pt_clust_7="13000.00000" pt_clust_8="13000.00000" pt_clust_9="13000.00000"></scales>
<clustering>
<clus scale="   85.830">  7  8 -1 -1</clus>
<clus scale="   91.551">  5  6 -1 -1</clus>
<clus scale="   97.758">  2  7  1 -1</clus>
<clus scale="  125.516">  5  9 -1 -1</clus>
<clus scale="  471.269">  1  5  2 -1</clus>
</clustering>
</event>
<event>
 9    1  0.3312826E-006  0.3934874E+03  0.7546771E-02  0.1053080E+00
         21   -1    0    0  501  502  0.00000000000E+00  0.00000000000E+00  0.11143759633E+04  0.11143759633E+04  0.00000000000E+00 0.  1.
         -1   -1    0    0    0  501 -0.00000000000E+00 -0.00000000000E+00 -0.13762439641E+03  0.13762439641E+03  0.00000000000E+00 0.  1.
         23    2    1    2    0    0 -0.20268784247E+03 -0.23346032296E+03  0.19403154473E+03  0.37593929171E+03  0.89977924089E+02 0.  0.
         23    2    1    2    0    0  0.10451306560E+03  0.41796938997E+02  0.16104489309E+03  0.21814533960E+03  0.94773237842E+02 0.  0.
        -11    1    4    4    0    0  0.45573590325E+02 -0.25049319423E+02  0.90929783120E+02  0.10475039855E+03  0.00000000000E+00 0. -1.
         11    1    4    4    0    0  0.58939475271E+02  0.66846258420E+02  0.70115109965E+02  0.11339494105E+03  0.00000000000E+00 0.  1.
        -13    1    3    3    0    0 -0.10606229874E+03 -0.16159251517E+03  0.77141656580E+02  0.20811580275E+03  0.00000000000E+00 0.  1.
         13    1    3    3    0    0 -0.96625543726E+02 -0.71867807786E+02  0.11688988815E+03  0.16782348896E+03  0.00000000000E+00 0. -1.
         -1    1    1    2    0  502  0.98174776873E+02  0.19166338396E+03  0.62167512907E+03  0.65791572840E+03  0.00000000000E+00 0.  1.
<scales pt_clust_5="13000.00000" pt_clust_6="13000.00000" pt_clust_7="13000.00000" pt_clust_8="13000.00000" pt_clust_9="13000.00000"></scales>
<clustering>
<clus scale="   89.978">  7  8 -1 -1</clus>
<clus scale="   94.773">  5  6 -1 -1</clus>
<clus scale="  215.344">  5  9 -1 -1</clus>
<clus scale="  321.997">  2  7  1 -1</clus>
<clus scale="  393.487">  1  5  2 -1</clus>
</clustering>
</event>
<event>
 9    1  0.3312826E-006  0.7335946E+03  0.7546771E-02  0.1027314E+00
         21   -1    0    0  501  502  0.00000000000E+00  0.00000000000E+00  0.21062677115E+03  0.21062677115E+03  0.00000000000E+00 0. -1.
          2   -1    0    0  502    0 -0.00000000000E+00 -0.00000000000E+00 -0.84573038756E+03  0.84573038756E+03  0.00000000000E+00 0. -1.
         23    2    1    2    0    0 -0.39953148158E+02  0.31623835669E+02 -0.12239999592E+03  0.16135657336E+03  0.91966644689E+02 0.  0.
         23    2    1    2    0    0 -0.10283071356E+03  0.22904220324E+03 -0.53406692828E+03  0.59702339506E+03  0.90415506708E+02 0.  0.
        -11    1    3    3    0    0 -0.55949224426E+02  0.17680496967E+02 -0.12677027369E+03  0.13969115211E+03  0.00000000000E+00 0.  1.
         11    1    3    3    0    0  0.15996076268E+02  0.13943338702E+02  0.43702777694E+01  0.21665421250E+02  0.00000000000E+00 0. -1.
        -11    1    4    4    0    0 -0.80647327512E+02  0.81126817158E+02 -0.27563931809E+03  0.29843355303E+03  0.00000000000E+00 0.  1.
         11    1    4    4    0    0 -0.22183386052E+02  0.14791538609E+03 -0.25842761019E+03  0.29858984203E+03  0.00000000000E+00 0. -1.
          2    1    1    2  501    0  0.14278386172E+03 -0.26066603891E+03  0.21363307786E+02  0.29797719028E+03  0.00000000000E+00 0. -1.
<scales pt_clust_5="13000.00000" pt_clust_6="13000.00000" pt_clust_7="13000.00000" pt_clust_8="13000.00000" pt_clust_9="13000.00000"></scales>
<clustering>
<clus scale="   90.416">  7  8 -1 -1</clus>
<clus scale="   91.967">  5  6 -1 -1</clus>
<clus scale="  105.139">  2  5  1 -1</clus>
<clus scale="  288.015">  7  9 -1 -1</clus>
<clus scale="  733.595">  1  5  2 -1</clus>
</clustering>
</event>
<event>
 9    1  0.3312826E-006  0.1535980E+03  0.7546771E-02  0.1218319E+00
          1   -1    0    0  502    0 -0.00000000000E+00  0.00000000000E+00  0.51632379301E+03  0.51632379301E+03  0.00000000000E+00 0. -1.
         21   -1    0    0  501  502  0.00000000000E+00 -0.00000000000E+00 -0.33899862817E+02  0.33899862817E+02  0.00000000000E+00 0.  1.
         23    2    1    2    0    0 -0.27565164232E+02  0.68725701520E+00  0.28208904203E+03  0.29778276478E+03  0.91323801751E+02 0.  0.
         23    2    1    2    0    0  0.50753469800E+02 -0.26059782443E+02  0.10210697336E+03  0.14837271239E+03  0.91288557968E+02 0.  0.
        -11    1    3    3    0    0 -0.46798435562E+02  0.31446433783E+02  0.20452575503E+03  0.21215502879E+03  0.00000000000E+00 0. -1.
         11    1    3    3    0    0  0.19233271329E+02 -0.30759176768E+02  0.77563287000E+02  0.85627735996E+02  0.00000000000E+00 0.  1.
        -13    1    4    4    0    0  0.81919888975E+01 -0.22696779722E+02  0.10287969067E+03  0.10567158201E+03  0.00000000000E+00 0. -1.
         13    1    4    4    0    0  0.42561480903E+02 -0.33630027212E+01 -0.77271731031E+00  0.42701130383E+02  0.00000000000E+00 0.  1.
          1    1    1    2  501    0 -0.23188305568E+02  0.25372525428E+02  0.98227914804E+02  0.10406817865E+03  0.00000000000E+00 0. -1.
<scales pt_clust_5="13000.00000" pt_clust_6="13000.00000" pt_clust_7="13000.00000" pt_clust_8="13000.00000" pt_clust_9="13000.00000"></scales>
<clustering>
<clus scale="   91.289">  7  8 -1 -1</clus>
<clus scale="   34.372">  7  9 -1 -1</clus>
<clus scale="   91.324">  5  6 -1 -1</clus>
<clus scale="   95.396">  1  5  2 -1</clus>
<clus scale="  153.598">  2  5  1 -1</clus>
</clustering>
</event>
<event>
 9    1  0.3312826E-006  0.2550219E+03  0.7546771E-02  0.1133140E+00
          3   -1    0    0  502    0 -0.00000000000E+00  0.00000000000E+00  0.20568875090E+03  0.20568875090E+03  0.00000000000E+00 0. -1.
         21   -1    0    0  501  502  0.00000000000E+00 -0.00000000000E+00 -0.21903077937E+03  0.21903077937E+03  0.00000000000E+00 0. -1.
         23    2    1    2    0    0  0.10864277753E+03  0.12073951780E+02  0.65150400073E+02  0.15789144561E+03  0.93467109439E+02 0.  0.
         23    2    1    2    0    0 -0.62038784263E+02 -0.22200647408E+00  0.56029636353E+02  0.12396945965E+03  0.91543687577E+02 0.  0.
        -11    1    3    3    0    0  0.25032024534E+01  0.31360276138E+02 -0.76602845698E+00  0.31469346062E+02  0.00000000000E+00 0.  1.
         11    1    3    3    0    0  0.10613957508E+03 -0.19286324357E+02  0.65916428530E+02  0.12642209955E+03  0.00000000000E+00 0. -1.
        -13    1    4    4    0    0 -0.21833500061E+02 -0.44407578645E+02  0.15796118333E+02  0.51944702525E+02  0.00000000000E+00 0.  1.
         13    1    4    4    0    0 -0.40205284203E+02  0.44185572171E+02  0.40233518020E+02  0.72024757120E+02  0.00000000000E+00 0. -1.
          3    1    1    2  501    0 -0.46603993266E+02 -0.11851945306E+02 -0.13452206490E+03  0.14285862501E+03  0.00000000000E+00 0. -1.
<scales pt_clust_5="13000.00000" pt_clust_6="13000.00000" pt_clust_7="13000.00000" pt_clust_8="13000.00000" pt_clust_9="13000.00000"></scales>
<clustering>
<clus scale="   91.544">  7  8 -1 -1</clus>
<clus scale="   48.087">  7  9 -1 -1</clus>
<clus scale="   93.467">  5  6 -1 -1</clus>
<clus scale="  143.823">  1  5  2 -1</clus>
<clus scale="  255.022">  2  5  1 -1</clus>
</clustering>
</event>
<event>
 9    1  0.3312826E-006  0.2461590E+03  0.7546771E-02  0.1148115E+00
         -1   -1    0    0    0  501 -0.00000000000E+00  0.00000000000E+00  0.80781738724E+03  0.80781738724E+03  0.00000000000E+00 0.  1.
         21   -1    0    0  501  502  0.00000000000E+00 -0.00000000000E+00 -0.39717927902E+02  0.39717927902E+02  0.00000000000E+00 0.  1.
         23    2    1    2    0    0  0.54098423817E+02 -0.37850274212E+02  0.26266360683E+03  0.28534347472E+03  0.89830092351E+02 0.  0.
         23    2    1    2    0    0 -0.10289709393E+00 -0.74452672306E+02  0.16878650785E+03  0.20322074136E+03  0.85244199144E+02 0.  0.
        -11    1    3    3    0    0  0.59737766634E+02  0.10227411155E+02  0.17507136860E+03  0.18526517429E+03  0.00000000000E+00 0. -1.
         11    1    3    3    0    0 -0.56393428172E+01 -0.48077685368E+02  0.87592238239E+02  0.10007830043E+03  0.00000000000E+00 0.  1.
        -13    1    4    4    0    0 -0.31103256083E+02 -0.15982491947E+02  0.10741617563E+03  0.11296498296E+03  0.00000000000E+00 0. -1.
         13    1    4    4    0    0  0.31000358989E+02 -0.58470180358E+02  0.61370332212E+02  0.90255758401E+02  0.00000000000E+00 0.  1.
         -1    1    1    2    0  502 -0.53995526723E+02  0.11230294652E+03  0.33664934466E+03  0.35897109906E+03  0.00000000000E+00 0.  1.
<scales pt_clust_5="13000.00000" pt_clust_6="13000.00000" pt_clust_7="13000.00000" pt_clust_8="13000.00000" pt_clust_9="13000.00000"></scales>
<clustering>
<clus scale="   85.244">  7  8 -1 -1</clus>
<clus scale="   89.830">  5  6 -1 -1</clus>
<clus scale="  111.484">  1  5  2 -1</clus>
<clus scale="   89.624">  7  9 -1 -1</clus>
<clus scale="  246.159">  2  5  1 -1</clus>
</clustering>
</event>
<event>
 9    1  0.3312826E-006  0.2151371E+03  0.7546771E-02  0.1155525E+00
         21   -1    0    0  501  502  0.00000000000E+00  0.00000000000E+00  0.66008263958E+02  0.66008263958E+02  0.00000000000E+00 0.  1.
          1   -1    0    0  502    0 -0.00000000000E+00 -0.00000000000E+00 -0.50171848567E+03  0.50171848567E+03  0.00000000000E+00 0. -1.
         23    2    1    2    0    0 -0.42998280050E+02 -0.93050106316E+02 -0.23422469717E+03  0.27297196772E+03  0.95631124759E+02 0.  0.
         23    2    1    2    0    0  0.37071781832E+00  0.10581292418E+03 -0.20641622329E+03  0.24998525688E+03  0.93211904083E+02 0.  0.
        -13    1    3    3    0    0 -0.25651005923E+02 -0.20372666605E+02 -0.17385037548E+03  0.17690950428E+03  0.00000000000E+00 0. -1.
         13    1    3    3    0    0 -0.17347274127E+02 -0.72677439711E+02 -0.60374321691E+02  0.96062463440E+02  0.00000000000E+00 0.  1.
        -13    1    4    4    0    0 -0.29401972465E+02  0.82412739662E+02 -0.81942220572E+02  0.11987853501E+03  0.00000000000E+00 0.  1.
         13    1    4    4    0    0  0.29772690283E+02  0.23400184514E+02 -0.12447400272E+03  0.13010672187E+03  0.00000000000E+00 0. -1.
          1    1    1    2  501    0  0.42627562232E+02 -0.12762817861E+02  0.49306987505E+01  0.44769525033E+02  0.00000000000E+00 0. -1.
<scales pt_clust_5="13000.00000" pt_clust_6="13000.00000" pt_clust_7="13000.00000" pt_clust_8="13000.00000" pt_clust_9="13000.00000"></scales>
<clustering>
<clus scale="   93.212">  7  8 -1 -1</clus>
<clus scale="   44.497">  7  9 -1 -1</clus>
<clus scale="   95.631">  5  6 -1 -1</clus>
<clus scale="  140.187">  2  5  1 -1</clus>
<clus scale="  215.137">  1  5  2 -1</clus>
</clustering>
</event>
<event>
 9    1  0.3312826E-006  0.2682430E+03  0.7546771E-02  0.1138745E+00
          1   -1    0    0  502    0 -0.00000000000E+00  0.00000000000E+00  0.56471412054E+03  0.56471412054E+03  0.00000000000E+00 0. -1.
         21   -1    0    0  501  502  0.00000000000E+00 -0.00000000000E+00 -0.62672900841E+02  0.62672900841E+02  0.00000000000E+00 0. -1.
         23    2    1    2    0    0 -0.10950477325E+02  0.55692249881E+02  0.15235987173E+03  0.18667018606E+03  0.91709804276E+02 0.  0.
         23    2    1    2    0    0  0.68229061138E+02 -0.53913037155E+02  0.36092752144E+03  0.38231753584E+03  0.91302804555E+02 0.  0.
        -11    1    4    4    0    0  0.64810163513E+02 -0.23621843171E+02  0.33580216613E+03  0.34281400722E+03  0.00000000000E+00 0. -1.
         11    1    4    4    0    0  0.34188976254E+01 -0.30291193984E+02  0.25125355310E+02  0.39503528619E+02  0.00000000000E+00 0.  1.
        -13    1    3    3    0    0  0.38714448100E+02  0.37284580976E+02  0.90245665820E+02  0.10503917683E+03  0.00000000000E+00 0. -1.
         13    1    3    3    0    0 -0.49664925425E+02  0.18407668904E+02  0.62114205905E+02  0.81631009226E+02  0.00000000000E+00 0.  1.
          1    1    1    2  501    0 -0.57278583813E+02 -0.17792127254E+01 -0.11246173472E+02  0.58399299476E+02  0.00000000000E+00 0. -1.
<scales pt_clust_5="13000.00000" pt_clust_6="13000.00000" pt_clust_7="13000.00000" pt_clust_8="13000.00000" pt_clust_9="13000.00000"></scales>
<clustering>
<clus scale="   91.303">  5  6 -1 -1</clus>
<clus scale="   57.306">  5  9 -1 -1</clus>
<clus scale="   91.710">  7  8 -1 -1</clus>
<clus scale="  107.853">  1  7  2 -1</clus>
<clus scale="  268.243">  2  5  1 -1</clus>
</clustering>
</event>
<event>
 9    1  0.3312826E-006  0.2631507E+03  0.7546771E-02  0.1147099E+00
         21   -1    0    0  501  502  0.00000000000E+00  0.00000000000E+00  0.30356170047E+03  0.30356170047E+03  0.00000000000E+00 0. -1.
         -1   -1    0    0    0  501 -0.00000000000E+00 -0.00000000000E+00 -0.16308276373E+03  0.16308276373E+03  0.00000000000E+00 0.  1.
         23    2    1    2    0    0 -0.15069633828E+02 -0.17307869917E+02  0.17778187628E+03  0.20086301947E+03  0.90625056307E+02 0.  0.
         23    2    1    2    0    0 -0.69073665416E+02 -0.77048282734E+02 -0.21076730061E+02  0.13831981041E+03  0.89333824926E+02 0.  0.
        -11    1    3    3    0    0  0.25253693159E+02  0.17838705333E+02  0.11140261216E+03  0.11561362559E+03  0.00000000000E+00 0.  1.
         11    1    3    3    0    0 -0.40323326986E+02 -0.35146575250E+02  0.66379264120E+02  0.85249393875E+02  0.00000000000E+00 0. -1.
        -13    1    4    4    0    0  0.18603639666E+02 -0.20069318288E+02  0.10156469677E+02  0.29189498483E+02  0.00000000000E+00 0.  1.
         13    1    4    4    0    0 -0.87677305082E+02 -0.56978964446E+02 -0.31233199738E+02  0.10913031193E+03  0.00000000000E+00 0. -1.
         -1    1    1    2    0  502  0.84143299244E+02  0.94356152651E+02 -0.16226209475E+02  0.12746163432E+03  0.00000000000E+00 0.  1.
<scales pt_clust_5="13000.00000" pt_clust_6="13000.00000" pt_clust_7="13000.00000" pt_clust_8="13000.00000" pt_clust_9="13000.00000"></scales>
<clustering>
<clus scale="   89.334">  7  8 -1 -1</clus>
<clus scale="   90.625">  5  6 -1 -1</clus>
<clus scale="   93.486">  2  5  1 -1</clus>
<clus scale="  115.546">  7  9 -1 -1</clus>
<clus scale="  263.151">  1  5  2 -1</clus>
</clustering>
</event>
<event>
 9    1  0.3312826E-006  0.3235010E+03  0.7546771E-02  0.1122345E+00
          1   -1    0    0  502    0 -0.00000000000E+00  0.00000000000E+00  0.54423260686E+02  0.54423260686E+02  0.00000000000E+00 0. -1.
         21   -1    0    0  501  502  0.00000000000E+00 -0.00000000000E+00 -0.10608968167E+04  0.10608968167E+04  0.00000000000E+00 0. -1.
         23    2    1    2    0    0  0.47070079840E+01 -0.51805090545E+01 -0.53924536775E+03  0.54702869747E+03  0.91683344280E+02 0.  0.
         23    2    1    2    0    0  0.40521374559E+01 -0.14797958542E+03 -0.25152551272E+03  0.30359838528E+03  0.83621280051E+02 0.  0.
        -13    1    4    4    0    0  0.40133969828E+02 -0.54685492815E+02 -0.78569650225E+02  0.10379994506E+03  0.00000000000E+00 0. -1.
         13    1    4    4    0    0 -0.36081832372E+02 -0.93294092602E+02 -0.17295586250E+03  0.19979844022E+03  0.00000000000E+00 0.  1.
        -13    1    3    3    0    0  0.95899163782E+01  0.42713603155E+02 -0.24974986826E+03  0.25355751830E+03  0.00000000000E+00 0.  1.
         13    1    3    3    0    0 -0.48829083942E+01 -0.47894112210E+02 -0.28949549949E+03  0.29347117917E+03  0.00000000000E+00 0. -1.
          1    1    1    2  501    0 -0.87591454399E+01  0.15316009447E+03 -0.21570267549E+03  0.26469299459E+03  0.00000000000E+00 0. -1.
<scales pt_clust_5="13000.00000" pt_clust_6="13000.00000" pt_clust_7="13000.00000" pt_clust_8="13000.00000" pt_clust_9="13000.00000"></scales>
<clustering>
<clus scale="   83.621">  5  6 -1 -1</clus>
<clus scale="   91.683">  7  8 -1 -1</clus>
<clus scale="   91.950">  1  7  2 -1</clus>
<clus scale="  150.788">  5  9 -1 -1</clus>
<clus scale="  323.501">  2  5  1 -1</clus>
</clustering>
</event>
<event>
 9    1  0.3312826E-006  0.2619971E+03  0.7546771E-02  0.1109841E+00
         -3   -1    0    0    0  501 -0.00000000000E+00  0.00000000000E+00  0.14225494124E+03  0.14225494124E+03  0.00000000000E+00 0.  1.
         21   -1    0    0  501  502  0.00000000000E+00 -0.00000000000E+00 -0.44339537617E+03  0.44339537617E+03  0.00000000000E+00 0. -1.
         23    2    1    2    0    0 -0.20575195806E+03  0.74759519049E+02 -0.11064161817E+03  0.26171780258E+03  0.91278620600E+02 0.  0.
         23    2    1    2    0    0  0.97948276425E+02 -0.22807540672E+02 -0.65423850595E+02  0.15083026473E+03  0.91408094634E+02 0.  0.
        -11    1    3    3    0    0 -0.10680518552E+03  0.33649562682E+02 -0.10642779431E+03  0.15448791578E+03  0.00000000000E+00 0. -1.
         11    1    3    3    0    0 -0.98946772549E+02  0.41109956367E+02 -0.42138238610E+01  0.10722988679E+03  0.00000000000E+00 0.  1.
        -11    1    4    4    0    0  0.11106221955E+03 -0.72771814870E+01 -0.39977942902E+02  0.11826246193E+03  0.00000000000E+00 0.  1.
         11    1    4    4    0    0 -0.13113943128E+02 -0.15530359185E+02 -0.25445907693E+02  0.32567802798E+02  0.00000000000E+00 0. -1.
         -3    1    1    2    0  502  0.10780368164E+03 -0.51951978377E+02 -0.12507496616E+03  0.17310225011E+03  0.00000000000E+00 0.  1.
<scales pt_clust_5="13000.00000" pt_clust_6="13000.00000" pt_clust_7="13000.00000" pt_clust_8="13000.00000" pt_clust_9="13000.00000"></scales>
<clustering>
<clus scale="   91.279">  5  6 -1 -1</clus>
<clus scale="   91.408">  7  8 -1 -1</clus>
<clus scale="  119.669">  7  9 -1 -1</clus>
<clus scale="  237.181">  1  5  2 -1</clus>
<clus scale="  261.997">  2  5  1 -1</clus>
</clustering>
</event>
<event>
 9    1  0.3312826E-006  0.3728373E+03  0.7546771E-02  0.1066527E+00
          1   -1    0    0  502    0 -0.00000000000E+00  0.00000000000E+00  0.15495195332E+04  0.15495195332E+04  0.00000000000E+00 0. -1.
         21   -1    0    0  501  502  0.00000000000E+00 -0.00000000000E+00 -0.10470571843E+03  0.10470571843E+03  0.00000000000E+00 0. -1.
         23    2    1    2    0    0  0.24106759118E+03 -0.21815682610E+01  0.11498273063E+04  0.11788047430E+04  0.96744224224E+02 0.  0.
         23    2    1    2    0    0 -0.28254101351E+03 -0.14088798347E+02  0.30761147391E+03  0.42911544047E+03  0.97402894292E+02 0.  0.
        -11    1    3    3    0    0  0.15066346464E+03 -0.47763884470E+02  0.73484967462E+03  0.75165478281E+03  0.00000000000E+00 0.  1.
         11    1    3    3    0    0  0.90404126546E+02  0.45582316209E+02  0.41497763172E+03  0.42714996017E+03  0.00000000000E+00 0. -1.
        -11    1    4    4    0    0 -0.19062492942E+02 -0.27674883665E+02  0.50980947135E+02  0.61060091662E+02  0.00000000000E+00 0.  1.
         11    1    4    4    0    0 -0.26347852057E+03  0.13586085318E+02  0.25663052678E+03  0.36805534881E+03  0.00000000000E+00 0. -1.
          1    1    1    2  501    0  0.41473422325E+02  0.16270366608E+02 -0.12624965441E+02  0.46305068204E+02  0.00000000000E+00 0. -1.
<scales pt_clust_5="13000.00000" pt_clust_6="13000.00000" pt_clust_7="13000.00000" pt_clust_8="13000.00000" pt_clust_9="13000.00000"></scales>
<clustering>
<clus scale="   96.744">  5  6 -1 -1</clus>
<clus scale="   97.403">  7  8 -1 -1</clus>
<clus scale="   44.551">  7  9 -1 -1</clus>
<clus scale="  259.765">  1  5  2 -1</clus>
<clus scale="  372.837">  2  5  1 -1</clus>
</clustering>
</event>
<event>
 9    1  0.3312826E-006  0.3116410E+03  0.7546771E-02  0.1124524E+00
          2   -1    0    0  502    0 -0.00000000000E+00  0.00000000000E+00  0.17331650808E+03  0.17331650808E+03  0.00000000000E+00 0. -1.
         21   -1    0    0  501  502  0.00000000000E+00 -0.00000000000E+00 -0.24147202714E+03  0.24147202714E+03  0.00000000000E+00 0. -1.
         23    2    1    2    0    0  0.38358872157E+02  0.20266944504E+02 -0.19698333160E+02  0.99402696686E+02  0.87239438710E+02 0.  0.
         23    2    1    2    0    0 -0.18504765131E+02 -0.38546489451E+02  0.11356705745E+03  0.15112938429E+03  0.90079720679E+02 0.  0.
        -11    1    4    4    0    0  0.82467736459E+01  0.26389324384E+02  0.19934146930E+02  0.34084834323E+02  0.00000000000E+00 0.  1.
         11    1    4    4    0    0 -0.26751538777E+02 -0.64935813835E+02  0.93632910519E+02  0.11704454997E+03  0.00000000000E+00 0. -1.
        -11    1    3    3    0    0 -0.68376091334E+01  0.45218081570E+02 -0.73353127837E+01  0.46316677484E+02  0.00000000000E+00 0.  1.
         11    1    3    3    0    0  0.45196481290E+02 -0.24951137066E+02 -0.12363020376E+02  0.53086019202E+02  0.00000000000E+00 0. -1.
          2    1    1    2  501    0 -0.19854107026E+02  0.18279544947E+02 -0.16202424335E+03  0.16425645425E+03  0.00000000000E+00 0. -1.
<scales pt_clust_5="13000.00000" pt_clust_6="13000.00000" pt_clust_7="13000.00000" pt_clust_8="13000.00000" pt_clust_9="13000.00000"></scales>
<clustering>
<clus scale="   87.239">  7  8 -1 -1</clus>
<clus scale="   90.080">  5  6 -1 -1</clus>
<clus scale="   26.988">  5  9 -1 -1</clus>
<clus scale="   97.431">  1  7  2 -1</clus>
<clus scale="  311.641">  2  5  1 -1</clus>
</clustering>
</event>
<event>
 9    1  0.3312826E-006  0.2962234E+03  0.7546771E-02  0.1124194E+00
         21   -1    0    0  501  502  0.00000000000E+00  0.00000000000E+00  0.53887813548E+03  0.53887813548E+03  0.00000000000E+00 0. -1.
          2   -1    0    0  502    0 -0.00000000000E+00 -0.00000000000E+00 -0.83699801968E+02  0.83699801968E+02  0.00000000000E+00 0. -1.
         23    2    1    2    0    0  0.43994732899E+02  0.55924543047E+02  0.61398501375E+02  0.12981951653E+03  0.89555791901E+02 0.  0.
         23    2    1    2    0    0  0.13004619572E+02 -0.29612333444E+02  0.54220130170E+00  0.94541026948E+02  0.88835248476E+02 0.  0.
        -11    1    3    3    0    0  0.13122261320E+02  0.76129461818E+02  0.37626698284E+02  0.85928209120E+02  0.00000000000E+00 0.  1.
         11    1    3    3    0    0  0.30872471578E+02 -0.20204918771E+02  0.23771803091E+02  0.43891307409E+02  0.00000000000E+00 0. -1.
        -13    1    4    4    0    0 -0.24902916654E+02  0.20108110432E+02 -0.43266252705E+00  0.32010600742E+02  0.00000000000E+00 0.  1.
         13    1    4    4    0    0  0.37907536226E+02 -0.49720443876E+02  0.97486382875E+00  0.62530426205E+02  0.00000000000E+00 0. -1.
          2    1    1    2  501    0 -0.56999352470E+02 -0.26312209603E+02  0.39323763084E+03  0.39821739398E+03  0.00000000000E+00 0. -1.
<scales pt_clust_5="13000.00000" pt_clust_6="13000.00000" pt_clust_7="13000.00000" pt_clust_8="13000.00000" pt_clust_9="13000.00000"></scales>
<clustering>
<clus scale="   88.835">  7  8 -1 -1</clus>
<clus scale="   62.779">  7  9 -1 -1</clus>
<clus scale="   89.556">  5  6 -1 -1</clus>
<clus scale="  114.382">  2  5  1 -1</clus>
<clus scale="  296.223">  1  5  2 -1</clus>
</clustering>
</event>
<event>
 9    1  0.3312826E-006  0.1814431E+03  0.7546771E-02  0.1188997E+00
          1   -1    0    0  502    0 -0.00000000000E+00  0.00000000000E+00  0.24018613253E+03  0.24018613253E+03  0.00000000000E+00 0. -1.
         21   -1    0    0  501  502  0.00000000000E+00 -0.00000000000E+00 -0.10185739483E+03  0.10185739483E+03  0.00000000000E+00 0. -1.
         23    2    1    2    0    0 -0.61939151154E+02 -0.19299010173E+02  0.11610839531E+03  0.15924491315E+03  0.87572099806E+02 0.  0.
         23    2    1    2    0    0 -0.11870123582E+02 -0.82149260630E+01  0.43119548227E+02  0.10130258652E+03  0.90523664044E+02 0.  0.
        -11    1    3    3    0    0  0.12136453586E+02 -0.23869954867E+02  0.76952572273E+01  0.27861895750E+02  0.00000000000E+00 0.  1.
         11    1    3    3    0    0 -0.74075604741E+02  0.45709446934E+01  0.10841313808E+03  0.13138301740E+03  0.00000000000E+00 0. -1.
        -13    1    4    4    0    0  0.27052994657E+02  0.27668311113E+02  0.19521383113E+02  0.43341485420E+02  0.00000000000E+00 0.  1.
         13    1    4    4    0    0 -0.38923118239E+02 -0.35883237176E+02  0.23598165114E+02  0.57961101098E+02  0.00000000000E+00 0. -1.
          1    1    1    2  501    0  0.73809274737E+02  0.27513936236E+02 -0.20899205832E+02  0.81496027687E+02  0.00000000000E+00 0. -1.
<scales pt_clust_5="13000.00000" pt_clust_6="13000.00000" pt_clust_7="13000.00000" pt_clust_8="13000.00000" pt_clust_9="13000.00000"></scales>
<clustering>
<clus scale="   87.572">  5  6 -1 -1</clus>
<clus scale="   90.524">  7  8 -1 -1</clus>
<clus scale="   78.771">  7  9 -1 -1</clus>
<clus scale="  108.985">  1  5  2 -1</clus>
<clus scale="  181.443">  2  5  1 -1</clus>
</clustering>
</event>
<event>
 9    1  0.3312826E-006  0.1339677E+03  0.7546771E-02  0.1238211E+00
         -1   -1    0    0    0  501 -0.00000000000E+00  0.00000000000E+00  0.24729639290E+03  0.24729639290E+03  0.00000000000E+00 0.  1.
         21   -1    0    0  501  502  0.00000000000E+00 -0.00000000000E+00 -0.83555471895E+02  0.83555471895E+02  0.00000000000E+00 0.  1.
         23    2    1    2    0    0 -0.13246140477E+02 -0.25076366849E+02  0.17202836945E+03  0.19662809229E+03  0.90909638474E+02 0.  0.
         23    2    1    2    0    0 -0.12853377011E+02  0.72503903251E+01  0.17271418171E+02  0.93576436623E+02  0.90777035340E+02 0.  0.
        -11    1    4    4    0    0  0.29581796995E+02  0.91123259733E+01  0.35721252986E+02  0.47266532694E+02  0.00000000000E+00 0. -1.
         11    1    4    4    0    0 -0.42435174005E+02 -0.18619356482E+01 -0.18449834815E+02  0.46309903929E+02  0.00000000000E+00 0.  1.
        -11    1    3    3    0    0 -0.33966669865E+02 -0.51342123313E+02  0.11764647356E+03  0.13277967099E+03  0.00000000000E+00 0.  1.
         11    1    3    3    0    0  0.20720529387E+02  0.26265756464E+02  0.54381895899E+02  0.63848421298E+02  0.00000000000E+00 0. -1.
         -1    1    1    2    0  502  0.26099517488E+02  0.17825976524E+02 -0.25558866615E+02  0.40647335888E+02  0.00000000000E+00 0.  1.
<scales pt_clust_5="13000.00000" pt_clust_6="13000.00000" pt_clust_7="13000.00000" pt_clust_8="13000.00000" pt_clust_9="13000.00000"></scales>
<clustering>
<clus scale="   90.777">  5  6 -1 -1</clus>
<clus scale="   31.606">  5  9 -1 -1</clus>
<clus scale="   90.910">  7  8 -1 -1</clus>
<clus scale="   95.230">  1  7  2 -1</clus>
<clus scale="  133.968">  2  5  1 -1</clus>
</clustering>
</event>
<event>
 9    1  0.3312826E-006  0.2030486E+03  0.7546771E-02  0.1176014E+00
         21   -1    0    0  501  502  0.00000000000E+00  0.00000000000E+00  0.20268245111E+03  0.20268245111E+03  0.00000000000E+00 0. -1.
         -1   -1    0    0    0  501 -0.00000000000E+00 -0.00000000000E+00 -0.15514283656E+03  0.15514283656E+03  0.00000000000E+00 0.  1.
         23    2    1    2    0    0  0.49155360502E+02 -0.83227558321E+01 -0.67958031075E+02  0.12422643094E+03  0.91260037398E+02 0.  0.
         23    2    1    2    0    0 -0.45756739239E+00 -0.61471330488E+02  0.97601052258E+02  0.14663347516E+03  0.90534395649E+02 0.  0.
        -11    1    4    4    0    0  0.22479630108E+02 -0.27589935854E+02  0.99501093462E+02  0.10567405514E+03  0.00000000000E+00 0. -1.
         11    1    4    4    0    0 -0.22937197500E+02 -0.33881394634E+02 -0.19000412041E+01  0.40959420016E+02  0.00000000000E+00 0.  1.
        -11    1    3    3    0    0 -0.14038581780E+02  0.17720942020E+02  0.61315746421E+01  0.23424554895E+02  0.00000000000E+00 0.  1.
         11    1    3    3    0    0  0.63193942282E+02 -0.26043697852E+02 -0.74089605717E+02  0.10080187604E+03  0.00000000000E+00 0. -1.
         -1    1    1    2    0  502 -0.48697793110E+02  0.69794086320E+02  0.17896593367E+02  0.86965381578E+02  0.00000000000E+00 0.  1.
<scales pt_clust_5="13000.00000" pt_clust_6="13000.00000" pt_clust_7="13000.00000" pt_clust_8="13000.00000" pt_clust_9="13000.00000"></scales>
<clustering>
<clus scale="   90.534">  5  6 -1 -1</clus>
<clus scale="   85.104">  5  9 -1 -1</clus>
<clus scale="   91.260">  7  8 -1 -1</clus>
<clus scale="  103.990">  2  7  1 -1</clus>
<clus scale="  203.049">  1  5  2 -1</clus>
</clustering>
</event>
<event>
 9    1  0.3312826E-006  0.2366358E+03  0.7546771E-02  0.1148718E+00
         21   -1    0    0  501  502  0.00000000000E+00  0.00000000000E+00  0.43828039956E+02  0.43828039956E+02  0.00000000000E+00 0. -1.
          1   -1    0    0  502    0 -0.00000000000E+00 -0.00000000000E+00 -0.75909968141E+03  0.75909968141E+03  0.00000000000E+00 0. -1.
         23    2    1    2    0    0 -0.84488836755E+02  0.75349922308E+01 -0.30777181928E+03  0.33170311833E+03  0.90046245478E+02 0.  0.
         23    2    1    2    0    0 -0.23524941374E+02  0.51930101041E+02 -0.24185671270E+03  0.26472832390E+03  0.91303109102E+02 0.  0.
        -11    1    3    3    0    0 -0.99223371871E+01 -0.21608521454E+02 -0.14841475471E+02  0.28029455379E+02  0.00000000000E+00 0.  1.
         11    1    3    3    0    0 -0.74566499568E+02  0.29143513685E+02 -0.29293034381E+03  0.30367366295E+03  0.00000000000E+00 0. -1.
        -11    1    4    4    0    0  0.14241011322E+02  0.64828068092E+02 -0.17060724842E+03  0.18306369937E+03  0.00000000000E+00 0.  1.
         11    1    4    4    0    0 -0.37765952696E+02 -0.12897967051E+02 -0.71249464289E+02  0.81664624524E+02  0.00000000000E+00 0. -1.
          1    1    1    2  501    0  0.10801377813E+03 -0.59465093272E+02 -0.16564310947E+03  0.20649627914E+03  0.00000000000E+00 0. -1.
<scales pt_clust_5="13000.00000" pt_clust_6="13000.00000" pt_clust_7="13000.00000" pt_clust_8="13000.00000" pt_clust_9="13000.00000"></scales>
<clustering>
<clus scale="   90.046">  5  6 -1 -1</clus>
<clus scale="   91.303">  7  8 -1 -1</clus>
<clus scale="  123.301">  7  9 -1 -1</clus>
<clus scale="  123.707">  2  5  1 -1</clus>
<clus scale="  236.636">  1  5  2 -1</clus>
</clustering>
</event>
<event>
 9    1  0.3312826E-006  0.6361278E+03  0.7546771E-02  0.1043192E+00
         -1   -1    0    0    0  501 -0.00000000000E+00  0.00000000000E+00  0.12441636394E+03  0.12441636394E+03  0.00000000000E+00 0.  1.
         21   -1    0    0  501  502  0.00000000000E+00 -0.00000000000E+00 -0.11187605230E+04  0.11187605230E+04  0.00000000000E+00 0.  1.
         23    2    1    2    0    0  0.33396196577E+02 -0.28926565384E+02 -0.78283622193E+02  0.12790763763E+03  0.90994429111E+02 0.  0.
         23    2    1    2    0    0 -0.14609560966E+03 -0.64026644622E+02  0.43421777188E+01  0.18334510327E+03  0.90295260132E+02 0.  0.
        -11    1    3    3    0    0  0.59927537886E+02 -0.91390091398E+01 -0.25850470362E+02  0.65902034134E+02  0.00000000000E+00 0. -1.
         11    1    3    3    0    0 -0.26531341309E+02 -0.19787556245E+02 -0.52433151831E+02  0.62005603494E+02  0.00000000000E+00 0.  1.
        -13    1    4    4    0    0 -0.10322053622E+03 -0.13536058068E+02  0.35704483588E+02  0.11005686764E+03  0.00000000000E+00 0.  1.
         13    1    4    4    0    0 -0.42875073444E+02 -0.50490586554E+02 -0.31362305869E+02  0.73288235637E+02  0.00000000000E+00 0. -1.
         -1    1    1    2    0  502  0.11269941309E+03  0.92953210006E+02 -0.92040271455E+03  0.93192414601E+03  0.00000000000E+00 0.  1.
<scales pt_clust_5="13000.00000" pt_clust_6="13000.00000" pt_clust_7="13000.00000" pt_clust_8="13000.00000" pt_clust_9="13000.00000"></scales>
<clustering>
<clus scale="   90.295">  7  8 -1 -1</clus>
<clus scale="   90.994">  5  6 -1 -1</clus>
<clus scale="  101.154">  1  5  2 -1</clus>
<clus scale="  146.534">  7  9 -1 -1</clus>
<clus scale="  636.128">  2  5  1 -1</clus>
</clustering>
</event>
<event>
 9    1  0.3312826E-006  0.2422214E+03  0.7546771E-02  0.1138334E+00
         -1   -1    0    0    0  501 -0.00000000000E+00  0.00000000000E+00  0.25348575552E+03  0.25348575552E+03  0.00000000000E+00 0.  1.
         21   -1    0    0  501  502  0.00000000000E+00 -0.00000000000E+00 -0.15360180918E+03  0.15360180918E+03  0.00000000000E+00 0. -1.
         23    2    1    2    0    0 -0.10491036619E+03 -0.52167739927E+02  0.67832361990E+02  0.16275474665E+03  0.90333937143E+02 0.  0.
         23    2    1    2    0    0 -0.28405160585E+02 -0.29624531513E+01  0.16057818280E+02  0.99184037760E+02  0.93616187392E+02 0.  0.
        -11    1    4    4    0    0  0.14727987873E+02  0.31768876350E+02 -0.12112782118E+02  0.37052592648E+02  0.00000000000E+00 0.  1.
         11    1    4    4    0    0 -0.43133148458E+02 -0.34731329501E+02  0.28170600398E+02  0.62131445111E+02  0.00000000000E+00 0. -1.
        -13    1    3    3    0    0 -0.97337128763E+02 -0.19867910165E+02  0.15144176640E+02  0.10049177367E+03  0.00000000000E+00 0. -1.
         13    1    3    3    0    0 -0.75732374249E+01 -0.32299829763E+02  0.52688185350E+02  0.62262972972E+02  0.00000000000E+00 0.  1.
         -1    1    1    2    0  502  0.13331552677E+03  0.55130193079E+02  0.15993766062E+02  0.14514878029E+03  0.00000000000E+00 0.  1.
<scales pt_clust_5="13000.00000" pt_clust_6="13000.00000" pt_clust_7="13000.00000" pt_clust_8="13000.00000" pt_clust_9="13000.00000"></scales>
<clustering>
<clus scale="   90.334">  7  8 -1 -1</clus>
<clus scale="   93.616">  5  6 -1 -1</clus>
<clus scale="  144.265">  5  9 -1 -1</clus>
<clus scale="  147.946">  1  7  2 -1</clus>
<clus scale="  242.221">  2  5  1 -1</clus>
</clustering>
</event>
<event>
 9    1  0.3312826E-006  0.1702393E+03  0.7546771E-02  0.1196860E+00
         21   -1    0    0  501  502  0.00000000000E+00  0.00000000000E+00  0.10417630543E+03  0.10417630543E+03  0.00000000000E+00 0. -1.
          3   -1    0    0  502    0 -0.00000000000E+00 -0.00000000000E+00 -0.22135586511E+03  0.22135586511E+03  0.00000000000E+00 0. -1.
         23    2    1    2    0    0 -0.40266414163E+02  0.91401556255E+01 -0.10826603629E+03  0.15505969343E+03  0.10303905743E+03 0.  0.
         23    2    1    2    0    0 -0.17808282552E+02  0.28093742026E+01 -0.44192357991E+02  0.10147930476E+03  0.89554772504E+02 0.  0.
        -11    1    3    3    0    0 -0.28593650735E+02 -0.26658016335E+02 -0.11062848160E+03  0.11733246626E+03  0.00000000000E+00 0. -1.
         11    1    3    3    0    0 -0.11672763428E+02  0.35798171960E+02  0.23624453104E+01  0.37727227165E+02  0.00000000000E+00 0.  1.
        -13    1    4    4    0    0 -0.19125426707E+02 -0.41153805301E+02 -0.32952779369E+02  0.56083003714E+02  0.00000000000E+00 0.  1.
         13    1    4    4    0    0  0.13171441547E+01  0.43963179504E+02 -0.11239578623E+02  0.45396301043E+02  0.00000000000E+00 0. -1.
          3    1    1    2  501    0  0.58074696715E+02 -0.11949529828E+02  0.35278834606E+02  0.68993172364E+02  0.00000000000E+00 0. -1.
<scales pt_clust_5="13000.00000" pt_clust_6="13000.00000" pt_clust_7="13000.00000" pt_clust_8="13000.00000" pt_clust_9="13000.00000"></scales>
<clustering>
<clus scale="   89.555">  7  8 -1 -1</clus>
<clus scale="   59.291">  7  9 -1 -1</clus>
<clus scale="  103.039">  5  6 -1 -1</clus>
<clus scale="  111.004">  2  5  1 -1</clus>
<clus scale="  170.239">  1  5  2 -1</clus>
</clustering>
</event>
<event>
 9    1  0.3312826E-006  0.1752455E+03  0.7546771E-02  0.1181441E+00
         21   -1    0    0  501  502  0.00000000000E+00  0.00000000000E+00  0.52600271498E+02  0.52600271498E+02  0.00000000000E+00 0. -1.
          1   -1    0    0  502    0 -0.00000000000E+00 -0.00000000000E+00 -0.55256558281E+03  0.55256558281E+03  0.00000000000E+00 0. -1.
         23    2    1    2    0    0  0.85353183997E+02  0.67815750639E+02 -0.33581516811E+03  0.36504868801E+03  0.92760850739E+02 0.  0.
         23    2    1    2    0    0 -0.29495928837E+02 -0.57922826485E+02 -0.12965594728E+03  0.17372625988E+03  0.95629938111E+02 0.  0.
        -11    1    4    4    0    0  0.32642779641E+02 -0.11558740182E+02 -0.61112665919E+02  0.70241821395E+02  0.00000000000E+00 0. -1.
         11    1    4    4    0    0 -0.62138708477E+02 -0.46364086304E+02 -0.68543281356E+02  0.10348443849E+03  0.00000000000E+00 0.  1.
        -13    1    3    3    0    0 -0.26520482377E+01  0.48801264731E+02 -0.78866599240E+02  0.92782203438E+02  0.00000000000E+00 0. -1.
         13    1    3    3    0    0  0.88005232235E+02  0.19014485908E+02 -0.25694856887E+03  0.27226648457E+03  0.00000000000E+00 0.  1.
          1    1    1    2  501    0 -0.55857255160E+02 -0.98929241533E+01 -0.34494195928E+02  0.66390906418E+02  0.00000000000E+00 0. -1.
<scales pt_clust_5="13000.00000" pt_clust_6="13000.00000" pt_clust_7="13000.00000" pt_clust_8="13000.00000" pt_clust_9="13000.00000"></scales>
<clustering>
<clus scale="   92.761">  7  8 -1 -1</clus>
<clus scale="   95.630">  5  6 -1 -1</clus>
<clus scale="   56.727">  5  9 -1 -1</clus>
<clus scale="  143.139">  2  7  1 -1</clus>
<clus scale="  175.245">  1  5  2 -1</clus>
</clustering>
</event>
<event>
 9    1  0.3312826E-006  0.1821099E+03  0.7546771E-02  0.1185534E+00
          2   -1    0    0  502    0 -0.00000000000E+00  0.00000000000E+00  0.58985962603E+03  0.58985962603E+03  0.00000000000E+00 0. -1.
         21   -1    0    0  501  502  0.00000000000E+00 -0.00000000000E+00 -0.46759835022E+03  0.46759835022E+03  0.00000000000E+00 0. -1.
         23    2    1    2    0    0  0.70484530837E+02  0.18284366541E+02  0.56597753575E+03  0.57782465158E+03  0.90820536512E+02 0.  0.
         23    2    1    2    0    0  0.15734620978E+02 -0.22858226499E+01 -0.19599736660E+03  0.21685138910E+03  0.91415282950E+02 0.  0.
        -13    1    3    3    0    0  0.92676229031E+02  0.13128421625E+02  0.45971714629E+03  0.46914932961E+03  0.00000000000E+00 0. -1.
         13    1    3    3    0    0 -0.22191698194E+02  0.51559449162E+01  0.10626038946E+03  0.10867532196E+03  0.00000000000E+00 0.  1.
        -13    1    4    4    0    0  0.42053708942E+02 -0.23649531217E+02 -0.16122707736E+03  0.16829137006E+03  0.00000000000E+00 0. -1.
         13    1    4    4    0    0 -0.26319087964E+02  0.21363708567E+02 -0.34770289236E+02  0.48560019033E+02  0.00000000000E+00 0.  1.
          2    1    1    2  501    0 -0.86219151816E+02 -0.15998543891E+02 -0.24771889334E+03  0.26278193557E+03  0.00000000000E+00 0. -1.
<scales pt_clust_5="13000.00000" pt_clust_6="13000.00000" pt_clust_7="13000.00000" pt_clust_8="13000.00000" pt_clust_9="13000.00000"></scales>
<clustering>
<clus scale="   90.821">  5  6 -1 -1</clus>
<clus scale="   91.415">  7  8 -1 -1</clus>
<clus scale="   87.691">  7  9 -1 -1</clus>
<clus scale="  116.408">  1  5  2 -1</clus>
<clus scale="  182.110">  2  5  1 -1</clus>
</clustering>
</event>
<event>
 9    1  0.3312826E-006  0.8491430E+03  0.7546771E-02  0.9963831E-01
         21   -1    0    0  501  502  0.00000000000E+00  0.00000000000E+00  0.10104076285E+04  0.10104076285E+04  0.00000000000E+00 0. -1.
          2   -1    0    0  502    0 -0.00000000000E+00 -0.00000000000E+00 -0.73368406054E+03  0.73368406054E+03  0.00000000000E+00 0. -1.
         23    2    1    2    0    0 -0.73437408551E+01  0.15085487051E+03 -0.53883065670E+03  0.56673337090E+03  0.89649955953E+02 0.  0.
         23    2    1    2    0    0 -0.21466855684E+02 -0.38185677507E+03  0.73741419755E+02  0.39987637758E+03  0.90487003476E+02 0.  0.
        -11    1    3    3    0    0  0.36751527017E+02  0.10345843411E+03 -0.30737654116E+03  0.32639647728E+03  0.00000000000E+00 0.  1.
         11    1    3    3    0    0 -0.44095267872E+02  0.47396436398E+02 -0.23145411554E+03  0.24033689362E+03  0.00000000000E+00 0. -1.
        -13    1    4    4    0    0 -0.24342878564E+02 -0.16606832558E+03 -0.10590059508E+02  0.16817673400E+03  0.00000000000E+00 0.  1.
         13    1    4    4    0    0  0.28760228797E+01 -0.21578844949E+03  0.84331479263E+02  0.23169964358E+03  0.00000000000E+00 0. -1.
          2    1    1    2  501    0  0.28810596539E+02  0.23100190456E+03  0.74181280489E+03  0.77748194055E+03  0.00000000000E+00 0. -1.
<scales pt_clust_5="13000.00000" pt_clust_6="13000.00000" pt_clust_7="13000.00000" pt_clust_8="13000.00000" pt_clust_9="13000.00000"></scales>
<clustering>
<clus scale="   89.650">  5  6 -1 -1</clus>
<clus scale="   90.487">  7  8 -1 -1</clus>
<clus scale="  175.637">  2  5  1 -1</clus>
<clus scale="  247.473">  7  9 -1 -1</clus>
<clus scale="  849.143">  1  5  2 -1</clus>
</clustering>
</event>
<event>
 9    1  0.3312826E-006  0.1774379E+03  0.7546771E-02  0.1191839E+00
         21   -1    0    0  501  502  0.00000000000E+00  0.00000000000E+00  0.92464626250E+02  0.92464626250E+02  0.00000000000E+00 0.  1.
          1   -1    0    0  502    0 -0.00000000000E+00 -0.00000000000E+00 -0.55222984530E+03  0.55222984530E+03  0.00000000000E+00 0. -1.
         23    2    1    2    0    0 -0.37447977002E+00 -0.59558075653E+02 -0.45416695921E+03  0.46716824459E+03  0.91821769206E+02 0.  0.
         23    2    1    2    0    0 -0.25935816035E+02 -0.79056143970E+01 -0.34380870789E+02  0.99603060741E+02  0.89462618676E+02 0.  0.
        -11    1    4    4    0    0 -0.13476723935E+01 -0.23556949581E+02 -0.57659831588E+02  0.62300901063E+02  0.00000000000E+00 0. -1.
         11    1    4    4    0    0 -0.24588143642E+02  0.15651335184E+02  0.23278960799E+02  0.37302159678E+02  0.00000000000E+00 0.  1.
        -13    1    3    3    0    0  0.41438845832E+02 -0.50817083730E+02 -0.30714634393E+03  0.31406755727E+03  0.00000000000E+00 0. -1.
         13    1    3    3    0    0 -0.41813325602E+02 -0.87409919226E+01 -0.14702061528E+03  0.15310068731E+03  0.00000000000E+00 0.  1.
          1    1    1    2  501    0  0.26310295805E+02  0.67463690050E+02  0.28782610952E+02  0.77923166220E+02  0.00000000000E+00 0. -1.
<scales pt_clust_5="13000.00000" pt_clust_6="13000.00000" pt_clust_7="13000.00000" pt_clust_8="13000.00000" pt_clust_9="13000.00000"></scales>
<clustering>
<clus scale="   89.463">  5  6 -1 -1</clus>
<clus scale="   72.413">  5  9 -1 -1</clus>
<clus scale="   91.822">  7  8 -1 -1</clus>
<clus scale="  109.447">  2  7  1 -1</clus>
<clus scale="  177.438">  1  5  2 -1</clus>
</clustering>
</event>
<event>
 9    1  0.3312826E-006  0.1756465E+03  0.7546771E-02  0.1197077E+00
         -2   -1    0    0    0  501 -0.00000000000E+00  0.00000000000E+00  0.81892827334E+02  0.81892827334E+02  0.00000000000E+00 0.  1.
         21   -1    0    0  501  502  0.00000000000E+00 -0.00000000000E+00 -0.31673675807E+03  0.31673675807E+03  0.00000000000E+00 0. -1.
         23    2    1    2    0    0 -0.29086101578E+02 -0.32683610915E+02  0.57385841347E+01  0.10075104892E+03  0.90573852640E+02 0.  0.
         23    2    1    2    0    0  0.50368277170E+02  0.45592997671E+02 -0.24319935080E+03  0.27284993096E+03  0.10337057520E+03 0.  0.
        -11    1    3    3    0    0 -0.35991827820E+02  0.24055636230E+02  0.50947921050E+01  0.43589473624E+02  0.00000000000E+00 0. -1.
         11    1    3    3    0    0  0.69057262418E+01 -0.56739247145E+02  0.64379202978E+00  0.57161575291E+02  0.00000000000E+00 0.  1.
        -13    1    4    4    0    0  0.27299803754E+02  0.60152195096E+02 -0.23537878973E+03  0.24447237168E+03  0.00000000000E+00 0. -1.
         13    1    4    4    0    0  0.23068473416E+02 -0.14559197425E+02 -0.78205610651E+01  0.28377559281E+02  0.00000000000E+00 0.  1.
         -2    1    1    2    0  502 -0.21282175592E+02 -0.12909386756E+02  0.26168359256E+01  0.25028605527E+02  0.00000000000E+00 0.  1.
<scales pt_clust_5="13000.00000" pt_clust_6="13000.00000" pt_clust_7="13000.00000" pt_clust_8="13000.00000" pt_clust_9="13000.00000"></scales>
<clustering>
<clus scale="   90.574">  5  6 -1 -1</clus>
<clus scale="  100.587">  1  5  2 -1</clus>
<clus scale="  103.371">  7  8 -1 -1</clus>
<clus scale="   45.494">  7  9 -1 -1</clus>
<clus scale="  175.646">  2  5  1 -1</clus>
</clustering>
</event>
<event>
 9    1  0.3312826E-006  0.3603545E+03  0.7546771E-02  0.1108283E+00
         21   -1    0    0  501  502  0.00000000000E+00  0.00000000000E+00  0.85546700493E+02  0.85546700493E+02  0.00000000000E+00 0. -1.
          1   -1    0    0  502    0 -0.00000000000E+00 -0.00000000000E+00 -0.63937223640E+03  0.63937223640E+03  0.00000000000E+00 0. -1.
         23    2    1    2    0    0 -0.17532323998E+02  0.53353225365E+01 -0.19257554230E+03  0.21466712515E+03  0.93063349788E+02 0.  0.
         23    2    1    2    0    0 -0.18191190513E+02 -0.16527366728E+03 -0.24095606250E+03  0.30696119841E+03  0.92298693196E+02 0.  0.
        -11    1    3    3    0    0 -0.32640942149E+02  0.38342105515E+02 -0.66157921886E+02  0.83140957343E+02  0.00000000000E+00 0. -1.
         11    1    3    3    0    0  0.15108618151E+02 -0.33006782978E+02 -0.12641762042E+03  0.13152616780E+03  0.00000000000E+00 0.  1.
        -13    1    4    4    0    0  0.13008984168E+02 -0.12719480754E+03 -0.21780545150E+03  0.25256081928E+03  0.00000000000E+00 0. -1.
         13    1    4    4    0    0 -0.31200174681E+02 -0.38078859744E+02 -0.23150610996E+02  0.54400379126E+02  0.00000000000E+00 0.  1.
          1    1    1    2  501    0  0.35723514510E+02  0.15993834475E+03 -0.12029393110E+03  0.20329061333E+03  0.00000000000E+00 0. -1.
<scales pt_clust_5="13000.00000" pt_clust_6="13000.00000" pt_clust_7="13000.00000" pt_clust_8="13000.00000" pt_clust_9="13000.00000"></scales>
<clustering>
<clus scale="   92.299">  7  8 -1 -1</clus>
<clus scale="   93.063">  5  6 -1 -1</clus>
<clus scale="   94.851">  2  5  1 -1</clus>
<clus scale="  164.534">  7  9 -1 -1</clus>
<clus scale="  360.354">  1  5  2 -1</clus>
</clustering>
</event>
<event>
 9    1  0.3312826E-006  0.1603277E+03  0.7546771E-02  0.1201015E+00
         21   -1    0    0  501  502  0.00000000000E+00  0.00000000000E+00  0.48765261112E+03  0.48765261112E+03  0.00000000000E+00 0. -1.
         -1   -1    0    0    0  501 -0.00000000000E+00 -0.00000000000E+00 -0.17050787834E+03  0.17050787834E+03  0.00000000000E+00 0.  1.
         23    2    1    2    0    0  0.41680556854E+02 -0.68084629339E+02 -0.13314237381E+03  0.18018199277E+03  0.91465147692E+02 0.  0.
         23    2    1    2    0    0 -0.24455725469E+02  0.29775084962E+02  0.18872164166E+03  0.21306189010E+03  0.91076192212E+02 0.  0.
        -11    1    4    4    0    0 -0.49693759394E+02 -0.77392339205E+01  0.71444388779E+02  0.87370854135E+02  0.00000000000E+00 0.  1.
         11    1    4    4    0    0  0.25238033924E+02  0.37514318882E+02  0.11727725288E+03  0.12569103596E+03  0.00000000000E+00 0. -1.
        -11    1    3    3    0    0 -0.17120053060E+01 -0.47450147131E+02 -0.12192084947E+03  0.13084013513E+03  0.00000000000E+00 0.  1.
         11    1    3    3    0    0  0.43392562160E+02 -0.20634482209E+02 -0.11221524339E+02  0.49341857639E+02  0.00000000000E+00 0. -1.
         -1    1    1    2    0  502 -0.17224831385E+02  0.38309544378E+02  0.26156546493E+03  0.26491660659E+03  0.00000000000E+00 0.  1.
<scales pt_clust_5="13000.00000" pt_clust_6="13000.00000" pt_clust_7="13000.00000" pt_clust_8="13000.00000" pt_clust_9="13000.00000"></scales>
<clustering>
<clus scale="   91.076">  5  6 -1 -1</clus>
<clus scale="   42.004">  5  9 -1 -1</clus>
<clus scale="   91.465">  7  8 -1 -1</clus>
<clus scale="  121.403">  2  7  1 -1</clus>
<clus scale="  160.328">  1  5  2 -1</clus>
</clustering>
</event>
<event>
 9    1  0.3312826E-006  0.1527794E+03  0.7546771E-02  0.1225740E+00
         -2   -1    0    0    0  501 -0.00000000000E+00  0.00000000000E+00  0.31523896174E+03  0.31523896174E+03  0.00000000000E+00 0.  1.
         21   -1    0    0  501  502  0.00000000000E+00 -0.00000000000E+00 -0.44618541309E+02  0.44618541309E+02  0.00000000000E+00 0.  1.
         23    2    1    2    0    0  0.27201086061E+01 -0.16559990623E+02  0.11453627465E+03  0.14144546332E+03  0.81281170033E+02 0.  0.
         23    2    1    2    0    0  0.70633727001E+01 -0.21736799176E+02  0.15078558655E+03  0.17853177713E+03  0.92816607674E+02 0.  0.
        -11    1    3    3    0    0  0.27273357955E+02 -0.24869308727E+02  0.10880953597E+03  0.11489923276E+03  0.00000000000E+00 0. -1.
         11    1    3    3    0    0 -0.24553249349E+02  0.83093181041E+01  0.57267386809E+01  0.26546230558E+02  0.00000000000E+00 0.  1.
        -13    1    4    4    0    0  0.10720135361E+02 -0.43341597456E+02  0.15011014053E+03  0.15660928983E+03  0.00000000000E+00 0.  1.
         13    1    4    4    0    0 -0.36567626606E+01  0.21604798280E+02  0.67544602350E+00  0.21922487295E+02  0.00000000000E+00 0. -1.
         -2    1    1    2    0  502 -0.97834813062E+01  0.38296789799E+02  0.52985592264E+01  0.39880262603E+02  0.00000000000E+00 0.  1.
<scales pt_clust_5="13000.00000" pt_clust_6="13000.00000" pt_clust_7="13000.00000" pt_clust_8="13000.00000" pt_clust_9="13000.00000"></scales>
<clustering>
<clus scale="   81.281">  5  6 -1 -1</clus>
<clus scale="   82.996">  1  5  2 -1</clus>
<clus scale="   92.817">  7  8 -1 -1</clus>
<clus scale="   37.510">  7  9 -1 -1</clus>
<clus scale="  152.779">  2  5  1 -1</clus>
</clustering>
</event>
<event>
 9    1  0.3312826E-006  0.2386652E+03  0.7546771E-02  0.1137521E+00
         21   -1    0    0  501  502  0.00000000000E+00  0.00000000000E+00  0.11763389044E+04  0.11763389044E+04  0.00000000000E+00 0.  1.
         -3   -1    0    0    0  501 -0.00000000000E+00 -0.00000000000E+00 -0.11103161951E+03  0.11103161951E+03  0.00000000000E+00 0.  1.
         23    2    1    2    0    0  0.97842474746E+02  0.82913170754E+02 -0.34923947392E+02  0.16155089288E+03  0.91821920796E+02 0.  0.
         23    2    1    2    0    0  0.28704042389E+02 -0.20565397844E+02  0.45314638661E+03  0.46353565622E+03  0.90976916032E+02 0.  0.
        -11    1    3    3    0    0  0.11590386050E+03  0.74140282423E+02 -0.28937840638E+02  0.14059831072E+03  0.00000000000E+00 0.  1.
         11    1    3    3    0    0 -0.18061385753E+02  0.87728883302E+01 -0.59861067540E+01  0.20952582157E+02  0.00000000000E+00 0. -1.
        -13    1    4    4    0    0  0.12289445113E+02  0.35790583751E+02  0.14555388466E+03  0.15039258521E+03  0.00000000000E+00 0. -1.
         13    1    4    4    0    0  0.16414597277E+02 -0.56355981595E+02  0.30759250196E+03  0.31314307102E+03  0.00000000000E+00 0.  1.
         -3    1    1    2    0  502 -0.12654651714E+03 -0.62347772910E+02  0.64708484564E+03  0.66228397477E+03  0.00000000000E+00 0.  1.
<scales pt_clust_5="13000.00000" pt_clust_6="13000.00000" pt_clust_7="13000.00000" pt_clust_8="13000.00000" pt_clust_9="13000.00000"></scales>
<clustering>
<clus scale="   90.977">  7  8 -1 -1</clus>
<clus scale="   91.822">  5  6 -1 -1</clus>
<clus scale="  141.072">  7  9 -1 -1</clus>
<clus scale="  157.731">  2  5  1 -1</clus>
<clus scale="  238.665">  1  5  2 -1</clus>
</clustering>
</event>
<event>
 9    1  0.3312826E-006  0.4155338E+03  0.7546771E-02  0.1091079E+00
         21   -1    0    0  501  502  0.00000000000E+00  0.00000000000E+00  0.53983229089E+02  0.53983229089E+02  0.00000000000E+00 0. -1.
          1   -1    0    0  502    0 -0.00000000000E+00 -0.00000000000E+00 -0.12157860939E+04  0.12157860939E+04  0.00000000000E+00 0. -1.
         23    2    1    2    0    0 -0.40261234444E+01 -0.23367934862E+02 -0.20768117078E+03  0.22908852677E+03  0.93743342977E+02 0.  0.
         23    2    1    2    0    0  0.12860187863E+03  0.83466028735E+02 -0.84785433628E+03  0.86625702779E+03  0.89661817370E+02 0.  0.
        -11    1    4    4    0    0  0.85940315065E+01 -0.18283528774E+02 -0.10432728287E+03  0.10626536008E+03  0.00000000000E+00 0.  1.
         11    1    4    4    0    0  0.12000784713E+03  0.10174955751E+03 -0.74352705341E+03  0.75999166770E+03  0.00000000000E+00 0. -1.
        -13    1    3    3    0    0 -0.46422917226E+02 -0.25352118470E+02 -0.95887235033E+02  0.10950880785E+03  0.00000000000E+00 0.  1.
         13    1    3    3    0    0  0.42396793781E+02  0.19841836081E+01 -0.11179393575E+03  0.11957971892E+03  0.00000000000E+00 0. -1.
          1    1    1    2  501    0 -0.12457575519E+03 -0.60098093874E+02 -0.10626735773E+03  0.17442376841E+03  0.00000000000E+00 0. -1.
<scales pt_clust_5="13000.00000" pt_clust_6="13000.00000" pt_clust_7="13000.00000" pt_clust_8="13000.00000" pt_clust_9="13000.00000"></scales>
<clustering>
<clus scale="   89.662">  5  6 -1 -1</clus>
<clus scale="   93.743">  7  8 -1 -1</clus>
<clus scale="   96.696">  2  7  1 -1</clus>
<clus scale="  140.280">  5  9 -1 -1</clus>
<clus scale="  415.534">  1  5  2 -1</clus>
</clustering>
</event>
<event>
 9    1  0.3312826E-006  0.2306592E+03  0.7546771E-02  0.1149914E+00
          4   -1    0    0  502    0 -0.00000000000E+00  0.00000000000E+00  0.71329905866E+02  0.71329905866E+02  0.00000000000E+00 0. -1.
         21   -1    0    0  501  502  0.00000000000E+00 -0.00000000000E+00 -0.62002986108E+03  0.62002986108E+03  0.00000000000E+00 0. -1.
         23    2    1    2    0    0  0.44134172904E+02 -0.82400283137E+02 -0.45099958216E+02  0.13744944376E+03  0.90114990320E+02 0.  0.
         23    2    1    2    0    0 -0.10324724171E+02 -0.29072413693E+02 -0.12034817735E+03  0.15334672246E+03  0.89887309063E+02 0.  0.
        -11    1    4    4    0    0  0.26391613624E+01  0.22205962834E+02 -0.52418053601E+00  0.22368386694E+02  0.00000000000E+00 0.  1.
         11    1    4    4    0    0 -0.12963885534E+02 -0.51278376527E+02 -0.11982399682E+03  0.13097833577E+03  0.00000000000E+00 0. -1.
        -13    1    3    3    0    0 -0.23099238486E+02 -0.22283168582E+02 -0.33704550528E+02  0.46541499191E+02  0.00000000000E+00 0.  1.
         13    1    3    3    0    0  0.67233411390E+02 -0.60117114556E+02 -0.11395407688E+02  0.90907944571E+02  0.00000000000E+00 0. -1.
          4    1    1    2  501    0 -0.33809448733E+02  0.11147269683E+03 -0.38325181964E+03  0.40056360072E+03  0.00000000000E+00 0. -1.
<scales pt_clust_5="13000.00000" pt_clust_6="13000.00000" pt_clust_7="13000.00000" pt_clust_8="13000.00000" pt_clust_9="13000.00000"></scales>
<clustering>
<clus scale="   89.887">  5  6 -1 -1</clus>
<clus scale="   90.115">  7  8 -1 -1</clus>
<clus scale="  116.487">  5  9 -1 -1</clus>
<clus scale="  129.840">  1  7  2 -1</clus>
<clus scale="  230.659">  2  5  1 -1</clus>
</clustering>
</event>
<event>
 9    1  0.3312826E-006  0.2002312E+03  0.7546771E-02  0.1164150E+00
         21   -1    0    0  501  502  0.00000000000E+00  0.00000000000E+00  0.44361984829E+02  0.44361984829E+02  0.00000000000E+00 0. -1.
          3   -1    0    0  502    0 -0.00000000000E+00 -0.00000000000E+00 -0.70423262834E+03  0.70423262834E+03  0.00000000000E+00 0. -1.
         23    2    1    2    0    0 -0.39304367267E+02  0.10417458628E+03 -0.36899998341E+03  0.39546818980E+03  0.88526400988E+02 0.  0.
         23    2    1    2    0    0 -0.25828487207E+02 -0.32104789612E+02 -0.15351566672E+03  0.18489224572E+03  0.94447098059E+02 0.  0.
        -11    1    4    4    0    0 -0.42499815374E+02 -0.75115930876E+01 -0.19037121621E+02  0.47170651227E+02  0.00000000000E+00 0.  1.
         11    1    4    4    0    0  0.16671328167E+02 -0.24593196524E+02 -0.13447854510E+03  0.13772159449E+03  0.00000000000E+00 0. -1.
        -11    1    3    3    0    0  0.24048276248E+02  0.10709329130E+02 -0.10666273142E+03  0.10986331324E+03  0.00000000000E+00 0.  1.
         11    1    3    3    0    0 -0.63352643515E+02  0.93465257148E+02 -0.26233725199E+03  0.28560487656E+03  0.00000000000E+00 0. -1.
          3    1    1    2  501    0  0.65132854474E+02 -0.72069796666E+02 -0.13735499338E+03  0.16823417765E+03  0.00000000000E+00 0. -1.
<scales pt_clust_5="13000.00000" pt_clust_6="13000.00000" pt_clust_7="13000.00000" pt_clust_8="13000.00000" pt_clust_9="13000.00000"></scales>
<clustering>
<clus scale="   88.526">  7  8 -1 -1</clus>
<clus scale="   94.447">  5  6 -1 -1</clus>
<clus scale="   97.141">  5  9 -1 -1</clus>
<clus scale="  142.247">  2  7  1 -1</clus>
<clus scale="  200.231">  1  5  2 -1</clus>
</clustering>
</event>
<event>
 9    1  0.3312826E-006  0.1644502E+03  0.7546771E-02  0.1194119E+00
         21   -1    0    0  501  502  0.00000000000E+00  0.00000000000E+00  0.11566019800E+03  0.11566019800E+03  0.00000000000E+00 0.  1.
          1   -1    0    0  502    0 -0.00000000000E+00 -0.00000000000E+00 -0.24292727911E+03  0.24292727911E+03  0.00000000000E+00 0. -1.
         23    2    1    2    0    0  0.72471567940E+02 -0.57299615285E+02 -0.14253760728E+03  0.19342977043E+03  0.92535034056E+02 0.  0.
         23    2    1    2    0    0 -0.41374368553E+02  0.77672527259E+02  0.89030379553E+01  0.12743985602E+03  0.91743081233E+02 0.  0.
        -11    1    3    3    0    0  0.12958100450E+02 -0.26810817529E+02  0.61421956665E+01  0.30404915252E+02  0.00000000000E+00 0.  1.
         11    1    3    3    0    0  0.59513467490E+02 -0.30488797756E+02 -0.14867980295E+03  0.16302485518E+03  0.00000000000E+00 0. -1.
        -13    1    4    4    0    0 -0.65896008678E+02  0.42938210210E+02  0.24142971217E+02  0.82273063119E+02  0.00000000000E+00 0.  1.
         13    1    4    4    0    0  0.24521640126E+02  0.34734317049E+02 -0.15239933262E+02  0.45166792903E+02  0.00000000000E+00 0. -1.
          1    1    1    2  501    0 -0.31097199387E+02 -0.20372911974E+02  0.63674882153E+01  0.37717850657E+02  0.00000000000E+00 0. -1.
<scales pt_clust_5="13000.00000" pt_clust_6="13000.00000" pt_clust_7="13000.00000" pt_clust_8="13000.00000" pt_clust_9="13000.00000"></scales>
<clustering>
<clus scale="   91.743">  7  8 -1 -1</clus>
<clus scale="   37.177">  7  9 -1 -1</clus>
<clus scale="   92.535">  5  6 -1 -1</clus>
<clus scale="  130.760">  2  5  1 -1</clus>
<clus scale="  164.450">  1  5  2 -1</clus>
</clustering>
</event>
<event>
 9    1  0.3312826E-006  0.2911394E+03  0.7546771E-02  0.1121904E+00
         21   -1    0    0  501  502  0.00000000000E+00  0.00000000000E+00  0.31776010468E+02  0.31776010468E+02  0.00000000000E+00 0. -1.
          2   -1    0    0  502    0 -0.00000000000E+00 -0.00000000000E+00 -0.15775520878E+04  0.15775520878E+04  0.00000000000E+00 0. -1.
         23    2    1    2    0    0 -0.83764395693E+02 -0.39642709132E+02 -0.24322113300E+03  0.27463279423E+03  0.87627813839E+02 0.  0.
         23    2    1    2    0    0  0.97324612033E+02  0.13807958782E+03 -0.85727443833E+03  0.87846243851E+03  0.90767508431E+02 0.  0.
        -11    1    3    3    0    0 -0.84013656260E+02  0.15515962431E+01 -0.13716388950E+03  0.16085594323E+03  0.00000000000E+00 0. -1.
         11    1    3    3    0    0  0.24926056656E+00 -0.41194305375E+02 -0.10605724350E+03  0.11377685101E+03  0.00000000000E+00 0.  1.
        -13    1    4    4    0    0 -0.16515833801E+02  0.25392358007E+02 -0.10271597214E+03  0.10708928772E+03  0.00000000000E+00 0.  1.
         13    1    4    4    0    0  0.11384044583E+03  0.11268722981E+03 -0.75455846618E+03  0.77137315079E+03  0.00000000000E+00 0. -1.
          2    1    1    2  501    0 -0.13560216339E+02 -0.98436878688E+02 -0.44528050597E+03  0.45623286548E+03  0.00000000000E+00 0. -1.
<scales pt_clust_5="13000.00000" pt_clust_6="13000.00000" pt_clust_7="13000.00000" pt_clust_8="13000.00000" pt_clust_9="13000.00000"></scales>
<clustering>
<clus scale="   87.628">  5  6 -1 -1</clus>
<clus scale="   90.768">  7  8 -1 -1</clus>
<clus scale="   99.367">  7  9 -1 -1</clus>
<clus scale="  127.541">  2  5  1 -1</clus>
<clus scale="  291.139">  1  5  2 -1</clus>
</clustering>
</event>
<event>
 9    1  0.3312826E-006  0.2071037E+03  0.7546771E-02  0.1145682E+00
          3   -1    0    0  502    0 -0.00000000000E+00  0.00000000000E+00  0.17359580694E+03  0.17359580694E+03  0.00000000000E+00 0. -1.
         21   -1    0    0  501  502  0.00000000000E+00 -0.00000000000E+00 -0.23973766419E+03  0.23973766419E+03  0.00000000000E+00 0.  1.
         23    2    1    2    0    0  0.10063448550E+03  0.14466800403E+03 -0.93656350321E+01  0.19858829528E+03  0.91068462384E+02 0.  0.
         23    2    1    2    0    0 -0.69765707809E+02 -0.88948250723E+02 -0.50362550044E+02  0.15072402673E+03  0.86036622974E+02 0.  0.
        -11    1    3    3    0    0  0.41430060528E+02  0.12390496329E+03  0.14527088444E+02  0.13145313287E+03  0.00000000000E+00 0.  1.
         11    1    3    3    0    0  0.59204424968E+02  0.20763040745E+02 -0.23892723476E+02  0.67135162410E+02  0.00000000000E+00 0. -1.
        -13    1    4    4    0    0 -0.47581564203E+02 -0.19483498945E+02  0.14187077837E+02  0.53337464888E+02  0.00000000000E+00 0. -1.
         13    1    4    4    0    0 -0.22184143606E+02 -0.69464751778E+02 -0.64549627881E+02  0.97386561838E+02  0.00000000000E+00 0.  1.
          3    1    1    2  501    0 -0.30868777687E+02 -0.55719753312E+02 -0.64136721744E+01  0.64021149129E+02  0.00000000000E+00 0. -1.
<scales pt_clust_5="13000.00000" pt_clust_6="13000.00000" pt_clust_7="13000.00000" pt_clust_8="13000.00000" pt_clust_9="13000.00000"></scales>
<clustering>
<clus scale="   86.037">  7  8 -1 -1</clus>
<clus scale="   63.699">  7  9 -1 -1</clus>
<clus scale="   91.068">  5  6 -1 -1</clus>
<clus scale="  198.367">  1  5  2 -1</clus>
<clus scale="  207.104">  2  5  1 -1</clus>
</clustering>
</event>
<event>
 9    1  0.3312826E-006  0.3212585E+03  0.7546771E-02  0.1098212E+00
         -2   -1    0    0    0  501 -0.00000000000E+00  0.00000000000E+00  0.13055269223E+03  0.13055269223E+03  0.00000000000E+00 0.  1.
         21   -1    0    0  501  502  0.00000000000E+00 -0.00000000000E+00 -0.61113296895E+03  0.61113296895E+03  0.00000000000E+00 0.  1.
         23    2    1    2    0    0 -0.14296219241E+03  0.35055086741E+02 -0.12572016270E+02  0.17402488937E+03  0.91975860753E+02 0.  0.
         23    2    1    2    0    0  0.34514006145E+01  0.34504428127E+02 -0.28339370565E+02  0.10117334446E+03  0.90721871560E+02 0.  0.
        -11    1    3    3    0    0 -0.10666439334E+03  0.66258469593E+02 -0.12169135530E+02  0.12615690809E+03  0.00000000000E+00 0.  1.
         11    1    3    3    0    0 -0.36297799072E+02 -0.31203382851E+02 -0.40288073991E+00  0.47867981279E+02  0.00000000000E+00 0. -1.
        -13    1    4    4    0    0 -0.36700321704E+02 -0.87709706488E+01 -0.68506187210E+01  0.38350678171E+02  0.00000000000E+00 0.  1.
         13    1    4    4    0    0  0.40151722318E+02  0.43275398776E+02 -0.21488751844E+02  0.62822666293E+02  0.00000000000E+00 0. -1.
         -2    1    1    2    0  502  0.13951079180E+03 -0.69559514868E+02 -0.43966888989E+03  0.46648742734E+03  0.00000000000E+00 0.  1.
<scales pt_clust_5="13000.00000" pt_clust_6="13000.00000" pt_clust_7="13000.00000" pt_clust_8="13000.00000" pt_clust_9="13000.00000"></scales>
<clustering>
<clus scale="   90.722">  7  8 -1 -1</clus>
<clus scale="   91.976">  5  6 -1 -1</clus>
<clus scale="  155.890">  7  9 -1 -1</clus>
<clus scale="  173.570">  1  5  2 -1</clus>
<clus scale="  321.258">  2  5  1 -1</clus>
</clustering>
</event>
<event>
 9    1  0.3312826E-006  0.2949260E+03  0.7546771E-02  0.1133550E+00
         21   -1    0    0  501  502  0.00000000000E+00  0.00000000000E+00  0.10002685907E+03  0.10002685907E+03  0.00000000000E+00 0. -1.
          1   -1    0    0  502    0 -0.00000000000E+00 -0.00000000000E+00 -0.40833346834E+03  0.40833346834E+03  0.00000000000E+00 0. -1.
         23    2    1    2    0    0  0.10882868377E+02 -0.14881793239E+02 -0.16606316764E+02  0.93546598906E+02  0.90195852545E+02 0.  0.
         23    2    1    2    0    0  0.13732154074E+01  0.45193558756E+02 -0.34081399884E+03  0.35581228049E+03  0.91672534986E+02 0.  0.
        -11    1    3    3    0    0 -0.22297093119E+02 -0.42868848904E+02 -0.47766353413E+01  0.48556305595E+02  0.00000000000E+00 0.  1.
         11    1    3    3    0    0  0.33179961496E+02  0.27987055665E+02 -0.11829681422E+02  0.44990293311E+02  0.00000000000E+00 0. -1.
        -13    1    4    4    0    0  0.35916634858E+02 -0.92459217922E+01 -0.10567398542E+03  0.11199322713E+03  0.00000000000E+00 0.  1.
         13    1    4    4    0    0 -0.34543419451E+02  0.54439480548E+02 -0.23514001342E+03  0.24381905336E+03  0.00000000000E+00 0. -1.
          1    1    1    2  501    0 -0.12256083784E+02 -0.30311765517E+02  0.49113706334E+02  0.59001448019E+02  0.00000000000E+00 0. -1.
<scales pt_clust_5="13000.00000" pt_clust_6="13000.00000" pt_clust_7="13000.00000" pt_clust_8="13000.00000" pt_clust_9="13000.00000"></scales>
<clustering>
<clus scale="   90.196">  5  6 -1 -1</clus>
<clus scale="   91.673">  7  8 -1 -1</clus>
<clus scale="   32.696">  7  9 -1 -1</clus>
<clus scale="   92.061">  2  5  1 -1</clus>
<clus scale="  294.926">  1  5  2 -1</clus>
</clustering>
</event>
<event>
 9    1  0.3312826E-006  0.3035918E+03  0.7546771E-02  0.1128389E+00
         21   -1    0    0  501  502  0.00000000000E+00  0.00000000000E+00  0.20645927495E+03  0.20645927495E+03  0.00000000000E+00 0. -1.
         -2   -1    0    0    0  501 -0.00000000000E+00 -0.00000000000E+00 -0.27163159237E+03  0.27163159237E+03  0.00000000000E+00 0.  1.
         23    2    1    2    0    0 -0.10563603608E+02  0.26726802142E+01 -0.13600105358E+03  0.16634623055E+03  0.95163274964E+02 0.  0.
         23    2    1    2    0    0 -0.11519708404E+03  0.13903988368E+02  0.10421083119E+03  0.18057718361E+03  0.91019409141E+02 0.  0.
        -11    1    4    4    0    0 -0.11521544911E+03 -0.96854904979E+01  0.10608233395E+03  0.15691357499E+03  0.00000000000E+00 0. -1.
         11    1    4    4    0    0  0.18365074392E-01  0.23589478866E+02 -0.18715027570E+01  0.23663608622E+02  0.00000000000E+00 0.  1.
        -13    1    3    3    0    0 -0.22556894294E+01 -0.44798078090E+02 -0.85431087880E+02  0.96490552448E+02  0.00000000000E+00 0.  1.
         13    1    3    3    0    0 -0.83079141781E+01  0.47470758304E+02 -0.50569965700E+02  0.69855678100E+02  0.00000000000E+00 0. -1.
         -2    1    1    2    0  502  0.12576068765E+03 -0.16576668582E+02 -0.33382095036E+02  0.13116745316E+03  0.00000000000E+00 0.  1.
<scales pt_clust_5="13000.00000" pt_clust_6="13000.00000" pt_clust_7="13000.00000" pt_clust_8="13000.00000" pt_clust_9="13000.00000"></scales>
<clustering>
<clus scale="   91.019">  5  6 -1 -1</clus>
<clus scale="   95.163">  7  8 -1 -1</clus>
<clus scale="   95.785">  2  7  1 -1</clus>
<clus scale="  119.460">  5  9 -1 -1</clus>
<clus scale="  303.592">  1  5  2 -1</clus>
</clustering>
</event>
<event>
 9    1  0.3312826E-006  0.1771091E+03  0.7546771E-02  0.1179382E+00
         -1   -1    0    0    0  501 -0.00000000000E+00  0.00000000000E+00  0.27308192798E+03  0.27308192798E+03  0.00000000000E+00 0.  1.
         21   -1    0    0  501  502  0.00000000000E+00 -0.00000000000E+00 -0.10280744093E+03  0.10280744093E+03  0.00000000000E+00 0.  1.
         23    2    1    2    0    0 -0.10880008012E+03  0.30062539941E+02  0.26190242804E+02  0.14757402620E+03  0.91383535982E+02 0.  0.
         23    2    1    2    0    0  0.79069595167E+02 -0.28959352178E+01  0.91199592736E+02  0.16184194567E+03  0.10777319863E+03 0.  0.
        -11    1    4    4    0    0 -0.21347063747E+02  0.16867825306E+02  0.42236730515E+01  0.27532890790E+02  0.00000000000E+00 0. -1.
         11    1    4    4    0    0  0.10041665891E+03 -0.19763760524E+02  0.86975919685E+02  0.13430905488E+03  0.00000000000E+00 0.  1.
        -13    1    3    3    0    0 -0.54207214845E+02  0.51498609359E+02  0.43397295199E+02  0.86451455383E+02  0.00000000000E+00 0.  1.
         13    1    3    3    0    0 -0.54592865275E+02 -0.21436069419E+02 -0.17207052395E+02  0.61122570816E+02  0.00000000000E+00 0. -1.
         -1    1    1    2    0  502  0.29730484953E+02 -0.27166604723E+02  0.52884651510E+02  0.66473397032E+02  0.00000000000E+00 0.  1.
<scales pt_clust_5="13000.00000" pt_clust_6="13000.00000" pt_clust_7="13000.00000" pt_clust_8="13000.00000" pt_clust_9="13000.00000"></scales>
<clustering>
<clus scale="   91.384">  7  8 -1 -1</clus>
<clus scale="  107.773">  5  6 -1 -1</clus>
<clus scale="   40.273">  5  9 -1 -1</clus>
<clus scale="  145.231">  1  7  2 -1</clus>
<clus scale="  177.109">  2  5  1 -1</clus>
</clustering>
</event>
<event>
 9    1  0.3312826E-006  0.1908687E+03  0.7546771E-02  0.1172101E+00
         -2   -1    0    0    0  501 -0.00000000000E+00  0.00000000000E+00  0.22726442386E+03  0.22726442386E+03  0.00000000000E+00 0.  1.
         21   -1    0    0  501  502  0.00000000000E+00 -0.00000000000E+00 -0.13347818181E+03  0.13347818181E+03  0.00000000000E+00 0. -1.
         23    2    1    2    0    0  0.10452835748E+03  0.10524370585E+02  0.10047100534E+03  0.16975687450E+03  0.87670026981E+02 0.  0.
         23    2    1    2    0    0 -0.10997447137E+03 -0.33285718299E+02 -0.37580720545E+02  0.15222622549E+03  0.92510484682E+02 0.  0.
        -11    1    4    4    0    0 -0.11438141276E+03 -0.91351358129E+01 -0.98159206625E+01  0.11516471069E+03  0.00000000000E+00 0.  1.
         11    1    4    4    0    0  0.44069413884E+01 -0.24150582486E+02 -0.27764799883E+02  0.37061514801E+02  0.00000000000E+00 0. -1.
        -13    1    3    3    0    0  0.89465893595E+02 -0.27805960802E+02  0.56012880394E+02  0.10915475410E+03  0.00000000000E+00 0.  1.
         13    1    3    3    0    0  0.15062463885E+02  0.38330331388E+02  0.44458124946E+02  0.60602120395E+02  0.00000000000E+00 0. -1.
         -2    1    1    2    0  502  0.54461138890E+01  0.22761347714E+02  0.30895957252E+02  0.38759505683E+02  0.00000000000E+00 0.  1.
<scales pt_clust_5="13000.00000" pt_clust_6="13000.00000" pt_clust_7="13000.00000" pt_clust_8="13000.00000" pt_clust_9="13000.00000"></scales>
<clustering>
<clus scale="   87.670">  7  8 -1 -1</clus>
<clus scale="   92.510">  5  6 -1 -1</clus>
<clus scale="   23.404">  5  9 -1 -1</clus>
<clus scale="  136.832">  1  7  2 -1</clus>
<clus scale="  190.869">  2  5  1 -1</clus>
</clustering>
</event>
<event>
 9    1  0.3312826E-006  0.2003476E+03  0.7546771E-02  0.1176439E+00
         21   -1    0    0  501  502  0.00000000000E+00  0.00000000000E+00  0.13075451521E+03  0.13075451521E+03  0.00000000000E+00 0. -1.
          2   -1    0    0  502    0 -0.00000000000E+00 -0.00000000000E+00 -0.22958065205E+03  0.22958065205E+03  0.00000000000E+00 0. -1.
         23    2    1    2    0    0 -0.55706815207E+01  0.58068467709E+02 -0.11756510972E+03  0.15911314909E+03  0.89958099995E+02 0.  0.
         23    2    1    2    0    0 -0.39551850790E+02  0.76456361290E+01 -0.35481851353E+02  0.10481515043E+03  0.90024715116E+02 0.  0.
        -11    1    3    3    0    0  0.40101056123E+02  0.13692560319E+02 -0.35777183198E+02  0.55457981822E+02  0.00000000000E+00 0.  1.
         11    1    3    3    0    0 -0.45671737644E+02  0.44375907390E+02 -0.81787926524E+02  0.10365516727E+03  0.00000000000E+00 0. -1.
        -13    1    4    4    0    0 -0.65952893601E+02 -0.10229355962E+02 -0.24345715376E+02  0.71043210477E+02  0.00000000000E+00 0.  1.
         13    1    4    4    0    0  0.26401042811E+02  0.17874992091E+02 -0.11136135977E+02  0.33771939954E+02  0.00000000000E+00 0. -1.
          2    1    1    2  501    0  0.45122532310E+02 -0.65714103838E+02  0.54220824235E+02  0.96406867733E+02  0.00000000000E+00 0. -1.
<scales pt_clust_5="13000.00000" pt_clust_6="13000.00000" pt_clust_7="13000.00000" pt_clust_8="13000.00000" pt_clust_9="13000.00000"></scales>
<clustering>
<clus scale="   89.958">  5  6 -1 -1</clus>
<clus scale="   90.025">  7  8 -1 -1</clus>
<clus scale="   79.714">  7  9 -1 -1</clus>
<clus scale="  107.217">  2  5  1 -1</clus>
<clus scale="  200.348">  1  5  2 -1</clus>
</clustering>
</event>
<event>
 9    1  0.3312826E-006  0.5709489E+03  0.7546771E-02  0.1044172E+00
          3   -1    0    0  502    0 -0.00000000000E+00  0.00000000000E+00  0.44194279895E+03  0.44194279895E+03  0.00000000000E+00 0. -1.
         21   -1    0    0  501  502  0.00000000000E+00 -0.00000000000E+00 -0.31774143354E+03  0.31774143354E+03  0.00000000000E+00 0. -1.
         23    2    1    2    0    0 -0.79146055722E+02  0.61893839863E+02  0.13081026110E+03  0.18869706921E+03  0.91653226730E+02 0.  0.
         23    2    1    2    0    0 -0.92772147234E+02  0.11974759387E+02  0.23258124157E+03  0.26730252385E+03  0.92771435045E+02 0.  0.
        -11    1    3    3    0    0 -0.71666738610E+02  0.82032970849E+02  0.12622846281E+03  0.16673078466E+03  0.00000000000E+00 0. -1.
         11    1    3    3    0    0 -0.74793171118E+01 -0.20139130987E+02  0.45817982871E+01  0.21966284549E+02  0.00000000000E+00 0.  1.
        -11    1    4    4    0    0  0.12912820324E+02 -0.17302248609E+02  0.47397465904E+02  0.52082900359E+02  0.00000000000E+00 0.  1.
         11    1    4    4    0    0 -0.10568496756E+03  0.29277007995E+02  0.18518377567E+03  0.21521962349E+03  0.00000000000E+00 0. -1.
          3    1    1    2  501    0  0.17191820296E+03 -0.73868599249E+02 -0.23919013726E+03  0.30368463943E+03  0.00000000000E+00 0. -1.
<scales pt_clust_5="13000.00000" pt_clust_6="13000.00000" pt_clust_7="13000.00000" pt_clust_8="13000.00000" pt_clust_9="13000.00000"></scales>
<clustering>
<clus scale="   91.653">  5  6 -1 -1</clus>
<clus scale="   92.771">  7  8 -1 -1</clus>
<clus scale="  135.997">  1  5  2 -1</clus>
<clus scale="  176.039">  7  9 -1 -1</clus>
<clus scale="  570.949">  2  5  1 -1</clus>
</clustering>
</event>
<event>
 9    1  0.3312826E-006  0.1444790E+03  0.7546771E-02  0.1223005E+00
         -1   -1    0    0    0  501 -0.00000000000E+00  0.00000000000E+00  0.35345196859E+03  0.35345196859E+03  0.00000000000E+00 0.  1.
         21   -1    0    0  501  502  0.00000000000E+00 -0.00000000000E+00 -0.14169940793E+03  0.14169940793E+03  0.00000000000E+00 0.  1.
         23    2    1    2    0    0  0.80134370930E+01 -0.50424221849E+02  0.30566077979E+03  0.32283503636E+03  0.90482766734E+02 0.  0.
         23    2    1    2    0    0  0.26018461128E+02  0.53346900895E+02 -0.80792644954E+02  0.13572767477E+03  0.91496983915E+02 0.  0.
        -11    1    4    4    0    0  0.44240003837E+02 -0.27838508483E+01 -0.13749405434E+02  0.46410924521E+02  0.00000000000E+00 0.  1.
         11    1    4    4    0    0 -0.18221542709E+02  0.56130751743E+02 -0.67043239520E+02  0.89316750250E+02  0.00000000000E+00 0. -1.
        -13    1    3    3    0    0  0.46894392310E+02 -0.25447756012E+02  0.20889281478E+03  0.21559888771E+03  0.00000000000E+00 0.  1.
         13    1    3    3    0    0 -0.38880955217E+02 -0.24976465836E+02  0.96767965010E+02  0.10723614865E+03  0.00000000000E+00 0. -1.
         -1    1    1    2    0  502 -0.34031898221E+02 -0.29226790459E+01 -0.13115574177E+02  0.36588665395E+02  0.00000000000E+00 0.  1.
<scales pt_clust_5="13000.00000" pt_clust_6="13000.00000" pt_clust_7="13000.00000" pt_clust_8="13000.00000" pt_clust_9="13000.00000"></scales>
<clustering>
<clus scale="   90.483">  7  8 -1 -1</clus>
<clus scale="   91.497">  5  6 -1 -1</clus>
<clus scale="   34.157">  5  9 -1 -1</clus>
<clus scale="  103.894">  1  7  2 -1</clus>
<clus scale="  144.479">  2  5  1 -1</clus>
</clustering>
</event>
<event>
 9    1  0.3312826E-006  0.1829864E+03  0.7546771E-02  0.1193436E+00
         21   -1    0    0  501  502  0.00000000000E+00  0.00000000000E+00  0.11402901218E+03  0.11402901218E+03  0.00000000000E+00 0. -1.
         -2   -1    0    0    0  501 -0.00000000000E+00 -0.00000000000E+00 -0.46881044143E+03  0.46881044143E+03  0.00000000000E+00 0.  1.
         23    2    1    2    0    0  0.64355590804E+01 -0.32976365783E+02 -0.38544295330E+03  0.39730202989E+03  0.90298259040E+02 0.  0.
         23    2    1    2    0    0 -0.53553080511E+02  0.41049853647E+02  0.61074177820E+02  0.12887904797E+03  0.91250922701E+02 0.  0.
        -11    1    4    4    0    0 -0.68063593277E+01  0.41063294583E+02  0.69854132775E+02  0.81314946689E+02  0.00000000000E+00 0. -1.
         11    1    4    4    0    0 -0.46746721184E+02 -0.13440935722E-01 -0.87799549549E+01  0.47564101286E+02  0.00000000000E+00 0.  1.
        -11    1    3    3    0    0 -0.32663444707E+02  0.55167272754E+01 -0.74183106402E+02  0.81243265416E+02  0.00000000000E+00 0. -1.
         11    1    3    3    0    0  0.39099003788E+02 -0.38493093058E+02 -0.31125984690E+03  0.31605876447E+03  0.00000000000E+00 0.  1.
         -2    1    1    2    0  502  0.47117521431E+02 -0.80734878643E+01 -0.30412653773E+02  0.56658375741E+02  0.00000000000E+00 0.  1.
<scales pt_clust_5="13000.00000" pt_clust_6="13000.00000" pt_clust_7="13000.00000" pt_clust_8="13000.00000" pt_clust_9="13000.00000"></scales>
<clustering>
<clus scale="   90.298">  7  8 -1 -1</clus>
<clus scale="   91.251">  5  6 -1 -1</clus>
<clus scale="   47.804">  5  9 -1 -1</clus>
<clus scale="   96.346">  2  7  1 -1</clus>
<clus scale="  182.986">  1  5  2 -1</clus>
</clustering>
</event>
<event>
 9    1  0.3312826E-006  0.2363435E+03  0.7546771E-02  0.1157626E+00
         21   -1    0    0  501  502  0.00000000000E+00  0.00000000000E+00  0.61869796379E+03  0.61869796379E+03  0.00000000000E+00 0.  1.
          3   -1    0    0  502    0 -0.00000000000E+00 -0.00000000000E+00 -0.51768115115E+02  0.51768115115E+02  0.00000000000E+00 0. -1.
         23    2    1    2    0    0  0.40611505975E+02  0.40561100360E+01  0.77770301571E+02  0.12720248291E+03  0.92013615326E+02 0.  0.
         23    2    1    2    0    0 -0.32891960476E+02 -0.96356982439E+02  0.22327228751E+03  0.26170529432E+03  0.90953821117E+02 0.  0.
        -13    1    4    4    0    0 -0.52660221303E+02 -0.45172722967E+02  0.17635603428E+03  0.18951286140E+03  0.00000000000E+00 0. -1.
         13    1    4    4    0    0  0.19768260827E+02 -0.51184259473E+02  0.46916253227E+02  0.72192432919E+02  0.00000000000E+00 0.  1.
        -13    1    3    3    0    0  0.34000256859E+02 -0.18119061673E+02 -0.71511211038E+01  0.39184900095E+02  0.00000000000E+00 0. -1.
         13    1    3    3    0    0  0.66112491161E+01  0.22175171709E+02  0.84921422675E+02  0.88017582814E+02  0.00000000000E+00 0.  1.
          3    1    1    2  501    0 -0.77195454989E+01  0.92300872403E+02  0.26588725960E+03  0.28155830168E+03  0.00000000000E+00 0. -1.
<scales pt_clust_5="13000.00000" pt_clust_6="13000.00000" pt_clust_7="13000.00000" pt_clust_8="13000.00000" pt_clust_9="13000.00000"></scales>
<clustering>
<clus scale="   90.954">  5  6 -1 -1</clus>
<clus scale="   92.014">  7  8 -1 -1</clus>
<clus scale="   92.623">  5  9 -1 -1</clus>
<clus scale="  100.659">  2  7  1 -1</clus>
<clus scale="  236.344">  1  5  2 -1</clus>
</clustering>
</event>
<event>
 9    1  0.3312826E-006  0.4392293E+03  0.7546771E-02  0.1038813E+00
          2   -1    0    0  502    0 -0.00000000000E+00  0.00000000000E+00  0.17382919500E+03  0.17382919500E+03  0.00000000000E+00 0. -1.
         21   -1    0    0  501  502  0.00000000000E+00 -0.00000000000E+00 -0.17435983387E+04  0.17435983387E+04  0.00000000000E+00 0. -1.
         23    2    1    2    0    0  0.33003515603E+03 -0.66770522567E+02 -0.71627371596E+02  0.35622570062E+03  0.91568348894E+02 0.  0.
         23    2    1    2    0    0 -0.73996172564E+02  0.19353102200E+01 -0.17342311173E+03  0.21040980803E+03  0.93367728113E+02 0.  0.
        -11    1    3    3    0    0  0.29224974724E+03 -0.66977193033E+02 -0.32094786295E+02  0.30153927515E+03  0.00000000000E+00 0. -1.
         11    1    3    3    0    0  0.37785408786E+02  0.20667046620E+00 -0.39532585302E+02  0.54686425468E+02  0.00000000000E+00 0.  1.
        -13    1    4    4    0    0 -0.61966701805E+02  0.41999079038E+02 -0.13068813438E+03  0.15060937302E+03  0.00000000000E+00 0.  1.
         13    1    4    4    0    0 -0.12029470759E+02 -0.40063768818E+02 -0.42734977351E+02  0.59800435014E+02  0.00000000000E+00 0. -1.
          2    1    1    2  501    0 -0.25603898346E+03  0.64835212347E+02 -0.13247186603E+04  0.13507920250E+04  0.00000000000E+00 0. -1.
<scales pt_clust_5="13000.00000" pt_clust_6="13000.00000" pt_clust_7="13000.00000" pt_clust_8="13000.00000" pt_clust_9="13000.00000"></scales>
<clustering>
<clus scale="   91.568">  5  6 -1 -1</clus>
<clus scale="   93.368">  7  8 -1 -1</clus>
<clus scale="  264.120">  7  9 -1 -1</clus>
<clus scale="  348.950">  1  5  2 -1</clus>
<clus scale="  439.229">  2  5  1 -1</clus>
</clustering>
</event>
<event>
 9    1  0.3312826E-006  0.2022253E+03  0.7546771E-02  0.1179778E+00
         -2   -1    0    0    0  501 -0.00000000000E+00  0.00000000000E+00  0.42348171905E+03  0.42348171905E+03  0.00000000000E+00 0.  1.
         21   -1    0    0  501  502  0.00000000000E+00 -0.00000000000E+00 -0.53089769093E+02  0.53089769093E+02  0.00000000000E+00 0.  1.
         23    2    1    2    0    0  0.36478971534E+01 -0.33173538793E+02  0.13809355169E+03  0.16858187293E+03  0.90753666780E+02 0.  0.
         23    2    1    2    0    0 -0.37477545517E+02  0.59302322631E+02  0.23764684467E+03  0.26491103199E+03  0.93704323283E+02 0.  0.
        -11    1    3    3    0    0 -0.34776788936E+01  0.28520035209E+02  0.19538008622E+02  0.34745077921E+02  0.00000000000E+00 0.  1.
         11    1    3    3    0    0  0.71255760470E+01 -0.61693574003E+02  0.11855554307E+03  0.13383679501E+03  0.00000000000E+00 0. -1.
        -11    1    4    4    0    0  0.23915202370E+02  0.39457478743E+02  0.58537783327E+02  0.74535237371E+02  0.00000000000E+00 0. -1.
         11    1    4    4    0    0 -0.61392747887E+02  0.19844843887E+02  0.17910906134E+03  0.19037579462E+03  0.00000000000E+00 0.  1.
         -2    1    1    2    0  502  0.33829648364E+02 -0.26128783837E+02 -0.53484464006E+01  0.43078583219E+02  0.00000000000E+00 0.  1.
<scales pt_clust_5="13000.00000" pt_clust_6="13000.00000" pt_clust_7="13000.00000" pt_clust_8="13000.00000" pt_clust_9="13000.00000"></scales>
<clustering>
<clus scale="   90.754">  5  6 -1 -1</clus>
<clus scale="   93.704">  7  8 -1 -1</clus>
<clus scale="   42.745">  7  9 -1 -1</clus>
<clus scale="   96.695">  1  5  2 -1</clus>
<clus scale="  202.225">  2  5  1 -1</clus>
</clustering>
</event>
<event>
 9    1  0.3312826E-006  0.2028920E+03  0.7546771E-02  0.1174782E+00
         21   -1    0    0  501  502  0.00000000000E+00  0.00000000000E+00  0.17401794579E+03  0.17401794579E+03  0.00000000000E+00 0.  1.
         -2   -1    0    0    0  501 -0.00000000000E+00 -0.00000000000E+00 -0.14053554296E+03  0.14053554296E+03  0.00000000000E+00 0.  1.
         23    2    1    2    0    0  0.55814001293E+02  0.11851041349E+02  0.31263722366E+02  0.11164931348E+03  0.90733119328E+02 0.  0.
         23    2    1    2    0    0 -0.61552615522E+02  0.63973250216E+02 -0.93405528026E+01  0.12598947733E+03  0.88908949216E+02 0.  0.
        -13    1    4    4    0    0 -0.83893372880E+01  0.23859991643E+02 -0.44120686593E+02  0.50855827264E+02  0.00000000000E+00 0. -1.
         13    1    4    4    0    0 -0.53163278234E+02  0.40113258573E+02  0.34780133790E+02  0.75133650067E+02  0.00000000000E+00 0.  1.
        -13    1    3    3    0    0  0.64484230402E+02 -0.18652953761E+02  0.14823137146E-01  0.67127854683E+02  0.00000000000E+00 0.  1.
         13    1    3    3    0    0 -0.86702291093E+01  0.30503995109E+02  0.31248899229E+02  0.44521458797E+02  0.00000000000E+00 0. -1.
         -2    1    1    2    0  502  0.57386142291E+01 -0.75824291565E+02  0.11559233267E+02  0.76914697934E+02  0.00000000000E+00 0.  1.
<scales pt_clust_5="13000.00000" pt_clust_6="13000.00000" pt_clust_7="13000.00000" pt_clust_8="13000.00000" pt_clust_9="13000.00000"></scales>
<clustering>
<clus scale="   88.909">  5  6 -1 -1</clus>
<clus scale="   76.041">  5  9 -1 -1</clus>
<clus scale="   90.733">  7  8 -1 -1</clus>
<clus scale="  107.183">  2  7  1 -1</clus>
<clus scale="  202.892">  1  5  2 -1</clus>
</clustering>
</event>
<event>
 9    1  0.3312826E-006  0.4800969E+03  0.7546771E-02  0.1073780E+00
         21   -1    0    0  501  502  0.00000000000E+00  0.00000000000E+00  0.60960779044E+03  0.60960779044E+03  0.00000000000E+00 0. -1.
          4   -1    0    0  502    0 -0.00000000000E+00 -0.00000000000E+00 -0.20859749870E+03  0.20859749870E+03  0.00000000000E+00 0. -1.
         23    2    1    2    0    0 -0.40302585144E+02  0.18253706071E+02 -0.87949670441E+02  0.13294992778E+03  0.89347874136E+02 0.  0.
         23    2    1    2    0    0  0.72496086257E+02  0.19484402329E+03  0.11441446678E+03  0.25313108305E+03  0.88118097257E+02 0.  0.
        -13    1    3    3    0    0 -0.63721075575E+02 -0.68009911062E+01 -0.67242900903E+02  0.92888302139E+02  0.00000000000E+00 0. -1.
         13    1    3    3    0    0  0.23418490430E+02  0.25054697177E+02 -0.20706769538E+02  0.40061625645E+02  0.00000000000E+00 0.  1.
        -13    1    4    4    0    0  0.66185681585E+02  0.57866328687E+02  0.34656972502E+02  0.94499535372E+02  0.00000000000E+00 0.  1.
         13    1    4    4    0    0  0.63104046726E+01  0.13697769460E+03  0.79757494282E+02  0.15863154768E+03  0.00000000000E+00 0. -1.
          4    1    1    2  501    0 -0.32193501113E+02 -0.21309772936E+03  0.37454549540E+03  0.43212427830E+03  0.00000000000E+00 0. -1.
<scales pt_clust_5="13000.00000" pt_clust_6="13000.00000" pt_clust_7="13000.00000" pt_clust_8="13000.00000" pt_clust_9="13000.00000"></scales>
<clustering>
<clus scale="   88.118">  7  8 -1 -1</clus>
<clus scale="   89.348">  5  6 -1 -1</clus>
<clus scale="   99.702">  2  5  1 -1</clus>
<clus scale="  212.355">  7  9 -1 -1</clus>
<clus scale="  480.097">  1  5  2 -1</clus>
</clustering>
</event>
<event>
 9    1  0.3312826E-006  0.1979129E+03  0.7546771E-02  0.1184501E+00
          2   -1    0    0  502    0 -0.00000000000E+00  0.00000000000E+00  0.27296014027E+03  0.27296014027E+03  0.00000000000E+00 0. -1.
         21   -1    0    0  501  502  0.00000000000E+00 -0.00000000000E+00 -0.26347752208E+03  0.26347752208E+03  0.00000000000E+00 0.  1.
         23    2    1    2    0    0  0.44052650235E+01  0.13767469482E+02  0.22526881857E+03  0.24363533973E+03  0.91668907329E+02 0.  0.
         23    2    1    2    0    0  0.70417613211E+02 -0.93869695825E+01 -0.16613024386E+03  0.20289478174E+03  0.92305357837E+02 0.  0.
        -11    1    3    3    0    0 -0.13065124696E+02  0.48103096367E+02  0.88804046210E+02  0.10183694804E+03  0.00000000000E+00 0. -1.
         11    1    3    3    0    0  0.17470389720E+02 -0.34335626885E+02  0.13646477236E+03  0.14179839169E+03  0.00000000000E+00 0.  1.
        -13    1    4    4    0    0  0.67853184964E+02  0.29995287003E+02 -0.12842210291E+03  0.14831051368E+03  0.00000000000E+00 0.  1.
         13    1    4    4    0    0  0.25644282470E+01 -0.39382256585E+02 -0.37708140941E+02  0.54584268056E+02  0.00000000000E+00 0. -1.
          2    1    1    2  501    0 -0.74822878235E+02 -0.43804998993E+01 -0.49655956524E+02  0.89907540868E+02  0.00000000000E+00 0. -1.
<scales pt_clust_5="13000.00000" pt_clust_6="13000.00000" pt_clust_7="13000.00000" pt_clust_8="13000.00000" pt_clust_9="13000.00000"></scales>
<clustering>
<clus scale="   91.669">  5  6 -1 -1</clus>
<clus scale="   92.305">  7  8 -1 -1</clus>
<clus scale="   74.951">  7  9 -1 -1</clus>
<clus scale="   92.802">  1  5  2 -1</clus>
<clus scale="  197.913">  2  5  1 -1</clus>
</clustering>
</event>
<event>
 9    1  0.3312826E-006  0.5356691E+03  0.7546771E-02  0.1045028E+00
          2   -1    0    0  502    0 -0.00000000000E+00  0.00000000000E+00  0.16512694394E+04  0.16512694394E+04  0.00000000000E+00 0. -1.
         21   -1    0    0  501  502  0.00000000000E+00 -0.00000000000E+00 -0.85129598292E+02  0.85129598292E+02  0.00000000000E+00 0. -1.
         23    2    1    2    0    0  0.98356965377E+01 -0.13153396151E+03  0.69836487930E+03  0.71660748343E+03  0.91732528107E+02 0.  0.
         23    2    1    2    0    0 -0.25058168704E+03  0.97784377763E+02  0.55618392969E+03  0.62458700261E+03  0.91735455337E+02 0.  0.
        -11    1    3    3    0    0  0.26255385063E+02  0.14237380521E+01  0.13454930862E+03  0.13709445184E+03  0.00000000000E+00 0.  1.
         11    1    3    3    0    0 -0.16419688525E+02 -0.13295769956E+03  0.56381557068E+03  0.57951303159E+03  0.00000000000E+00 0. -1.
        -13    1    4    4    0    0 -0.16886974555E+03  0.10933545729E+03  0.41079423478E+03  0.45740915657E+03  0.00000000000E+00 0. -1.
         13    1    4    4    0    0 -0.81711941489E+02 -0.11551079530E+02  0.14538969491E+03  0.16717784604E+03  0.00000000000E+00 0.  1.
          2    1    1    2  501    0  0.24074599050E+03  0.33749583747E+02  0.31159103209E+03  0.39520455162E+03  0.00000000000E+00 0. -1.
<scales pt_clust_5="13000.00000" pt_clust_6="13000.00000" pt_clust_7="13000.00000" pt_clust_8="13000.00000" pt_clust_9="13000.00000"></scales>
<clustering>
<clus scale="   91.733">  5  6 -1 -1</clus>
<clus scale="   91.735">  7  8 -1 -1</clus>
<clus scale="  160.664">  1  5  2 -1</clus>
<clus scale="  244.920">  7  9 -1 -1</clus>
<clus scale="  535.669">  2  5  1 -1</clus>
</clustering>
</event>
<event>
 9    1  0.3312826E-006  0.2334703E+03  0.7546771E-02  0.1155724E+00
          1   -1    0    0  502    0 -0.00000000000E+00  0.00000000000E+00  0.68643226802E+03  0.68643226802E+03  0.00000000000E+00 0. -1.
         21   -1    0    0  501  502  0.00000000000E+00 -0.00000000000E+00 -0.47563845349E+02  0.47563845349E+02  0.00000000000E+00 0. -1.
         23    2    1    2    0    0 -0.59311486268E+02 -0.88765130868E+01  0.32477777685E+03  0.34263783052E+03  0.91232854188E+02 0.  0.
         23    2    1    2    0    0 -0.53915927806E+02  0.23682820776E+02  0.21134741119E+03  0.23774888760E+03  0.91591495599E+02 0.  0.
        -11    1    3    3    0    0 -0.24205824191E+02 -0.36627040148E+02  0.61375306830E+02  0.75461183951E+02  0.00000000000E+00 0. -1.
         11    1    3    3    0    0 -0.35105662077E+02  0.27750527062E+02  0.26340247002E+03  0.26717664657E+03  0.00000000000E+00 0.  1.
        -13    1    4    4    0    0 -0.52532013298E+02 -0.78695605169E+00  0.20609158172E+03  0.21268279614E+03  0.00000000000E+00 0. -1.
         13    1    4    4    0    0 -0.13839145083E+01  0.24469776828E+02  0.52558294746E+01  0.25066091455E+02  0.00000000000E+00 0.  1.
          1    1    1    2  501    0  0.11322741407E+03 -0.14806307689E+02  0.10274323463E+03  0.15360939525E+03  0.00000000000E+00 0. -1.
<scales pt_clust_5="13000.00000" pt_clust_6="13000.00000" pt_clust_7="13000.00000" pt_clust_8="13000.00000" pt_clust_9="13000.00000"></scales>
<clustering>
<clus scale="   91.233">  5  6 -1 -1</clus>
<clus scale="   91.591">  7  8 -1 -1</clus>
<clus scale="  109.179">  1  5  2 -1</clus>
<clus scale="   93.431">  7  9 -1 -1</clus>
<clus scale="  233.470">  2  5  1 -1</clus>
</clustering>
</event>
<event>
 9    1  0.3312826E-006  0.2404080E+03  0.7546771E-02  0.1151351E+00
          3   -1    0    0  502    0 -0.00000000000E+00  0.00000000000E+00  0.92309778491E+02  0.92309778491E+02  0.00000000000E+00 0. -1.
         21   -1    0    0  501  502  0.00000000000E+00 -0.00000000000E+00 -0.55365099987E+03  0.55365099987E+03  0.00000000000E+00 0. -1.
         23    2    1    2    0    0 -0.19122323331E+02 -0.59660527969E+02  0.15523018870E+02  0.11192379768E+03  0.91438124030E+02 0.  0.
         23    2    1    2    0    0 -0.73649056898E+02 -0.17398191868E+01 -0.15436724371E+03  0.19289061268E+03  0.89164634116E+02 0.  0.
        -11    1    4    4    0    0 -0.10388785736E+01 -0.23155284196E+02 -0.26425873658E+01  0.23328731703E+02  0.00000000000E+00 0.  1.
         11    1    4    4    0    0 -0.72610178324E+02  0.21415465009E+02 -0.15172465635E+03  0.16956188098E+03  0.00000000000E+00 0. -1.
        -13    1    3    3    0    0 -0.33670949854E+02 -0.43603894336E+02 -0.29110245823E+02  0.62309219842E+02  0.00000000000E+00 0.  1.
         13    1    3    3    0    0  0.14548626523E+02 -0.16056633633E+02  0.44633264693E+02  0.49614577843E+02  0.00000000000E+00 0. -1.
          3    1    1    2  501    0  0.92771380229E+02  0.61400347156E+02 -0.32249699654E+03  0.34114636800E+03  0.00000000000E+00 0. -1.
<scales pt_clust_5="13000.00000" pt_clust_6="13000.00000" pt_clust_7="13000.00000" pt_clust_8="13000.00000" pt_clust_9="13000.00000"></scales>
<clustering>
<clus scale="   89.165">  5  6 -1 -1</clus>
<clus scale="   91.438">  7  8 -1 -1</clus>
<clus scale="  110.842">  1  7  2 -1</clus>
<clus scale="   96.161">  5  9 -1 -1</clus>
<clus scale="  240.408">  2  5  1 -1</clus>
</clustering>
</event>
<event>
 9    1  0.3312826E-006  0.9234430E+03  0.7546771E-02  0.9574251E-01
         21   -1    0    0  501  502  0.00000000000E+00  0.00000000000E+00  0.24282789379E+04  0.24282789379E+04  0.00000000000E+00 0. -1.
          2   -1    0    0  502    0 -0.00000000000E+00 -0.00000000000E+00 -0.45322708059E+03  0.45322708059E+03  0.00000000000E+00 0. -1.
         23    2    1    2    0    0  0.48171856981E+03  0.59136679561E+02 -0.18789646115E+03  0.52967854867E+03  0.98510697095E+02 0.  0.
         23    2    1    2    0    0  0.52290934003E+02 -0.49154209455E+02 -0.67409126044E+01  0.11736620158E+03  0.92622390840E+02 0.  0.
        -11    1    3    3    0    0  0.34128060575E+03  0.63685643641E+02 -0.90694971455E+02  0.35882292418E+03  0.00000000000E+00 0. -1.
         11    1    3    3    0    0  0.14043796406E+03 -0.45489640798E+01 -0.97201489690E+02  0.17085562449E+03  0.00000000000E+00 0.  1.
        -13    1    4    4    0    0  0.14824712632E+02  0.23510010458E+02 -0.20402141020E+02  0.34478109788E+02  0.00000000000E+00 0. -1.
         13    1    4    4    0    0  0.37466221371E+02 -0.72664219912E+02  0.13661228416E+02  0.82888091793E+02  0.00000000000E+00 0.  1.
          2    1    1    2  501    0 -0.53400950381E+03 -0.99824701066E+01  0.21696892310E+04  0.22344612682E+04  0.00000000000E+00 0. -1.
<scales pt_clust_5="13000.00000" pt_clust_6="13000.00000" pt_clust_7="13000.00000" pt_clust_8="13000.00000" pt_clust_9="13000.00000"></scales>
<clustering>
<clus scale="   92.622">  7  8 -1 -1</clus>
<clus scale="   98.511">  5  6 -1 -1</clus>
<clus scale="  495.232">  2  5  1 -1</clus>
<clus scale="  368.958">  7  9 -1 -1</clus>
<clus scale="  923.443">  1  5  2 -1</clus>
</clustering>
</event>
<event>
 9    1  0.3312826E-006  0.4543777E+03  0.7546771E-02  0.1081504E+00
         21   -1    0    0  501  502  0.00000000000E+00  0.00000000000E+00  0.10204280545E+03  0.10204280545E+03  0.00000000000E+00 0. -1.
          1   -1    0    0  502    0 -0.00000000000E+00 -0.00000000000E+00 -0.74180040575E+03  0.74180040575E+03  0.00000000000E+00 0. -1.
         23    2    1    2    0    0  0.28682645857E+02 -0.29560438367E+01 -0.12433524659E+03  0.15673382921E+03  0.90965967841E+02 0.  0.
         23    2    1    2    0    0  0.95640198132E+02  0.14814101668E+03 -0.43498188465E+03  0.47973167118E+03  0.99198931638E+02 0.  0.
        -11    1    4    4    0    0  0.29773098209E+02  0.65340121886E+01 -0.20319250915E+02  0.36633354337E+02  0.00000000000E+00 0.  1.
         11    1    4    4    0    0  0.65867099923E+02  0.14160700450E+03 -0.41466263374E+03  0.44309831685E+03  0.00000000000E+00 0. -1.
        -13    1    3    3    0    0  0.56179833656E+02 -0.23275190785E+02 -0.72328825878E+02  0.94495329348E+02  0.00000000000E+00 0.  1.
         13    1    3    3    0    0 -0.27497187799E+02  0.20319146948E+02 -0.52006420717E+02  0.62238499864E+02  0.00000000000E+00 0. -1.
          1    1    1    2  501    0 -0.12432284399E+03 -0.14518497285E+03 -0.80440469052E+02  0.20737771081E+03  0.00000000000E+00 0. -1.
<scales pt_clust_5="13000.00000" pt_clust_6="13000.00000" pt_clust_7="13000.00000" pt_clust_8="13000.00000" pt_clust_9="13000.00000"></scales>
<clustering>
<clus scale="   90.966">  7  8 -1 -1</clus>
<clus scale="   95.427">  2  7  1 -1</clus>
<clus scale="   99.199">  5  6 -1 -1</clus>
<clus scale="  187.299">  5  9 -1 -1</clus>
<clus scale="  454.378">  1  5  2 -1</clus>
</clustering>
</event>
<event>
 9    1  0.3312826E-006  0.1773864E+03  0.7546771E-02  0.1185297E+00
         21   -1    0    0  501  502  0.00000000000E+00  0.00000000000E+00  0.20623286110E+03  0.20623286110E+03  0.00000000000E+00 0. -1.
          3   -1    0    0  502    0 -0.00000000000E+00 -0.00000000000E+00 -0.24166399884E+03  0.24166399884E+03  0.00000000000E+00 0. -1.
         23    2    1    2    0    0  0.68749501230E+02  0.47819125144E+02 -0.17929953968E+03  0.21950234763E+03  0.94972590980E+02 0.  0.
         23    2    1    2    0    0 -0.23130410637E+02  0.97416642014E+01  0.46689473624E+02  0.10658281334E+03  0.92466606051E+02 0.  0.
        -11    1    3    3    0    0 -0.92318639976E+01 -0.19105342006E+02 -0.16062089063E+02  0.26612630669E+02  0.00000000000E+00 0.  1.
         11    1    3    3    0    0  0.77981365227E+02  0.66924467150E+02 -0.16323745061E+03  0.19288971696E+03  0.00000000000E+00 0. -1.
        -13    1    4    4    0    0  0.32782289905E+02  0.20449152249E+02  0.15152094204E+02  0.41502196542E+02  0.00000000000E+00 0. -1.
         13    1    4    4    0    0 -0.55912700542E+02 -0.10707488047E+02  0.31537379420E+02  0.65080616798E+02  0.00000000000E+00 0.  1.
          3    1    1    2  501    0 -0.45619090593E+02 -0.57560789345E+02  0.97178928315E+02  0.12181169897E+03  0.00000000000E+00 0. -1.
<scales pt_clust_5="13000.00000" pt_clust_6="13000.00000" pt_clust_7="13000.00000" pt_clust_8="13000.00000" pt_clust_9="13000.00000"></scales>
<clustering>
<clus scale="   92.467">  7  8 -1 -1</clus>
<clus scale="   73.446">  7  9 -1 -1</clus>
<clus scale="   94.973">  5  6 -1 -1</clus>
<clus scale="  126.621">  2  5  1 -1</clus>
<clus scale="  177.386">  1  5  2 -1</clus>
</clustering>
</event>
<event>
 9    1  0.3312826E-006  0.2446418E+03  0.7546771E-02  0.1149619E+00
         21   -1    0    0  501  502  0.00000000000E+00  0.00000000000E+00  0.11854893995E+03  0.11854893995E+03  0.00000000000E+00 0. -1.
          2   -1    0    0  502    0 -0.00000000000E+00 -0.00000000000E+00 -0.38573871490E+03  0.38573871490E+03  0.00000000000E+00 0. -1.
         23    2    1    2    0    0 -0.47555045725E+02 -0.38793989645E+02  0.35407498580E+02  0.11516722799E+03  0.90792860069E+02 0.  0.
         23    2    1    2    0    0  0.22080591945E+02  0.45910630810E+02 -0.33283304003E+03  0.34894834760E+03  0.91606649302E+02 0.  0.
        -13    1    3    3    0    0 -0.42031166602E+02  0.22173485391E+02  0.22613004812E+02  0.52627278164E+02  0.00000000000E+00 0. -1.
         13    1    3    3    0    0 -0.55238791231E+01 -0.60967475036E+02  0.12794493767E+02  0.62539949821E+02  0.00000000000E+00 0.  1.
        -13    1    4    4    0    0  0.45273004068E+02 -0.51914837065E+01 -0.10805819016E+03  0.11727390529E+03  0.00000000000E+00 0.  1.
         13    1    4    4    0    0 -0.23192412123E+02  0.51102114517E+02 -0.22477484986E+03  0.23167444231E+03  0.00000000000E+00 0. -1.
          2    1    1    2  501    0  0.25474453780E+02 -0.71166411649E+01  0.30235766496E+02  0.40172079265E+02  0.00000000000E+00 0. -1.
<scales pt_clust_5="13000.00000" pt_clust_6="13000.00000" pt_clust_7="13000.00000" pt_clust_8="13000.00000" pt_clust_9="13000.00000"></scales>
<clustering>
<clus scale="   90.793">  5  6 -1 -1</clus>
<clus scale="   91.607">  7  8 -1 -1</clus>
<clus scale="   26.450">  7  9 -1 -1</clus>
<clus scale="  109.589">  2  5  1 -1</clus>
<clus scale="  244.642">  1  5  2 -1</clus>
</clustering>
</event>
<event>
 9    1  0.3312826E-006  0.1963852E+03  0.7546771E-02  0.1171982E+00
         21   -1    0    0  501  502  0.00000000000E+00  0.00000000000E+00  0.37257171533E+03  0.37257171533E+03  0.00000000000E+00 0.  1.
          1   -1    0    0  502    0 -0.00000000000E+00 -0.00000000000E+00 -0.14424430902E+03  0.14424430902E+03  0.00000000000E+00 0. -1.
         23    2    1    2    0    0  0.82653377668E+02 -0.28191596423E+02 -0.81471875256E+02  0.15001533831E+03  0.90777686253E+02 0.  0.
         23    2    1    2    0    0  0.19497285764E+02  0.17832094444E+02  0.14570039685E+03  0.17322764741E+03  0.89894852144E+02 0.  0.
        -11    1    3    3    0    0  0.73756860220E+02  0.98589549855E+01 -0.19793826210E+02  0.77000447914E+02  0.00000000000E+00 0.  1.
         11    1    3    3    0    0  0.88965174470E+01 -0.38050551408E+02 -0.61678049046E+02  0.73014890394E+02  0.00000000000E+00 0. -1.
        -13    1    4    4    0    0  0.42413555043E+02  0.29231424993E+02  0.13672190187E+03  0.14610360814E+03  0.00000000000E+00 0.  1.
         13    1    4    4    0    0 -0.22916269279E+02 -0.11399330548E+02  0.89784949726E+01  0.27124039275E+02  0.00000000000E+00 0. -1.
          1    1    1    2  501    0 -0.10215066343E+03  0.10359501979E+02  0.16409888472E+03  0.19357303863E+03  0.00000000000E+00 0. -1.
<scales pt_clust_5="13000.00000" pt_clust_6="13000.00000" pt_clust_7="13000.00000" pt_clust_8="13000.00000" pt_clust_9="13000.00000"></scales>
<clustering>
<clus scale="   89.895">  7  8 -1 -1</clus>
<clus scale="   90.778">  5  6 -1 -1</clus>
<clus scale="  102.675">  7  9 -1 -1</clus>
<clus scale="  125.964">  2  5  1 -1</clus>
<clus scale="  196.385">  1  5  2 -1</clus>
</clustering>
</event>
<event>
 9    1  0.3312826E-006  0.4359661E+03  0.7546771E-02  0.1072439E+00
          1   -1    0    0  502    0 -0.00000000000E+00  0.00000000000E+00  0.15417687375E+04  0.15417687375E+04  0.00000000000E+00 0. -1.
         21   -1    0    0  501  502  0.00000000000E+00 -0.00000000000E+00 -0.57524436730E+02  0.57524436730E+02  0.00000000000E+00 0. -1.
         23    2    1    2    0    0 -0.86275164645E+02  0.75318950850E+02  0.56896057459E+03  0.58548314551E+03  0.77188275355E+02 0.  0.
         23    2    1    2    0    0  0.21796028581E+03 -0.90094403983E+02  0.79502039845E+03  0.83486156366E+03  0.96502376693E+02 0.  0.
        -11    1    4    4    0    0  0.20635923713E+03 -0.72248679021E+02  0.77634368705E+03  0.80654418775E+03  0.00000000000E+00 0. -1.
         11    1    4    4    0    0  0.11601048679E+02 -0.17845724962E+02  0.18676711404E+02  0.28317375915E+02  0.00000000000E+00 0.  1.
        -13    1    3    3    0    0 -0.49157664018E+02 -0.16242301281E+01  0.14854750362E+03  0.15647835277E+03  0.00000000000E+00 0.  1.
         13    1    3    3    0    0 -0.37117500627E+02  0.76943180978E+02  0.42041307097E+03  0.42900479274E+03  0.00000000000E+00 0. -1.
          1    1    1    2  501    0 -0.13168512116E+03  0.14775453133E+02  0.12026332775E+03  0.17894846508E+03  0.00000000000E+00 0. -1.
<scales pt_clust_5="13000.00000" pt_clust_6="13000.00000" pt_clust_7="13000.00000" pt_clust_8="13000.00000" pt_clust_9="13000.00000"></scales>
<clustering>
<clus scale="   77.188">  7  8 -1 -1</clus>
<clus scale="   96.502">  5  6 -1 -1</clus>
<clus scale="  132.512">  5  9 -1 -1</clus>
<clus scale="  138.110">  1  7  2 -1</clus>
<clus scale="  435.966">  2  5  1 -1</clus>
</clustering>
</event>
<event>
 9    1  0.3312826E-006  0.1613093E+03  0.7546771E-02  0.1211875E+00
         -1   -1    0    0    0  501 -0.00000000000E+00  0.00000000000E+00  0.72685418987E+03  0.72685418987E+03  0.00000000000E+00 0.  1.
         21   -1    0    0  501  502  0.00000000000E+00 -0.00000000000E+00 -0.27752078863E+02  0.27752078863E+02  0.00000000000E+00 0. -1.
         23    2    1    2    0    0  0.40777942950E+01 -0.17510848165E+01  0.43511060135E+03  0.44523235946E+03  0.94291695283E+02 0.  0.
         23    2    1    2    0    0 -0.37041105871E+02  0.76666026308E+01  0.98615414705E+02  0.14064090704E+03  0.92865733160E+02 0.  0.
        -11    1    4    4    0    0 -0.10775389787E+02  0.17154764039E+02 -0.13993071271E+02  0.24621149402E+02  0.00000000000E+00 0. -1.
         11    1    4    4    0    0 -0.26265716084E+02 -0.94881614081E+01  0.11260848598E+03  0.11601975764E+03  0.00000000000E+00 0.  1.
        -13    1    3    3    0    0 -0.31154867348E+02 -0.34130835061E+02  0.23245310333E+03  0.23700207786E+03  0.00000000000E+00 0.  1.
         13    1    3    3    0    0  0.35232661643E+02  0.32379750245E+02  0.20265749802E+03  0.20823028160E+03  0.00000000000E+00 0. -1.
         -1    1    1    2    0  502  0.32963311576E+02 -0.59155178143E+01  0.16537609496E+03  0.16873300224E+03  0.00000000000E+00 0.  1.
<scales pt_clust_5="13000.00000" pt_clust_6="13000.00000" pt_clust_7="13000.00000" pt_clust_8="13000.00000" pt_clust_9="13000.00000"></scales>
<clustering>
<clus scale="   92.866">  5  6 -1 -1</clus>
<clus scale="   33.490">  5  9 -1 -1</clus>
<clus scale="   94.292">  7  8 -1 -1</clus>
<clus scale="   94.396">  1  7  2 -1</clus>
<clus scale="  161.309">  2  5  1 -1</clus>
</clustering>
</event>
<event>
 9    1  0.3312826E-006  0.1221355E+03  0.7546771E-02  0.1249635E+00
         21   -1    0    0  501  502  0.00000000000E+00  0.00000000000E+00  0.20147150433E+02  0.20147150433E+02  0.00000000000E+00 0.  1.
          1   -1    0    0  502    0 -0.00000000000E+00 -0.00000000000E+00 -0.65358749069E+03  0.65358749069E+03  0.00000000000E+00 0. -1.
         23    2    1    2    0    0 -0.85382546388E+01  0.38393721253E+02 -0.37229827960E+03  0.38544265686E+03  0.91722696810E+02 0.  0.
         23    2    1    2    0    0  0.22587910313E+02 -0.18314195782E+02 -0.22425406962E+03  0.24400537172E+03  0.91668480019E+02 0.  0.
        -13    1    4    4    0    0 -0.87648798701E+01 -0.42617285947E+02 -0.54811209614E+02  0.69980889391E+02  0.00000000000E+00 0.  1.
         13    1    4    4    0    0  0.31352790183E+02  0.24303090165E+02 -0.16944286000E+03  0.17402448233E+03  0.00000000000E+00 0. -1.
        -13    1    3    3    0    0  0.28558315296E+02  0.51307253796E+02 -0.25749655428E+03  0.26410696154E+03  0.00000000000E+00 0. -1.
         13    1    3    3    0    0 -0.37096569935E+02 -0.12913532544E+02 -0.11480172532E+03  0.12133569532E+03  0.00000000000E+00 0.  1.
          1    1    1    2  501    0 -0.14049655674E+02 -0.20079525471E+02 -0.36887991045E+02  0.44286612549E+02  0.00000000000E+00 0. -1.
<scales pt_clust_5="13000.00000" pt_clust_6="13000.00000" pt_clust_7="13000.00000" pt_clust_8="13000.00000" pt_clust_9="13000.00000"></scales>
<clustering>
<clus scale="   91.668">  5  6 -1 -1</clus>
<clus scale="   24.507">  5  9 -1 -1</clus>
<clus scale="   91.723">  7  8 -1 -1</clus>
<clus scale="   99.800">  2  7  1 -1</clus>
<clus scale="  122.136">  1  5  2 -1</clus>
</clustering>
</event>
<event>
 9    1  0.3312826E-006  0.3349977E+03  0.7546771E-02  0.1094699E+00
         21   -1    0    0  501  502  0.00000000000E+00  0.00000000000E+00  0.75448820096E+02  0.75448820096E+02  0.00000000000E+00 0. -1.
          2   -1    0    0  502    0 -0.00000000000E+00 -0.00000000000E+00 -0.95297832418E+03  0.95297832418E+03  0.00000000000E+00 0. -1.
         23    2    1    2    0    0  0.13010109227E+03 -0.61189062492E+02 -0.48049012974E+03  0.50894302440E+03  0.86497640060E+02 0.  0.
         23    2    1    2    0    0 -0.17697577564E+03  0.13960937493E+03 -0.29562018848E+03  0.38298198580E+03  0.92047286112E+02 0.  0.
        -13    1    3    3    0    0  0.10385834787E+03 -0.77012383992E+02 -0.31268509607E+03  0.33836287181E+03  0.00000000000E+00 0.  1.
         13    1    3    3    0    0  0.26242744390E+02  0.15823321500E+02 -0.16780503366E+03  0.17058015260E+03  0.00000000000E+00 0. -1.
        -13    1    4    4    0    0 -0.74380080573E+02  0.17920282112E+02 -0.14448670806E+03  0.16349294083E+03  0.00000000000E+00 0.  1.
         13    1    4    4    0    0 -0.10259569506E+03  0.12168909282E+03 -0.15113348043E+03  0.21948904497E+03  0.00000000000E+00 0. -1.
          2    1    1    2  501    0  0.46874683372E+02 -0.78420312438E+02 -0.10141918586E+03  0.13650213407E+03  0.00000000000E+00 0. -1.
<scales pt_clust_5="13000.00000" pt_clust_6="13000.00000" pt_clust_7="13000.00000" pt_clust_8="13000.00000" pt_clust_9="13000.00000"></scales>
<clustering>
<clus scale="   86.498">  5  6 -1 -1</clus>
<clus scale="   92.047">  7  8 -1 -1</clus>
<clus scale="   91.362">  7  9 -1 -1</clus>
<clus scale="  167.786">  2  5  1 -1</clus>
<clus scale="  334.998">  1  5  2 -1</clus>
</clustering>
</event>
<event>
 9    1  0.3312826E-006  0.1410574E+03  0.7546771E-02  0.1229812E+00
          1   -1    0    0  502    0 -0.00000000000E+00  0.00000000000E+00  0.50955455682E+03  0.50955455682E+03  0.00000000000E+00 0. -1.
         21   -1    0    0  501  502  0.00000000000E+00 -0.00000000000E+00 -0.35010837249E+02  0.35010837249E+02  0.00000000000E+00 0.  1.
         23    2    1    2    0    0 -0.25829454494E+02 -0.24289567508E+02  0.32434199002E+03  0.33851264316E+03  0.90199441709E+02 0.  0.
         23    2    1    2    0    0  0.39969918709E+01  0.49595114455E+01  0.15124163501E+03  0.17687418180E+03  0.91487000873E+02 0.  0.
        -11    1    3    3    0    0 -0.36936228512E+02  0.26151440682E+02  0.15410131591E+03  0.16060945922E+03  0.00000000000E+00 0. -1.
         11    1    3    3    0    0  0.11106774018E+02 -0.50441008190E+02  0.17024067410E+03  0.17790318394E+03  0.00000000000E+00 0.  1.
        -11    1    4    4    0    0 -0.14551706468E+02  0.30268828651E+02  0.13931401580E+03  0.14330509114E+03  0.00000000000E+00 0. -1.
         11    1    4    4    0    0  0.18548698339E+02 -0.25309317206E+02  0.11927619209E+02  0.33569090656E+02  0.00000000000E+00 0.  1.
          1    1    1    2  501    0  0.21832462623E+02  0.19330056062E+02 -0.10399054585E+01  0.29178569103E+02  0.00000000000E+00 0. -1.
<scales pt_clust_5="13000.00000" pt_clust_6="13000.00000" pt_clust_7="13000.00000" pt_clust_8="13000.00000" pt_clust_9="13000.00000"></scales>
<clustering>
<clus scale="   90.199">  5  6 -1 -1</clus>
<clus scale="   91.487">  7  8 -1 -1</clus>
<clus scale="   29.160">  7  9 -1 -1</clus>
<clus scale="   96.918">  1  5  2 -1</clus>
<clus scale="  141.057">  2  5  1 -1</clus>
</clustering>
</event>
<event>
 9    1  0.3312826E-006  0.3967913E+03  0.7546771E-02  0.1087870E+00
          2   -1    0    0  502    0 -0.00000000000E+00  0.00000000000E+00  0.26709498925E+03  0.26709498925E+03  0.00000000000E+00 0. -1.
         21   -1    0    0  501  502  0.00000000000E+00 -0.00000000000E+00 -0.25085185891E+03  0.25085185891E+03  0.00000000000E+00 0. -1.
         23    2    1    2    0    0 -0.12228860834E+02  0.79564450490E+02  0.28551802508E+01  0.12092980068E+03  0.90198768385E+02 0.  0.
         23    2    1    2    0    0  0.28813829484E+02 -0.22559153278E+03 -0.24565260329E+02  0.24522964310E+03  0.88387495787E+02 0.  0.
        -11    1    3    3    0    0  0.15912808238E+02  0.86779636291E+02  0.14907494546E+02  0.89477126320E+02  0.00000000000E+00 0.  1.
         11    1    3    3    0    0 -0.28141669072E+02 -0.72151858008E+01 -0.12052314295E+02  0.31452674357E+02  0.00000000000E+00 0. -1.
        -13    1    4    4    0    0  0.33039832517E+01 -0.20923277203E+03 -0.53119184608E+01  0.20932626609E+03  0.00000000000E+00 0. -1.
         13    1    4    4    0    0  0.25509846232E+02 -0.16358760746E+02 -0.19253341868E+02  0.35903377014E+02  0.00000000000E+00 0.  1.
          2    1    1    2  501    0 -0.16584968649E+02  0.14602708229E+03  0.37953210422E+02  0.15178740438E+03  0.00000000000E+00 0. -1.
<scales pt_clust_5="13000.00000" pt_clust_6="13000.00000" pt_clust_7="13000.00000" pt_clust_8="13000.00000" pt_clust_9="13000.00000"></scales>
<clustering>
<clus scale="   88.387">  7  8 -1 -1</clus>
<clus scale="   90.199">  5  6 -1 -1</clus>
<clus scale="  120.896">  1  5  2 -1</clus>
<clus scale="  184.160">  7  9 -1 -1</clus>
<clus scale="  396.791">  2  5  1 -1</clus>
</clustering>
</event>
<event>
 9    1  0.3312826E-006  0.1431629E+03  0.7546771E-02  0.1218898E+00
         -1   -1    0    0    0  501 -0.00000000000E+00  0.00000000000E+00  0.51449518194E+03  0.51449518194E+03  0.00000000000E+00 0.  1.
         21   -1    0    0  501  502  0.00000000000E+00 -0.00000000000E+00 -0.17694023751E+03  0.17694023751E+03  0.00000000000E+00 0. -1.
         23    2    1    2    0    0 -0.22247973388E+02  0.66660424101E+02 -0.14624058190E+03  0.18690224329E+03  0.92776916798E+02 0.  0.
         23    2    1    2    0    0  0.60813359206E+01 -0.43659490915E+02  0.26020844855E+03  0.27918547939E+03  0.91065698316E+02 0.  0.
        -13    1    4    4    0    0 -0.35997637412E+02 -0.46545763859E+02  0.14390374896E+03  0.15546905479E+03  0.00000000000E+00 0. -1.
         13    1    4    4    0    0  0.42078973333E+02  0.28862729431E+01  0.11630469959E+03  0.12371642460E+03  0.00000000000E+00 0.  1.
        -13    1    3    3    0    0  0.31022145923E+02  0.52548005473E+01 -0.63726547696E+02  0.71070805172E+02  0.00000000000E+00 0.  1.
         13    1    3    3    0    0 -0.53270119312E+02  0.61405623554E+02 -0.82514034201E+02  0.11583143811E+03  0.00000000000E+00 0. -1.
         -1    1    1    2    0  502  0.16166637468E+02 -0.23000933186E+02  0.22358707778E+03  0.22534769678E+03  0.00000000000E+00 0.  1.
<scales pt_clust_5="13000.00000" pt_clust_6="13000.00000" pt_clust_7="13000.00000" pt_clust_8="13000.00000" pt_clust_9="13000.00000"></scales>
<clustering>
<clus scale="   91.066">  5  6 -1 -1</clus>
<clus scale="   28.114">  5  9 -1 -1</clus>
<clus scale="   92.777">  7  8 -1 -1</clus>
<clus scale="  116.388">  1  7  2 -1</clus>
<clus scale="  143.163">  2  5  1 -1</clus>
</clustering>
</event>
<event>
 9    1  0.3312826E-006  0.2150558E+03  0.7546771E-02  0.1168457E+00
          2   -1    0    0  502    0 -0.00000000000E+00  0.00000000000E+00  0.75818449660E+03  0.75818449660E+03  0.00000000000E+00 0. -1.
         21   -1    0    0  501  502  0.00000000000E+00 -0.00000000000E+00 -0.40897452055E+02  0.40897452055E+02  0.00000000000E+00 0. -1.
         23    2    1    2    0    0  0.42666949958E+02 -0.19150826726E+02  0.41676408278E+03  0.42953757931E+03  0.92860155957E+02 0.  0.
         23    2    1    2    0    0 -0.94761750844E+02 -0.87114826976E+01  0.27606640078E+03  0.30560455435E+03  0.90143256262E+02 0.  0.
        -13    1    3    3    0    0 -0.14666035755E+02 -0.39861822851E+02  0.15003555245E+03  0.15593179447E+03  0.00000000000E+00 0. -1.
         13    1    3    3    0    0  0.57332985713E+02  0.20710996126E+02  0.26672853033E+03  0.27360578485E+03  0.00000000000E+00 0.  1.
        -13    1    4    4    0    0 -0.31612796932E+02 -0.35048603205E+02  0.18935872126E+03  0.19515250148E+03  0.00000000000E+00 0. -1.
         13    1    4    4    0    0 -0.63148953911E+02  0.26337120508E+02  0.86707679517E+02  0.11045205287E+03  0.00000000000E+00 0.  1.
          2    1    1    2  501    0  0.52094800885E+02  0.27862309423E+02  0.24456560993E+02  0.63939814993E+02  0.00000000000E+00 0. -1.
<scales pt_clust_5="13000.00000" pt_clust_6="13000.00000" pt_clust_7="13000.00000" pt_clust_8="13000.00000" pt_clust_9="13000.00000"></scales>
<clustering>
<clus scale="   90.143">  7  8 -1 -1</clus>
<clus scale="   59.078">  7  9 -1 -1</clus>
<clus scale="   92.860">  5  6 -1 -1</clus>
<clus scale="  103.972">  1  5  2 -1</clus>
<clus scale="  215.056">  2  5  1 -1</clus>
</clustering>
</event>
<event>
 9    1  0.3312826E-006  0.2939845E+03  0.7546771E-02  0.1117116E+00
          1   -1    0    0  502    0 -0.00000000000E+00  0.00000000000E+00  0.24278190264E+03  0.24278190264E+03  0.00000000000E+00 0. -1.
         21   -1    0    0  501  502  0.00000000000E+00 -0.00000000000E+00 -0.19583258621E+03  0.19583258621E+03  0.00000000000E+00 0. -1.
         23    2    1    2    0    0 -0.76686088040E+02 -0.74278335733E+02  0.36980691634E+02  0.14446099493E+03  0.90018777178E+02 0.  0.
         23    2    1    2    0    0  0.53859614382E+02 -0.79540193151E+02  0.32398411955E+02  0.13704116761E+03  0.92212386015E+02 0.  0.
        -11    1    3    3    0    0 -0.37511222719E+02  0.13180360238E+02  0.27109998390E+02  0.48122403707E+02  0.00000000000E+00 0.  1.
         11    1    3    3    0    0 -0.39174865321E+02 -0.87458695971E+02  0.98706932433E+01  0.96338591224E+02  0.00000000000E+00 0. -1.
        -13    1    4    4    0    0  0.74155874507E+02 -0.38697147949E+02  0.49091657488E+01  0.83789396057E+02  0.00000000000E+00 0.  1.
         13    1    4    4    0    0 -0.20296260125E+02 -0.40843045203E+02  0.27489246206E+02  0.53251771553E+02  0.00000000000E+00 0. -1.
          1    1    1    2  501    0  0.22826473658E+02  0.15381852888E+03 -0.22429787153E+02  0.15711232631E+03  0.00000000000E+00 0. -1.
<scales pt_clust_5="13000.00000" pt_clust_6="13000.00000" pt_clust_7="13000.00000" pt_clust_8="13000.00000" pt_clust_9="13000.00000"></scales>
<clustering>
<clus scale="   90.019">  5  6 -1 -1</clus>
<clus scale="   92.212">  7  8 -1 -1</clus>
<clus scale="  139.647">  1  5  2 -1</clus>
<clus scale="  121.435">  7  9 -1 -1</clus>
<clus scale="  293.985">  2  5  1 -1</clus>
</clustering>
</event>
<event>
 9    1  0.3312826E-006  0.8233878E+03  0.7546771E-02  0.1003465E+00
          2   -1    0    0  502    0 -0.00000000000E+00  0.00000000000E+00  0.16267430856E+04  0.16267430856E+04  0.00000000000E+00 0. -1.
         21   -1    0    0  501  502  0.00000000000E+00 -0.00000000000E+00 -0.16238057204E+03  0.16238057204E+03  0.00000000000E+00 0.  1.
         23    2    1    2    0    0 -0.54076381060E+02  0.11545310048E+03  0.68786102814E+02  0.16875300200E+03  0.86558502435E+02 0.  0.
         23    2    1    2    0    0 -0.19897932722E+03 -0.37339976733E+03  0.96249583794E+03  0.10563383365E+04  0.10213855434E+03 0.  0.
        -11    1    4    4    0    0 -0.19002043154E+03 -0.35265936249E+03  0.82634679113E+03  0.91832750670E+03  0.00000000000E+00 0.  1.
         11    1    4    4    0    0 -0.89588956855E+01 -0.20740404840E+02  0.13614904681E+03  0.13801082984E+03  0.00000000000E+00 0. -1.
        -11    1    3    3    0    0 -0.16525602786E+02  0.30180765413E+02 -0.20210127859E+02  0.39905180321E+02  0.00000000000E+00 0.  1.
         11    1    3    3    0    0 -0.37550778274E+02  0.85272335064E+02  0.88996230674E+02  0.12884782167E+03  0.00000000000E+00 0. -1.
          2    1    1    2  501    0  0.25305570828E+03  0.25794666685E+03  0.43308057277E+03  0.56403231906E+03  0.00000000000E+00 0. -1.
<scales pt_clust_5="13000.00000" pt_clust_6="13000.00000" pt_clust_7="13000.00000" pt_clust_8="13000.00000" pt_clust_9="13000.00000"></scales>
<clustering>
<clus scale="   86.559">  7  8 -1 -1</clus>
<clus scale="  102.139">  5  6 -1 -1</clus>
<clus scale="  154.098">  1  7  2 -1</clus>
<clus scale="  378.145">  5  9 -1 -1</clus>
<clus scale="  823.388">  2  5  1 -1</clus>
</clustering>
</event>
<event>
 9    1  0.3312826E-006  0.3654740E+03  0.7546771E-02  0.1099424E+00
         21   -1    0    0  501  502  0.00000000000E+00  0.00000000000E+00  0.24983106436E+03  0.24983106436E+03  0.00000000000E+00 0.  1.
          2   -1    0    0  502    0 -0.00000000000E+00 -0.00000000000E+00 -0.46386141958E+03  0.46386141958E+03  0.00000000000E+00 0. -1.
         23    2    1    2    0    0 -0.11003412028E+02  0.62596614258E+02 -0.31454792324E+03  0.33464764306E+03  0.94917004774E+02 0.  0.
         23    2    1    2    0    0  0.28602454549E+02  0.71883411203E+02 -0.86418786746E+02  0.14809072362E+03  0.92072419903E+02 0.  0.
        -13    1    4    4    0    0  0.87195408595E+01  0.19548384423E+02 -0.89497365197E+02  0.92021454583E+02  0.00000000000E+00 0. -1.
         13    1    4    4    0    0  0.19882913689E+02  0.52335026779E+02  0.30785784517E+01  0.56069269034E+02  0.00000000000E+00 0.  1.
        -13    1    3    3    0    0 -0.51252938038E+02  0.47629078159E+02 -0.21870592635E+03  0.22962507477E+03  0.00000000000E+00 0. -1.
         13    1    3    3    0    0  0.40249526010E+02  0.14967536099E+02 -0.95841996898E+02  0.10502256829E+03  0.00000000000E+00 0.  1.
          2    1    1    2  501    0 -0.17599042521E+02 -0.13448002546E+03  0.18693635477E+03  0.23095411726E+03  0.00000000000E+00 0. -1.
<scales pt_clust_5="13000.00000" pt_clust_6="13000.00000" pt_clust_7="13000.00000" pt_clust_8="13000.00000" pt_clust_9="13000.00000"></scales>
<clustering>
<clus scale="   92.072">  5  6 -1 -1</clus>
<clus scale="   94.917">  7  8 -1 -1</clus>
<clus scale="  114.231">  2  7  1 -1</clus>
<clus scale="  126.079">  5  9 -1 -1</clus>
<clus scale="  365.474">  1  5  2 -1</clus>
</clustering>
</event>
<event>
 9    1  0.3312826E-006  0.1434440E+03  0.7546771E-02  0.1223154E+00
          2   -1    0    0  502    0 -0.00000000000E+00  0.00000000000E+00  0.20032194408E+03  0.20032194408E+03  0.00000000000E+00 0. -1.
         21   -1    0    0  501  502  0.00000000000E+00 -0.00000000000E+00 -0.12209158296E+03  0.12209158296E+03  0.00000000000E+00 0.  1.
         23    2    1    2    0    0  0.32932703190E+02  0.41001458517E+02  0.13203244208E+03  0.16921150656E+03  0.91838366997E+02 0.  0.
         23    2    1    2    0    0 -0.19140963748E+01 -0.12517310071E+02  0.77028917991E-01  0.84817379194E+02  0.83866769722E+02 0.  0.
        -13    1    3    3    0    0  0.51278539633E+02 -0.85182025671E+01  0.77336123948E+02  0.93182211120E+02  0.00000000000E+00 0. -1.
         13    1    3    3    0    0 -0.18345836443E+02  0.49519661084E+02  0.54696318129E+02  0.76029295443E+02  0.00000000000E+00 0.  1.
        -13    1    4    4    0    0  0.27898743461E+02 -0.26428142543E+02  0.22939355219E+02  0.44754894960E+02  0.00000000000E+00 0. -1.
         13    1    4    4    0    0 -0.29812839836E+02  0.13910832472E+02 -0.22862326301E+02  0.40062484235E+02  0.00000000000E+00 0.  1.
          2    1    1    2  501    0 -0.31018606815E+02 -0.28484148446E+02 -0.53879109882E+02  0.68384641281E+02  0.00000000000E+00 0. -1.
<scales pt_clust_5="13000.00000" pt_clust_6="13000.00000" pt_clust_7="13000.00000" pt_clust_8="13000.00000" pt_clust_9="13000.00000"></scales>
<clustering>
<clus scale="   83.867">  7  8 -1 -1</clus>
<clus scale="   42.113">  7  9 -1 -1</clus>
<clus scale="   91.838">  5  6 -1 -1</clus>
<clus scale="  105.830">  1  5  2 -1</clus>
<clus scale="  143.444">  2  5  1 -1</clus>
</clustering>
</event>
<event>
 9    1  0.3312826E-006  0.2975705E+03  0.7546771E-02  0.1130613E+00
          3   -1    0    0  502    0 -0.00000000000E+00  0.00000000000E+00  0.24161355110E+03  0.24161355110E+03  0.00000000000E+00 0. -1.
         21   -1    0    0  501  502  0.00000000000E+00 -0.00000000000E+00 -0.22666814449E+03  0.22666814449E+03  0.00000000000E+00 0. -1.
         23    2    1    2    0    0 -0.84787325496E+01  0.28741439328E+02  0.11895847951E+03  0.15305653023E+03  0.91527167330E+02 0.  0.
         23    2    1    2    0    0  0.43653091068E+02  0.31820715042E+02  0.70209635032E+02  0.12745253157E+03  0.91632989078E+02 0.  0.
        -11    1    4    4    0    0 -0.20468965910E+02  0.28040047534E+02  0.35760303141E+01  0.34900011804E+02  0.00000000000E+00 0. -1.
         11    1    4    4    0    0  0.64122056977E+02  0.37806675081E+01  0.66633604718E+02  0.92552519768E+02  0.00000000000E+00 0.  1.
        -13    1    3    3    0    0 -0.49552942598E+02  0.14605489999E+02  0.52451864003E+02  0.73620734142E+02  0.00000000000E+00 0.  1.
         13    1    3    3    0    0  0.41074210048E+02  0.14135949328E+02  0.66506615506E+02  0.79435796091E+02  0.00000000000E+00 0. -1.
          3    1    1    2  501    0 -0.35174358518E+02 -0.60562154370E+02 -0.17422270793E+03  0.18777263378E+03  0.00000000000E+00 0. -1.
<scales pt_clust_5="13000.00000" pt_clust_6="13000.00000" pt_clust_7="13000.00000" pt_clust_8="13000.00000" pt_clust_9="13000.00000"></scales>
<clustering>
<clus scale="   91.527">  7  8 -1 -1</clus>
<clus scale="   91.633">  5  6 -1 -1</clus>
<clus scale="   70.036">  5  9 -1 -1</clus>
<clus scale="   96.308">  1  7  2 -1</clus>
<clus scale="  297.570">  2  5  1 -1</clus>
</clustering>
</event>
<event>
 9    1  0.3312826E-006  0.1916340E+03  0.7546771E-02  0.1168436E+00
         21   -1    0    0  501  502  0.00000000000E+00  0.00000000000E+00  0.41966902275E+03  0.41966902275E+03  0.00000000000E+00 0. -1.
         -3   -1    0    0    0  501 -0.00000000000E+00 -0.00000000000E+00 -0.76730932341E+02  0.76730932341E+02  0.00000000000E+00 0.  1.
         23    2    1    2    0    0 -0.37119067068E+02 -0.10925763240E+03  0.69808907529E+02  0.16274871519E+03  0.91097779054E+02 0.  0.
         23    2    1    2    0    0 -0.45832276966E+01  0.55819877860E+02  0.95466691838E+02  0.14349699797E+03  0.91327073952E+02 0.  0.
        -13    1    3    3    0    0 -0.14770961948E+02 -0.57226656019E+02 -0.14810579415E+02  0.60929670429E+02  0.00000000000E+00 0.  1.
         13    1    3    3    0    0 -0.22348105119E+02 -0.52030976380E+02  0.84619486944E+02  0.10181904476E+03  0.00000000000E+00 0. -1.
        -13    1    4    4    0    0 -0.79460658368E+01  0.81139613558E+02  0.74764798606E+02  0.11061894938E+03  0.00000000000E+00 0.  1.
         13    1    4    4    0    0  0.33628381402E+01 -0.25319735698E+02  0.20701893232E+02  0.32878048597E+02  0.00000000000E+00 0. -1.
         -3    1    1    2    0  502  0.41702294764E+02  0.53437754539E+02  0.17766249104E+03  0.19015424192E+03  0.00000000000E+00 0.  1.
<scales pt_clust_5="13000.00000" pt_clust_6="13000.00000" pt_clust_7="13000.00000" pt_clust_8="13000.00000" pt_clust_9="13000.00000"></scales>
<clustering>
<clus scale="   91.098">  5  6 -1 -1</clus>
<clus scale="   91.327">  7  8 -1 -1</clus>
<clus scale="   67.784">  7  9 -1 -1</clus>
<clus scale="  147.017">  2  5  1 -1</clus>
<clus scale="  191.634">  1  5  2 -1</clus>
</clustering>
</event>
<event>
 9    1  0.3312826E-006  0.2695644E+03  0.7546771E-02  0.1106565E+00
         21   -1    0    0  501  502  0.00000000000E+00  0.00000000000E+00  0.12362246947E+03  0.12362246947E+03  0.00000000000E+00 0. -1.
          4   -1    0    0  502    0 -0.00000000000E+00 -0.00000000000E+00 -0.55961616904E+03  0.55961616904E+03  0.00000000000E+00 0. -1.
         23    2    1    2    0    0 -0.21441669317E+03  0.13055032243E+02 -0.11248144733E+03  0.26213869729E+03  0.99597532324E+02 0.  0.
         23    2    1    2    0    0  0.73945211889E+02 -0.21071361937E+02 -0.20356806547E+03  0.23621320147E+03  0.91895715976E+02 0.  0.
        -11    1    3    3    0    0 -0.67360526091E+02  0.99470130208E+01  0.12370504743E+02  0.69205584536E+02  0.00000000000E+00 0.  1.
         11    1    3    3    0    0 -0.14705616708E+03  0.31080192221E+01 -0.12485195207E+03  0.19293311275E+03  0.00000000000E+00 0. -1.
        -13    1    4    4    0    0  0.95421066163E+02 -0.11258300102E+02 -0.16757734233E+03  0.19316856589E+03  0.00000000000E+00 0. -1.
         13    1    4    4    0    0 -0.21475854275E+02 -0.98130618351E+01 -0.35990723149E+02  0.43044635579E+02  0.00000000000E+00 0.  1.
          4    1    1    2  501    0  0.14047148128E+03  0.80163296941E+01 -0.11994418676E+03  0.18488673975E+03  0.00000000000E+00 0. -1.
<scales pt_clust_5="13000.00000" pt_clust_6="13000.00000" pt_clust_7="13000.00000" pt_clust_8="13000.00000" pt_clust_9="13000.00000"></scales>
<clustering>
<clus scale="   91.896">  7  8 -1 -1</clus>
<clus scale="   99.598">  5  6 -1 -1</clus>
<clus scale="  140.700">  7  9 -1 -1</clus>
<clus scale="  236.780">  2  5  1 -1</clus>
<clus scale="  269.564">  1  5  2 -1</clus>
</clustering>
</event>
<event>
 9    1  0.3312826E-006  0.1823530E+03  0.7546771E-02  0.1192581E+00
         -1   -1    0    0    0  501 -0.00000000000E+00  0.00000000000E+00  0.12699712378E+03  0.12699712378E+03  0.00000000000E+00 0.  1.
         21   -1    0    0  501  502  0.00000000000E+00 -0.00000000000E+00 -0.20198770030E+03  0.20198770030E+03  0.00000000000E+00 0.  1.
         23    2    1    2    0    0  0.47034919093E+01 -0.40636471516E+02 -0.10469585036E+03  0.14422815313E+03  0.90371972527E+02 0.  0.
         23    2    1    2    0    0 -0.18406518453E+02  0.91143891682E+02  0.32316322774E+02  0.13235829307E+03  0.88478043126E+02 0.  0.
        -11    1    4    4    0    0  0.22927098786E+02  0.80584960355E+02  0.10487127569E+02  0.84436766511E+02  0.00000000000E+00 0.  1.
         11    1    4    4    0    0 -0.41333617239E+02  0.10558931326E+02  0.21829195204E+02  0.47921526562E+02  0.00000000000E+00 0. -1.
        -13    1    3    3    0    0 -0.41938915178E+02 -0.11785609225E+02 -0.55477112622E+02  0.70537105242E+02  0.00000000000E+00 0.  1.
         13    1    3    3    0    0  0.46642407087E+02 -0.28850862291E+02 -0.49218737737E+02  0.73691047884E+02  0.00000000000E+00 0. -1.
         -1    1    1    2    0  502  0.13703026543E+02 -0.50507420166E+02 -0.26110489301E+01  0.52398377883E+02  0.00000000000E+00 0.  1.
<scales pt_clust_5="13000.00000" pt_clust_6="13000.00000" pt_clust_7="13000.00000" pt_clust_8="13000.00000" pt_clust_9="13000.00000"></scales>
<clustering>
<clus scale="   88.478">  5  6 -1 -1</clus>
<clus scale="   52.333">  5  9 -1 -1</clus>
<clus scale="   90.372">  7  8 -1 -1</clus>
<clus scale="   99.200">  1  7  2 -1</clus>
<clus scale="  182.353">  2  5  1 -1</clus>
</clustering>
</event>
<event>
 9    1  0.3312826E-006  0.2900283E+03  0.7546771E-02  0.1127809E+00
         21   -1    0    0  501  502  0.00000000000E+00  0.00000000000E+00  0.14801427844E+03  0.14801427844E+03  0.00000000000E+00 0. -1.
         -3   -1    0    0    0  501 -0.00000000000E+00 -0.00000000000E+00 -0.50612828584E+03  0.50612828584E+03  0.00000000000E+00 0.  1.
         23    2    1    2    0    0  0.30954567598E+02 -0.53406728659E+02 -0.34639160069E+03  0.36387741701E+03  0.92785611292E+02 0.  0.
         23    2    1    2    0    0  0.44460896890E+02 -0.84671763504E+02 -0.84809155677E+01  0.13290038138E+03  0.91893996289E+02 0.  0.
        -11    1    3    3    0    0 -0.14176621304E+02  0.19033674232E+02 -0.11051009167E+03  0.11302980893E+03  0.00000000000E+00 0. -1.
         11    1    3    3    0    0  0.45131188902E+02 -0.72440402891E+02 -0.23588150902E+03  0.25084760808E+03  0.00000000000E+00 0.  1.
        -11    1    4    4    0    0  0.63093536377E+02 -0.59668600349E+02  0.21693990152E+02  0.89508465571E+02  0.00000000000E+00 0. -1.
         11    1    4    4    0    0 -0.18632639488E+02 -0.25003163155E+02 -0.30174905719E+02  0.43391915805E+02  0.00000000000E+00 0.  1.
         -3    1    1    2    0  502 -0.75415464487E+02  0.13807849216E+03 -0.32414911433E+01  0.15736476590E+03  0.00000000000E+00 0.  1.
<scales pt_clust_5="13000.00000" pt_clust_6="13000.00000" pt_clust_7="13000.00000" pt_clust_8="13000.00000" pt_clust_9="13000.00000"></scales>
<clustering>
<clus scale="   91.894">  7  8 -1 -1</clus>
<clus scale="   92.786">  5  6 -1 -1</clus>
<clus scale="  111.443">  2  5  1 -1</clus>
<clus scale="  124.515">  7  9 -1 -1</clus>
<clus scale="  290.028">  1  5  2 -1</clus>
</clustering>
</event>
<event>
 9    1  0.3312826E-006  0.2396344E+03  0.7546771E-02  0.1145772E+00
         21   -1    0    0  501  502  0.00000000000E+00  0.00000000000E+00  0.10569817203E+03  0.10569817203E+03  0.00000000000E+00 0.  1.
          2   -1    0    0  502    0 -0.00000000000E+00 -0.00000000000E+00 -0.35374179938E+03  0.35374179938E+03  0.00000000000E+00 0. -1.
         23    2    1    2    0    0 -0.18059561781E+02  0.85845779478E+02 -0.15857183871E+03  0.20364741227E+03  0.92906376880E+02 0.  0.
         23    2    1    2    0    0 -0.74969091733E+02 -0.19950024222E+02 -0.40865628169E+02  0.13186056258E+03  0.98482689936E+02 0.  0.
        -11    1    4    4    0    0 -0.35557125707E+02 -0.29619086452E+02 -0.68569753968E+02  0.82724909369E+02  0.00000000000E+00 0. -1.
         11    1    4    4    0    0 -0.39411966026E+02  0.96690622308E+01  0.27704125799E+02  0.49135653214E+02  0.00000000000E+00 0.  1.
        -13    1    3    3    0    0 -0.13210434171E+02  0.10588905246E+03 -0.13880276002E+03  0.17508059056E+03  0.00000000000E+00 0.  1.
         13    1    3    3    0    0 -0.48491276097E+01 -0.20043272978E+02 -0.19769078694E+02  0.28566821711E+02  0.00000000000E+00 0. -1.
          2    1    1    2  501    0  0.93028653514E+02 -0.65895755256E+02 -0.48606160472E+02  0.12393199656E+03  0.00000000000E+00 0. -1.
<scales pt_clust_5="13000.00000" pt_clust_6="13000.00000" pt_clust_7="13000.00000" pt_clust_8="13000.00000" pt_clust_9="13000.00000"></scales>
<clustering>
<clus scale="   92.906">  7  8 -1 -1</clus>
<clus scale="   98.483">  5  6 -1 -1</clus>
<clus scale="  114.003">  5  9 -1 -1</clus>
<clus scale="  127.778">  2  7  1 -1</clus>
<clus scale="  239.634">  1  5  2 -1</clus>
</clustering>
</event>
<event>
 9    1  0.3312826E-006  0.1674522E+03  0.7546771E-02  0.1193883E+00
         -3   -1    0    0    0  501 -0.00000000000E+00  0.00000000000E+00  0.16907833205E+03  0.16907833205E+03  0.00000000000E+00 0.  1.
         21   -1    0    0  501  502  0.00000000000E+00 -0.00000000000E+00 -0.15442151760E+03  0.15442151760E+03  0.00000000000E+00 0.  1.
         23    2    1    2    0    0  0.24483050621E+02 -0.83521561923E+02  0.75192481940E+02  0.14544140806E+03  0.89016980199E+02 0.  0.
         23    2    1    2    0    0  0.59783528693E+01  0.74165967977E+02 -0.11066723548E+02  0.11921457483E+03  0.92484111999E+02 0.  0.
        -11    1    3    3    0    0 -0.20362015270E+02  0.31549115108E+01  0.33475019640E+02  0.39308295211E+02  0.00000000000E+00 0. -1.
         11    1    3    3    0    0  0.44845065892E+02 -0.86676473433E+02  0.41717462300E+02  0.10613311285E+03  0.00000000000E+00 0.  1.
        -13    1    4    4    0    0 -0.17667748562E+02  0.88358462278E+02 -0.15031523693E+02  0.91352689615E+02  0.00000000000E+00 0. -1.
         13    1    4    4    0    0  0.23646101431E+02 -0.14192494301E+02  0.39648001450E+01  0.27861885212E+02  0.00000000000E+00 0.  1.
         -3    1    1    2    0  502 -0.30461403491E+02  0.93555939453E+01 -0.49468943946E+02  0.58843866764E+02  0.00000000000E+00 0.  1.
<scales pt_clust_5="13000.00000" pt_clust_6="13000.00000" pt_clust_7="13000.00000" pt_clust_8="13000.00000" pt_clust_9="13000.00000"></scales>
<clustering>
<clus scale="   89.017">  5  6 -1 -1</clus>
<clus scale="   92.484">  7  8 -1 -1</clus>
<clus scale="   31.866">  7  9 -1 -1</clus>
<clus scale="  124.496">  1  5  2 -1</clus>
<clus scale="  167.452">  2  5  1 -1</clus>
</clustering>
</event>
<event>
 9    1  0.3312826E-006  0.3334564E+03  0.7546771E-02  0.1110768E+00
         21   -1    0    0  501  502  0.00000000000E+00  0.00000000000E+00  0.11295082592E+03  0.11295082592E+03  0.00000000000E+00 0. -1.
          2   -1    0    0  502    0 -0.00000000000E+00 -0.00000000000E+00 -0.47974273128E+03  0.47974273128E+03  0.00000000000E+00 0. -1.
         23    2    1    2    0    0  0.25420142251E+02 -0.77118551275E+00 -0.17515014732E+03  0.20809020185E+03  0.10944030173E+03 0.  0.
         23    2    1    2    0    0  0.25670078821E+02 -0.14335036696E+03 -0.14528278272E+03  0.22482104353E+03  0.90714574363E+02 0.  0.
        -11    1    3    3    0    0 -0.25555283859E+01  0.48095234777E+02 -0.43482084525E+02  0.64887394833E+02  0.00000000000E+00 0. -1.
         11    1    3    3    0    0  0.27975670637E+02 -0.48866420290E+02 -0.13166806279E+03  0.14320280702E+03  0.00000000000E+00 0.  1.
        -13    1    4    4    0    0  0.42625346361E+02 -0.22108907300E+02 -0.52975451087E+02  0.71499107352E+02  0.00000000000E+00 0.  1.
         13    1    4    4    0    0 -0.16955267540E+02 -0.12124145966E+03 -0.92307331635E+02  0.15332193617E+03  0.00000000000E+00 0. -1.
          2    1    1    2  501    0 -0.51090221072E+02  0.14412155248E+03 -0.46358975321E+02  0.15978231182E+03  0.00000000000E+00 0. -1.
<scales pt_clust_5="13000.00000" pt_clust_6="13000.00000" pt_clust_7="13000.00000" pt_clust_8="13000.00000" pt_clust_9="13000.00000"></scales>
<clustering>
<clus scale="   90.715">  7  8 -1 -1</clus>
<clus scale="  109.440">  5  6 -1 -1</clus>
<clus scale="  112.356">  2  5  1 -1</clus>
<clus scale="  149.851">  7  9 -1 -1</clus>
<clus scale="  333.456">  1  5  2 -1</clus>
</clustering>
</event>
<event>
 9    1  0.3312826E-006  0.1196167E+04  0.7546771E-02  0.9447001E-01
         21   -1    0    0  501  502  0.00000000000E+00  0.00000000000E+00  0.11503931664E+04  0.11503931664E+04  0.00000000000E+00 0. -1.
          1   -1    0    0  502    0 -0.00000000000E+00 -0.00000000000E+00 -0.59785247966E+03  0.59785247966E+03  0.00000000000E+00 0. -1.
         23    2    1    2    0    0 -0.31117362706E+03 -0.14178312048E+03 -0.12117776983E+03  0.37539726665E+03  0.96475781843E+02 0.  0.
         23    2    1    2    0    0 -0.64422050916E+02  0.20158337561E+03 -0.27016081342E+03  0.35522553171E+03  0.91718347715E+02 0.  0.
        -11    1    3    3    0    0 -0.24495824161E+03 -0.11104742623E+03 -0.13525987758E+03  0.30105033713E+03  0.00000000000E+00 0. -1.
         11    1    3    3    0    0 -0.66215385447E+02 -0.30735694248E+02  0.14082107746E+02  0.74346929522E+02  0.00000000000E+00 0.  1.
        -11    1    4    4    0    0 -0.84581314728E+02  0.18561911806E+03 -0.22882792633E+03  0.30654636788E+03  0.00000000000E+00 0.  1.
         11    1    4    4    0    0  0.20159263812E+02  0.15964257545E+02 -0.41332887086E+02  0.48679163831E+02  0.00000000000E+00 0. -1.
          1    1    1    2  501    0  0.37559567797E+03 -0.59800255134E+02  0.94387927002E+03  0.10176228477E+04  0.00000000000E+00 0. -1.
<scales pt_clust_5="13000.00000" pt_clust_6="13000.00000" pt_clust_7="13000.00000" pt_clust_8="13000.00000" pt_clust_9="13000.00000"></scales>
<clustering>
<clus scale="   91.718">  7  8 -1 -1</clus>
<clus scale="   96.476">  5  6 -1 -1</clus>
<clus scale="  355.301">  2  5  1 -1</clus>
<clus scale="  350.831">  7  9 -1 -1</clus>
<clus scale=" 1196.167">  1  5  2 -1</clus>
</clustering>
</event>
<event>
 9    1  0.3312826E-006  0.3001503E+03  0.7546771E-02  0.1127806E+00
         -3   -1    0    0    0  501 -0.00000000000E+00  0.00000000000E+00  0.68566627941E+03  0.68566627941E+03  0.00000000000E+00 0.  1.
         21   -1    0    0  501  502  0.00000000000E+00 -0.00000000000E+00 -0.59820619081E+02  0.59820619081E+02  0.00000000000E+00 0.  1.
         23    2    1    2    0    0 -0.24209436919E+02 -0.28887377147E+02  0.20778899249E+03  0.23083984801E+03  0.93221202700E+02 0.  0.
         23    2    1    2    0    0 -0.10089917558E+02 -0.70633570166E+02  0.38848332306E+03  0.40530608198E+03  0.90900055705E+02 0.  0.
        -11    1    3    3    0    0  0.24869453132E+02  0.10514075298E+02  0.22478239220E+02  0.35132701531E+02  0.00000000000E+00 0. -1.
         11    1    3    3    0    0 -0.49078890051E+02 -0.39401452445E+02  0.18531075327E+03  0.19570714648E+03  0.00000000000E+00 0.  1.
        -11    1    4    4    0    0  0.22047805312E+02 -0.21398975242E+01  0.22462647556E+02  0.31547668943E+02  0.00000000000E+00 0. -1.
         11    1    4    4    0    0 -0.32137722870E+02 -0.68493672642E+02  0.36602067550E+03  0.37375841304E+03  0.00000000000E+00 0.  1.
         -3    1    1    2    0  502  0.34299354477E+02  0.99520947313E+02  0.29573344780E+02  0.10934096850E+03  0.00000000000E+00 0.  1.
<scales pt_clust_5="13000.00000" pt_clust_6="13000.00000" pt_clust_7="13000.00000" pt_clust_8="13000.00000" pt_clust_9="13000.00000"></scales>
<clustering>
<clus scale="   90.900">  7  8 -1 -1</clus>
<clus scale="   93.221">  5  6 -1 -1</clus>
<clus scale="  100.552">  1  5  2 -1</clus>
<clus scale="  100.043">  7  9 -1 -1</clus>
<clus scale="  300.150">  2  5  1 -1</clus>
</clustering>
</event>
<event>
 9    1  0.3312826E-006  0.2817519E+03  0.7546771E-02  0.1120664E+00
          1   -1    0    0  502    0 -0.00000000000E+00  0.00000000000E+00  0.23613599933E+03  0.23613599933E+03  0.00000000000E+00 0. -1.
         21   -1    0    0  501  502  0.00000000000E+00 -0.00000000000E+00 -0.20963589361E+03  0.20963589361E+03  0.00000000000E+00 0. -1.
         23    2    1    2    0    0  0.51263516321E+02 -0.10138536201E+03  0.69219310721E+02  0.16079984304E+03  0.90323511942E+02 0.  0.
         23    2    1    2    0    0 -0.46735626155E+02  0.37804569164E+01  0.75780038162E+02  0.13138399725E+03  0.96543409628E+02 0.  0.
        -13    1    4    4    0    0 -0.10565196711E+02 -0.38222240837E+02  0.63092737597E+02  0.74520175883E+02  0.00000000000E+00 0. -1.
         13    1    4    4    0    0 -0.36170429444E+02  0.42002697754E+02  0.12687300566E+02  0.56863821366E+02  0.00000000000E+00 0.  1.
        -13    1    3    3    0    0  0.63076055807E+02 -0.77799297880E+02  0.83861740327E+02  0.13062967143E+03  0.00000000000E+00 0. -1.
         13    1    3    3    0    0 -0.11812539487E+02 -0.23586064130E+02 -0.14642429606E+02  0.30170171611E+02  0.00000000000E+00 0.  1.
          1    1    1    2  501    0 -0.45278901660E+01  0.97604905094E+02 -0.11849924316E+03  0.15358805265E+03  0.00000000000E+00 0. -1.
<scales pt_clust_5="13000.00000" pt_clust_6="13000.00000" pt_clust_7="13000.00000" pt_clust_8="13000.00000" pt_clust_9="13000.00000"></scales>
<clustering>
<clus scale="   90.324">  7  8 -1 -1</clus>
<clus scale="   96.543">  5  6 -1 -1</clus>
<clus scale="   97.710">  5  9 -1 -1</clus>
<clus scale="  145.139">  1  7  2 -1</clus>
<clus scale="  281.752">  2  5  1 -1</clus>
</clustering>
</event>
<event>
 9    1  0.3312826E-006  0.1776857E+03  0.7546771E-02  0.1193597E+00
          2   -1    0    0  502    0 -0.00000000000E+00  0.00000000000E+00  0.11364723427E+03  0.11364723427E+03  0.00000000000E+00 0. -1.
         21   -1    0    0  501  502  0.00000000000E+00 -0.00000000000E+00 -0.17680210066E+03  0.17680210066E+03  0.00000000000E+00 0.  1.
         23    2    1    2    0    0 -0.27875535448E+02 -0.46604262290E+02 -0.35019693720E+02  0.11054997872E+03  0.89699030694E+02 0.  0.
         23    2    1    2    0    0 -0.47059971487E+01  0.73339680879E+02  0.15630202015E+02  0.11913960888E+03  0.92461278314E+02 0.  0.
        -11    1    3    3    0    0 -0.28144079431E+02 -0.85837002955E+01 -0.58767103832E+02  0.65721698172E+02  0.00000000000E+00 0.  1.
         11    1    3    3    0    0  0.26854398365E+00 -0.38020561994E+02  0.23747410112E+02  0.44828280552E+02  0.00000000000E+00 0. -1.
        -13    1    4    4    0    0 -0.41707922726E+02  0.16260930361E+02 -0.10987205116E+02  0.46094331003E+02  0.00000000000E+00 0. -1.
         13    1    4    4    0    0  0.37001925577E+02  0.57078750518E+02  0.26617407131E+02  0.73045277873E+02  0.00000000000E+00 0.  1.
          2    1    1    2  501    0  0.32581532597E+02 -0.26735418589E+02 -0.43765374692E+02  0.60759747329E+02  0.00000000000E+00 0. -1.
<scales pt_clust_5="13000.00000" pt_clust_6="13000.00000" pt_clust_7="13000.00000" pt_clust_8="13000.00000" pt_clust_9="13000.00000"></scales>
<clustering>
<clus scale="   89.699">  5  6 -1 -1</clus>
<clus scale="   92.461">  7  8 -1 -1</clus>
<clus scale="   42.147">  7  9 -1 -1</clus>
<clus scale="  104.857">  1  5  2 -1</clus>
<clus scale="  177.686">  2  5  1 -1</clus>
</clustering>
</event>
<event>
 9    1  0.3312826E-006  0.2267194E+03  0.7546771E-02  0.1166493E+00
         -1   -1    0    0    0  501 -0.00000000000E+00  0.00000000000E+00  0.11500761966E+03  0.11500761966E+03  0.00000000000E+00 0.  1.
         21   -1    0    0  501  502  0.00000000000E+00 -0.00000000000E+00 -0.29242901533E+03  0.29242901533E+03  0.00000000000E+00 0. -1.
         23    2    1    2    0    0  0.14796966645E+02 -0.87824507257E+01  0.32596885551E+02  0.98390746885E+02  0.91225547202E+02 0.  0.
         23    2    1    2    0    0  0.51792553457E+02 -0.68450057375E+02 -0.10062844621E+03  0.15949602854E+03  0.89134841582E+02 0.  0.
        -11    1    4    4    0    0  0.18311069030E+02 -0.93088465014E+01 -0.88007675571E+02  0.90373120072E+02  0.00000000000E+00 0. -1.
         11    1    4    4    0    0  0.33481484427E+02 -0.59141210874E+02 -0.12620770641E+02  0.69122908465E+02  0.00000000000E+00 0.  1.
        -13    1    3    3    0    0  0.10119855434E+02  0.40993560856E+02  0.93110886243E+01  0.43238638705E+02  0.00000000000E+00 0. -1.
         13    1    3    3    0    0  0.46771112115E+01 -0.49776011582E+02  0.23285796927E+02  0.55152108181E+02  0.00000000000E+00 0.  1.
         -1    1    1    2    0  502 -0.66589520102E+02  0.77232508101E+02 -0.10938983501E+03  0.14954985957E+03  0.00000000000E+00 0.  1.
<scales pt_clust_5="13000.00000" pt_clust_6="13000.00000" pt_clust_7="13000.00000" pt_clust_8="13000.00000" pt_clust_9="13000.00000"></scales>
<clustering>
<clus scale="   89.135">  5  6 -1 -1</clus>
<clus scale="   91.226">  7  8 -1 -1</clus>
<clus scale="   92.834">  1  7  2 -1</clus>
<clus scale="   95.385">  5  9 -1 -1</clus>
<clus scale="  226.719">  2  5  1 -1</clus>
</clustering>
</event>
<event>
 9    1  0.3312826E-006  0.2455474E+03  0.7546771E-02  0.1120905E+00
          3   -1    0    0  502    0 -0.00000000000E+00  0.00000000000E+00  0.71679812844E+03  0.71679812844E+03  0.00000000000E+00 0. -1.
         21   -1    0    0  501  502  0.00000000000E+00 -0.00000000000E+00 -0.75026144408E+02  0.75026144408E+02  0.00000000000E+00 0. -1.
         23    2    1    2    0    0 -0.13289941498E+03 -0.14852875174E+03  0.31611266957E+03  0.38396702591E+03  0.88206646698E+02 0.  0.
         23    2    1    2    0    0  0.35817806382E+02  0.32721412786E+02  0.19028934430E+03  0.20497499709E+03  0.58746138337E+02 0.  0.
        -11    1    4    4    0    0  0.12480564950E+02 -0.16821097910E+02  0.42893046299E+02  0.47733921452E+02  0.00000000000E+00 0. -1.
         11    1    4    4    0    0  0.23337241432E+02  0.49542510696E+02  0.14739629800E+03  0.15724107564E+03  0.00000000000E+00 0.  1.
        -13    1    3    3    0    0 -0.13860590653E+03 -0.12134753436E+03  0.29945085592E+03  0.35157877713E+03  0.00000000000E+00 0. -1.
         13    1    3    3    0    0  0.57064915522E+01 -0.27181217383E+02  0.16661813656E+02  0.32388248773E+02  0.00000000000E+00 0.  1.
          3    1    1    2  501    0  0.97081608596E+02  0.11580733896E+03  0.13536997016E+03  0.20288224985E+03  0.00000000000E+00 0. -1.
<scales pt_clust_5="13000.00000" pt_clust_6="13000.00000" pt_clust_7="13000.00000" pt_clust_8="13000.00000" pt_clust_9="13000.00000"></scales>
<clustering>
<clus scale="   58.746">  5  6 -1 -1</clus>
<clus scale="   88.207">  7  8 -1 -1</clus>
<clus scale="  151.117">  5  9 -1 -1</clus>
<clus scale="  217.953">  1  7  2 -1</clus>
<clus scale="  245.547">  2  5  1 -1</clus>
</clustering>
</event>
<event>
 9    1  0.3312826E-006  0.5168063E+03  0.7546771E-02  0.1059042E+00
         21   -1    0    0  501  502  0.00000000000E+00  0.00000000000E+00  0.40400055481E+03  0.40400055481E+03  0.00000000000E+00 0. -1.
          2   -1    0    0  502    0 -0.00000000000E+00 -0.00000000000E+00 -0.57843878258E+03  0.57843878258E+03  0.00000000000E+00 0. -1.
         23    2    1    2    0    0  0.65726885474E+02 -0.33892494922E+02 -0.40066623596E+03  0.41828696446E+03  0.94666928298E+02 0.  0.
         23    2    1    2    0    0  0.16010904628E+03  0.46977191557E+02 -0.60184957410E+02  0.19917913524E+03  0.90599865273E+02 0.  0.
        -11    1    4    4    0    0  0.67181476854E+02  0.46483394759E+01 -0.69335558145E+02  0.96655975063E+02  0.00000000000E+00 0. -1.
         11    1    4    4    0    0  0.92927569430E+02  0.42328852081E+02  0.91506007343E+01  0.10252316018E+03  0.00000000000E+00 0.  1.
        -11    1    3    3    0    0  0.25547967472E+02  0.32123915978E+02 -0.10640974507E+03  0.11405120984E+03  0.00000000000E+00 0. -1.
         11    1    3    3    0    0  0.40178918002E+02 -0.66016410900E+02 -0.29425649089E+03  0.30423575462E+03  0.00000000000E+00 0.  1.
          2    1    1    2  501    0 -0.22583593176E+03 -0.13084696635E+02  0.28641296560E+03  0.36497323768E+03  0.00000000000E+00 0. -1.
<scales pt_clust_5="13000.00000" pt_clust_6="13000.00000" pt_clust_7="13000.00000" pt_clust_8="13000.00000" pt_clust_9="13000.00000"></scales>
<clustering>
<clus scale="   90.600">  5  6 -1 -1</clus>
<clus scale="   94.667">  7  8 -1 -1</clus>
<clus scale="  120.127">  2  7  1 -1</clus>
<clus scale="  211.597">  5  9 -1 -1</clus>
<clus scale="  516.806">  1  5  2 -1</clus>
</clustering>
</event>
<event>
 9    1  0.3312826E-006  0.1433077E+03  0.7546771E-02  0.1227949E+00
          1   -1    0    0  502    0 -0.00000000000E+00  0.00000000000E+00  0.21514410202E+03  0.21514410202E+03  0.00000000000E+00 0. -1.
         21   -1    0    0  501  502  0.00000000000E+00 -0.00000000000E+00 -0.80344348693E+02  0.80344348693E+02  0.00000000000E+00 0.  1.
         23    2    1    2    0    0  0.79781386751E+00  0.23048740899E+02  0.11653684023E+03  0.15102178498E+03  0.93246251637E+02 0.  0.
         23    2    1    2    0    0  0.41512030705E+02 -0.39430089677E+02  0.71996955064E+01  0.97766919276E+02  0.78921189957E+02 0.  0.
        -11    1    3    3    0    0 -0.42848516105E+02 -0.20372742721E+00  0.75270350743E+02  0.86612138516E+02  0.00000000000E+00 0. -1.
         11    1    3    3    0    0  0.43646329973E+02  0.23252468326E+02  0.41266489484E+02  0.64409646465E+02  0.00000000000E+00 0.  1.
        -11    1    4    4    0    0  0.50764211531E+02  0.25426261947E+01 -0.94048838270E+01  0.51690637064E+02  0.00000000000E+00 0.  1.
         11    1    4    4    0    0 -0.92521808253E+01 -0.41972715872E+02  0.16604579333E+02  0.46076282212E+02  0.00000000000E+00 0. -1.
          1    1    1    2  501    0 -0.42309844573E+02  0.16381348778E+02  0.11063217593E+02  0.46699746456E+02  0.00000000000E+00 0. -1.
<scales pt_clust_5="13000.00000" pt_clust_6="13000.00000" pt_clust_7="13000.00000" pt_clust_8="13000.00000" pt_clust_9="13000.00000"></scales>
<clustering>
<clus scale="   78.921">  7  8 -1 -1</clus>
<clus scale="   45.370">  7  9 -1 -1</clus>
<clus scale="   93.246">  5  6 -1 -1</clus>
<clus scale="   96.056">  1  5  2 -1</clus>
<clus scale="  143.308">  2  5  1 -1</clus>
</clustering>
</event>
<event>
 9    1  0.3312826E-006  0.1944074E+03  0.7546771E-02  0.1179856E+00
         -1   -1    0    0    0  501 -0.00000000000E+00  0.00000000000E+00  0.37770270614E+03  0.37770270614E+03  0.00000000000E+00 0.  1.
         21   -1    0    0  501  502  0.00000000000E+00 -0.00000000000E+00 -0.74586982939E+02  0.74586982939E+02  0.00000000000E+00 0.  1.
         23    2    1    2    0    0  0.88545299075E+01  0.49234217475E+02  0.21064052436E+03  0.23700874348E+03  0.96443263703E+02 0.  0.
         23    2    1    2    0    0 -0.28587300155E+01  0.39480658792E+02  0.62286679019E+02  0.12137873254E+03  0.96365302753E+02 0.  0.
        -11    1    3    3    0    0  0.35574664468E+02 -0.49351614850E+01  0.30858265265E+02  0.47351294661E+02  0.00000000000E+00 0.  1.
         11    1    3    3    0    0 -0.26720134560E+02  0.54169378960E+02  0.17978225910E+03  0.18965744882E+03  0.00000000000E+00 0. -1.
        -11    1    4    4    0    0 -0.21945852335E+02  0.65667556435E+02  0.29436268758E+02  0.75235246536E+02  0.00000000000E+00 0.  1.
         11    1    4    4    0    0  0.19087122319E+02 -0.26186897643E+02  0.32850410260E+02  0.46143486007E+02  0.00000000000E+00 0. -1.
         -1    1    1    2    0  502 -0.59957998919E+01 -0.88714876267E+02  0.30188519821E+02  0.93902213054E+02  0.00000000000E+00 0.  1.
<scales pt_clust_5="13000.00000" pt_clust_6="13000.00000" pt_clust_7="13000.00000" pt_clust_8="13000.00000" pt_clust_9="13000.00000"></scales>
<clustering>
<clus scale="   96.365">  7  8 -1 -1</clus>
<clus scale="   88.917">  7  9 -1 -1</clus>
<clus scale="   96.443">  5  6 -1 -1</clus>
<clus scale="  108.645">  1  5  2 -1</clus>
<clus scale="  194.407">  2  5  1 -1</clus>
</clustering>
</event>
<event>
 9    1  0.3312826E-006  0.4541684E+03  0.7546771E-02  0.1036143E+00
         21   -1    0    0  501  502  0.00000000000E+00  0.00000000000E+00  0.11865825836E+03  0.11865825836E+03  0.00000000000E+00 0. -1.
          2   -1    0    0  502    0 -0.00000000000E+00 -0.00000000000E+00 -0.13886310030E+04  0.13886310030E+04  0.00000000000E+00 0. -1.
         23    2    1    2    0    0  0.25597915650E+03  0.20518508171E+03 -0.69775129738E+03  0.77673717518E+03  0.94008084786E+02 0.  0.
         23    2    1    2    0    0 -0.70021449116E+02 -0.16622263064E+03 -0.13118850584E+03  0.25033505508E+03  0.11368486911E+03 0.  0.
        -11    1    4    4    0    0 -0.56765932096E+01 -0.57546760684E+02 -0.10716986578E+03  0.12177534031E+03  0.00000000000E+00 0.  1.
         11    1    4    4    0    0 -0.64344855906E+02 -0.10867586995E+03 -0.24018640056E+02  0.12855971477E+03  0.00000000000E+00 0. -1.
        -13    1    3    3    0    0  0.23039467759E+03  0.16188511224E+03 -0.64534834624E+03  0.70410438503E+03  0.00000000000E+00 0.  1.
         13    1    3    3    0    0  0.25584478905E+02  0.43299969477E+02 -0.52402951135E+02  0.72632790152E+02  0.00000000000E+00 0. -1.
          2    1    1    2  501    0 -0.18595770738E+03 -0.38962451077E+02 -0.44103294144E+03  0.48021703111E+03  0.00000000000E+00 0. -1.
<scales pt_clust_5="13000.00000" pt_clust_6="13000.00000" pt_clust_7="13000.00000" pt_clust_8="13000.00000" pt_clust_9="13000.00000"></scales>
<clustering>
<clus scale="   94.008">  7  8 -1 -1</clus>
<clus scale="  113.685">  5  6 -1 -1</clus>
<clus scale="  189.996">  5  9 -1 -1</clus>
<clus scale="  341.268">  2  7  1 -1</clus>
<clus scale="  454.168">  1  5  2 -1</clus>
</clustering>
</event>
<event>
 9    1  0.3312826E-006  0.1610944E+03  0.7546771E-02  0.1204397E+00
         21   -1    0    0  501  502  0.00000000000E+00  0.00000000000E+00  0.65490914633E+02  0.65490914633E+02  0.00000000000E+00 0. -1.
         -1   -1    0    0    0  501 -0.00000000000E+00 -0.00000000000E+00 -0.29805805274E+03  0.29805805274E+03  0.00000000000E+00 0.  1.
         23    2    1    2    0    0 -0.15093198115E+02 -0.61878524325E+02 -0.56021761947E+02  0.12455171148E+03  0.91202711686E+02 0.  0.
         23    2    1    2    0    0 -0.64282023566E+01  0.12883278014E+01 -0.71006340372E+02  0.11541396144E+03  0.90749658668E+02 0.  0.
        -11    1    3    3    0    0 -0.18294566039E+02  0.11516329635E+02  0.11747349896E+02  0.24603195410E+02  0.00000000000E+00 0.  1.
         11    1    3    3    0    0  0.32013679241E+01 -0.73394853960E+02 -0.67769111843E+02  0.99948516069E+02  0.00000000000E+00 0. -1.
        -13    1    4    4    0    0 -0.31227953916E+02  0.33720092514E+00 -0.82389651325E+02  0.88109894199E+02  0.00000000000E+00 0.  1.
         13    1    4    4    0    0  0.24799751559E+02  0.95112687625E+00  0.11383310953E+02  0.27304067242E+02  0.00000000000E+00 0. -1.
         -1    1    1    2    0  502  0.21521400471E+02  0.60590196523E+02 -0.10553903579E+03  0.12358329446E+03  0.00000000000E+00 0.  1.
<scales pt_clust_5="13000.00000" pt_clust_6="13000.00000" pt_clust_7="13000.00000" pt_clust_8="13000.00000" pt_clust_9="13000.00000"></scales>
<clustering>
<clus scale="   90.750">  7  8 -1 -1</clus>
<clus scale="   64.299">  7  9 -1 -1</clus>
<clus scale="   91.203">  5  6 -1 -1</clus>
<clus scale="  111.242">  2  5  1 -1</clus>
<clus scale="  161.094">  1  5  2 -1</clus>
</clustering>
</event>
<event>
 9    1  0.3312826E-006  0.4525266E+03  0.7546771E-02  0.1061644E+00
         21   -1    0    0  501  502  0.00000000000E+00  0.00000000000E+00  0.70942866561E+02  0.70942866561E+02  0.00000000000E+00 0. -1.
          1   -1    0    0  502    0 -0.00000000000E+00 -0.00000000000E+00 -0.14604493261E+04  0.14604493261E+04  0.00000000000E+00 0. -1.
         23    2    1    2    0    0  0.37111983940E+02 -0.13375076024E+03 -0.58664086493E+03  0.60977756812E+03  0.91731199489E+02 0.  0.
         23    2    1    2    0    0  0.17302804368E+03  0.14179862650E+03 -0.41151191837E+03  0.47733847251E+03  0.92002195651E+02 0.  0.
        -11    1    4    4    0    0  0.40683741724E+02  0.65164813515E+02 -0.73407217309E+02  0.10625553780E+03  0.00000000000E+00 0.  1.
         11    1    4    4    0    0  0.13234430195E+03  0.76633812982E+02 -0.33810470106E+03  0.37108293470E+03  0.00000000000E+00 0. -1.
        -13    1    3    3    0    0 -0.16885841639E+02 -0.74277421682E+02 -0.38986678065E+03  0.39723843429E+03  0.00000000000E+00 0.  1.
         13    1    3    3    0    0  0.53997825579E+02 -0.59473338556E+02 -0.19677408427E+03  0.21253913383E+03  0.00000000000E+00 0. -1.
          1    1    1    2  501    0 -0.21014002762E+03 -0.80478662593E+01 -0.39135367627E+03  0.44427615206E+03  0.00000000000E+00 0. -1.
<scales pt_clust_5="13000.00000" pt_clust_6="13000.00000" pt_clust_7="13000.00000" pt_clust_8="13000.00000" pt_clust_9="13000.00000"></scales>
<clustering>
<clus scale="   91.731">  7  8 -1 -1</clus>
<clus scale="   92.002">  5  6 -1 -1</clus>
<clus scale="  166.377">  2  7  1 -1</clus>
<clus scale="  205.506">  5  9 -1 -1</clus>
<clus scale="  452.527">  1  5  2 -1</clus>
</clustering>
</event>
<event>
 9    1  0.3312826E-006  0.2037216E+03  0.7546771E-02  0.1177221E+00
         21   -1    0    0  501  502  0.00000000000E+00  0.00000000000E+00  0.54434984740E+03  0.54434984740E+03  0.00000000000E+00 0. -1.
          1   -1    0    0  502    0 -0.00000000000E+00 -0.00000000000E+00 -0.42942524104E+02  0.42942524104E+02  0.00000000000E+00 0. -1.
         23    2    1    2    0    0  0.51085724781E+01 -0.44828298899E+02  0.19684616265E+03  0.22087732798E+03  0.89457858070E+02 0.  0.
         23    2    1    2    0    0  0.51855968016E+01 -0.73398793271E+01  0.46807154991E+02  0.10323332651E+03  0.91572079263E+02 0.  0.
        -13    1    3    3    0    0  0.46539555113E+02 -0.32225293912E+02  0.10329276955E+03  0.11778707908E+03  0.00000000000E+00 0. -1.
         13    1    3    3    0    0 -0.41430982635E+02 -0.12603004988E+02  0.93553393098E+02  0.10309024889E+03  0.00000000000E+00 0.  1.
        -13    1    4    4    0    0 -0.26962631450E+02  0.31460652357E+02  0.17832160257E+02  0.45108115466E+02  0.00000000000E+00 0.  1.
         13    1    4    4    0    0  0.32148228251E+02 -0.38800531684E+02  0.28974994734E+02  0.58125211041E+02  0.00000000000E+00 0. -1.
          1    1    1    2  501    0 -0.10294169280E+02  0.52168178227E+02  0.25775400566E+03  0.26318171702E+03  0.00000000000E+00 0. -1.
<scales pt_clust_5="13000.00000" pt_clust_6="13000.00000" pt_clust_7="13000.00000" pt_clust_8="13000.00000" pt_clust_9="13000.00000"></scales>
<clustering>
<clus scale="   89.458">  5  6 -1 -1</clus>
<clus scale="   91.572">  7  8 -1 -1</clus>
<clus scale="   53.174">  7  9 -1 -1</clus>
<clus scale="  100.192">  2  5  1 -1</clus>
<clus scale="  203.722">  1  5  2 -1</clus>
</clustering>
</event>
<event>
 9    1  0.3312826E-006  0.4184556E+03  0.7546771E-02  0.1079618E+00
         21   -1    0    0  501  502  0.00000000000E+00  0.00000000000E+00  0.42302810317E+03  0.42302810317E+03  0.00000000000E+00 0. -1.
          2   -1    0    0  502    0 -0.00000000000E+00 -0.00000000000E+00 -0.18284881264E+03  0.18284881264E+03  0.00000000000E+00 0. -1.
         23    2    1    2    0    0  0.88159191656E+02  0.20383059376E+02  0.10549122102E+03  0.16627940618E+03  0.91284889351E+02 0.  0.
         23    2    1    2    0    0 -0.14193258558E+03 -0.12131839664E+03 -0.58070256104E+02  0.21546519982E+03  0.90499091029E+02 0.  0.
        -11    1    4    4    0    0  0.19797657767E+01 -0.29161444410E+02  0.10881219345E+02  0.31188303048E+02  0.00000000000E+00 0.  1.
         11    1    4    4    0    0 -0.14391235136E+03 -0.92156952233E+02 -0.68951475449E+02  0.18427689678E+03  0.00000000000E+00 0. -1.
        -13    1    3    3    0    0  0.42488559478E+02 -0.20377593090E+02  0.34034740320E+01  0.47245186232E+02  0.00000000000E+00 0. -1.
         13    1    3    3    0    0  0.45670632178E+02  0.40760652465E+02  0.10208774699E+03  0.11903421995E+03  0.00000000000E+00 0.  1.
          2    1    1    2  501    0  0.53773393926E+02  0.10093533727E+03  0.19275832562E+03  0.22413230981E+03  0.00000000000E+00 0. -1.
<scales pt_clust_5="13000.00000" pt_clust_6="13000.00000" pt_clust_7="13000.00000" pt_clust_8="13000.00000" pt_clust_9="13000.00000"></scales>
<clustering>
<clus scale="   90.499">  5  6 -1 -1</clus>
<clus scale="   91.285">  7  8 -1 -1</clus>
<clus scale="  114.366">  5  9 -1 -1</clus>
<clus scale="  128.532">  2  7  1 -1</clus>
<clus scale="  418.456">  1  5  2 -1</clus>
</clustering>
</event>
<event>
 9    1  0.3312826E-006  0.1685821E+03  0.7546771E-02  0.1205761E+00
         21   -1    0    0  501  502  0.00000000000E+00  0.00000000000E+00  0.52505136498E+03  0.52505136498E+03  0.00000000000E+00 0. -1.
          3   -1    0    0  502    0 -0.00000000000E+00 -0.00000000000E+00 -0.33205494690E+02  0.33205494690E+02  0.00000000000E+00 0. -1.
         23    2    1    2    0    0  0.26576672082E+02  0.43260495111E+01  0.20297232007E+03  0.22379036133E+03  0.90329003683E+02 0.  0.
         23    2    1    2    0    0 -0.62917740633E+02 -0.39094860119E+02  0.20466058388E+03  0.23637793043E+03  0.92203694214E+02 0.  0.
        -11    1    4    4    0    0 -0.46737867861E+02 -0.14930584110E+02  0.20119499749E+03  0.20709123025E+03  0.00000000000E+00 0.  1.
         11    1    4    4    0    0 -0.16179872773E+02 -0.24164276009E+02  0.34655863869E+01  0.29286700173E+02  0.00000000000E+00 0. -1.
        -13    1    3    3    0    0 -0.32612162666E+01 -0.38016590775E+02  0.12053019226E+03  0.12642556684E+03  0.00000000000E+00 0. -1.
         13    1    3    3    0    0  0.29837888349E+02  0.42342640286E+02  0.82442127811E+02  0.97364794487E+02  0.00000000000E+00 0.  1.
          3    1    1    2  501    0  0.36341068551E+02  0.34768810608E+02  0.84212966345E+02  0.98088567913E+02  0.00000000000E+00 0. -1.
<scales pt_clust_5="13000.00000" pt_clust_6="13000.00000" pt_clust_7="13000.00000" pt_clust_8="13000.00000" pt_clust_9="13000.00000"></scales>
<clustering>
<clus scale="   90.329">  7  8 -1 -1</clus>
<clus scale="   92.204">  5  6 -1 -1</clus>
<clus scale="   50.295">  5  9 -1 -1</clus>
<clus scale="   94.257">  2  7  1 -1</clus>
<clus scale="  168.582">  1  5  2 -1</clus>
</clustering>
</event>
<event>
 9    1  0.3312826E-006  0.1897961E+03  0.7546771E-02  0.1182633E+00
         -1   -1    0    0    0  501 -0.00000000000E+00  0.00000000000E+00  0.57483959154E+02  0.57483959154E+02  0.00000000000E+00 0.  1.
         21   -1    0    0  501  502  0.00000000000E+00 -0.00000000000E+00 -0.52639387150E+03  0.52639387150E+03  0.00000000000E+00 0.  1.
         23    2    1    2    0    0  0.18216939417E+02 -0.55868203907E+02 -0.43440272206E+02  0.11799482199E+03  0.92642364384E+02 0.  0.
         23    2    1    2    0    0 -0.60808611359E+02  0.64311451022E+01 -0.17247947539E+03  0.20461284817E+03  0.91532515333E+02 0.  0.
        -11    1    4    4    0    0 -0.12478337521E+01  0.27895357213E+02 -0.90566237712E+01  0.29355246162E+02  0.00000000000E+00 0. -1.
         11    1    4    4    0    0 -0.59560777607E+02 -0.21464212111E+02 -0.16342285162E+03  0.17525760201E+03  0.00000000000E+00 0.  1.
        -11    1    3    3    0    0  0.48693722326E+02 -0.53852138914E+02 -0.10987347974E+02  0.73429239919E+02  0.00000000000E+00 0.  1.
         11    1    3    3    0    0 -0.30476782909E+02 -0.20160649933E+01 -0.32452924232E+02  0.44565582076E+02  0.00000000000E+00 0. -1.
         -1    1    1    2    0  502  0.42591671941E+02  0.49437058805E+02 -0.25299016474E+03  0.26127016048E+03  0.00000000000E+00 0.  1.
<scales pt_clust_5="13000.00000" pt_clust_6="13000.00000" pt_clust_7="13000.00000" pt_clust_8="13000.00000" pt_clust_9="13000.00000"></scales>
<clustering>
<clus scale="   91.533">  5  6 -1 -1</clus>
<clus scale="   65.254">  5  9 -1 -1</clus>
<clus scale="   92.642">  7  8 -1 -1</clus>
<clus scale="  109.707">  1  7  2 -1</clus>
<clus scale="  189.796">  2  5  1 -1</clus>
</clustering>
</event>
<event>
 9    1  0.3312826E-006  0.1945735E+03  0.7546771E-02  0.1165190E+00
          1   -1    0    0  502    0 -0.00000000000E+00  0.00000000000E+00  0.71159988844E+03  0.71159988844E+03  0.00000000000E+00 0. -1.
         21   -1    0    0  501  502  0.00000000000E+00 -0.00000000000E+00 -0.59024767210E+02  0.59024767210E+02  0.00000000000E+00 0.  1.
         23    2    1    2    0    0  0.65744834389E+01 -0.12172278313E+03  0.50279664750E+03  0.52507950547E+03  0.89690348257E+02 0.  0.
         23    2    1    2    0    0 -0.32187176864E+02  0.54273502812E+02  0.12975822062E+03  0.17067041469E+03  0.91156827326E+02 0.  0.
        -11    1    4    4    0    0 -0.18902213785E+02 -0.24454476258E+02  0.39782818328E+02  0.50378445085E+02  0.00000000000E+00 0.  1.
         11    1    4    4    0    0 -0.13284963079E+02  0.78727979070E+02  0.89975402293E+02  0.12029196960E+03  0.00000000000E+00 0. -1.
        -13    1    3    3    0    0 -0.33580888835E+02 -0.25885151048E+02  0.21395394363E+03  0.21811466511E+03  0.00000000000E+00 0. -1.
         13    1    3    3    0    0  0.40155372273E+02 -0.95837632079E+02  0.28884270386E+03  0.30696484037E+03  0.00000000000E+00 0.  1.
          1    1    1    2  501    0  0.25612693425E+02  0.67449280316E+02  0.20020253108E+02  0.74874735486E+02  0.00000000000E+00 0. -1.
<scales pt_clust_5="13000.00000" pt_clust_6="13000.00000" pt_clust_7="13000.00000" pt_clust_8="13000.00000" pt_clust_9="13000.00000"></scales>
<clustering>
<clus scale="   89.690">  7  8 -1 -1</clus>
<clus scale="   91.157">  5  6 -1 -1</clus>
<clus scale="   72.149">  5  9 -1 -1</clus>
<clus scale="  151.341">  1  7  2 -1</clus>
<clus scale="  194.573">  2  5  1 -1</clus>
</clustering>
</event>
<event>
 9    1  0.3312826E-006  0.5454980E+03  0.7546771E-02  0.1013350E+00
          1   -1    0    0  502    0 -0.00000000000E+00  0.00000000000E+00  0.78960995139E+03  0.78960995139E+03  0.00000000000E+00 0. -1.
         21   -1    0    0  501  502  0.00000000000E+00 -0.00000000000E+00 -0.29132479215E+03  0.29132479215E+03  0.00000000000E+00 0. -1.
         23    2    1    2    0    0  0.32843613997E+03  0.18889811064E+03  0.32736066102E+03  0.50928515782E+03  0.93024595364E+02 0.  0.
         23    2    1    2    0    0 -0.19915149481E+02 -0.62557639511E+02  0.20826976438E+03  0.23617710530E+03  0.89962541485E+02 0.  0.
        -11    1    3    3    0    0  0.87941645250E+02  0.77318318218E+02  0.55606228585E+02  0.12962988837E+03  0.00000000000E+00 0. -1.
         11    1    3    3    0    0  0.24049449472E+03  0.11157979243E+03  0.27175443244E+03  0.37965526945E+03  0.00000000000E+00 0.  1.
        -13    1    4    4    0    0 -0.43915620793E+02 -0.16238581917E+02  0.15374140419E+03  0.16071307555E+03  0.00000000000E+00 0. -1.
         13    1    4    4    0    0  0.24000471312E+02 -0.46319057594E+02  0.54528360196E+02  0.75464029744E+02  0.00000000000E+00 0.  1.
          1    1    1    2  501    0 -0.30852099049E+03 -0.12634047113E+03 -0.37345266166E+02  0.33547248043E+03  0.00000000000E+00 0. -1.
<scales pt_clust_5="13000.00000" pt_clust_6="13000.00000" pt_clust_7="13000.00000" pt_clust_8="13000.00000" pt_clust_9="13000.00000"></scales>
<clustering>
<clus scale="   89.963">  7  8 -1 -1</clus>
<clus scale="   93.025">  5  6 -1 -1</clus>
<clus scale="  333.388">  7  9 -1 -1</clus>
<clus scale="  390.136">  1  5  2 -1</clus>
<clus scale="  545.498">  2  5  1 -1</clus>
</clustering>
</event>
<event>
 9    1  0.3312826E-006  0.6748698E+03  0.7546771E-02  0.1020875E+00
         -1   -1    0    0    0  501 -0.00000000000E+00  0.00000000000E+00  0.31295665185E+03  0.31295665185E+03  0.00000000000E+00 0.  1.
         21   -1    0    0  501  502  0.00000000000E+00 -0.00000000000E+00 -0.62591798105E+03  0.62591798105E+03  0.00000000000E+00 0.  1.
         23    2    1    2    0    0  0.90386491160E+02  0.10363197315E+03  0.51670326845E+02  0.17179867825E+03  0.89082318837E+02 0.  0.
         23    2    1    2    0    0  0.13997348576E+03  0.15757936784E+03  0.40132026160E+02  0.23309962366E+03  0.91109939856E+02 0.  0.
        -11    1    4    4    0    0  0.86582703528E+02  0.62039329098E+02 -0.19768107651E+02  0.10833384044E+03  0.00000000000E+00 0. -1.
         11    1    4    4    0    0  0.53390782231E+02  0.95540038745E+02  0.59900133811E+02  0.12476578321E+03  0.00000000000E+00 0.  1.
        -13    1    3    3    0    0  0.31669392096E+02  0.88084363785E+02  0.24791839209E+01  0.93637342402E+02  0.00000000000E+00 0.  1.
         13    1    3    3    0    0  0.58717099064E+02  0.15547609364E+02  0.49191142924E+02  0.78161335849E+02  0.00000000000E+00 0. -1.
         -1    1    1    2    0  502 -0.23035997692E+03 -0.26121134099E+03 -0.40476368221E+03  0.53397633099E+03  0.00000000000E+00 0.  1.
<scales pt_clust_5="13000.00000" pt_clust_6="13000.00000" pt_clust_7="13000.00000" pt_clust_8="13000.00000" pt_clust_9="13000.00000"></scales>
<clustering>
<clus scale="   89.082">  7  8 -1 -1</clus>
<clus scale="   91.110">  5  6 -1 -1</clus>
<clus scale="  163.844">  1  7  2 -1</clus>
<clus scale="  304.128">  5  9 -1 -1</clus>
<clus scale="  674.870">  2  5  1 -1</clus>
</clustering>
</event>
<event>
 9    1  0.3312826E-006  0.3441946E+03  0.7546771E-02  0.1088841E+00
         21   -1    0    0  501  502  0.00000000000E+00  0.00000000000E+00  0.21537954471E+03  0.21537954471E+03  0.00000000000E+00 0. -1.
         -1   -1    0    0    0  501 -0.00000000000E+00 -0.00000000000E+00 -0.40581833036E+03  0.40581833036E+03  0.00000000000E+00 0.  1.
         23    2    1    2    0    0 -0.11002573738E+02  0.15422648133E+03 -0.20942097470E+03  0.27648023754E+03  0.93152095680E+02 0.  0.
         23    2    1    2    0    0  0.30406994685E+02 -0.22261297747E+03  0.75611651982E+02  0.25383232256E+03  0.90733692737E+02 0.  0.
        -13    1    3    3    0    0  0.27204010140E+02  0.13468452101E+03 -0.15402962649E+03  0.20641003901E+03  0.00000000000E+00 0.  1.
         13    1    3    3    0    0 -0.38206583878E+02  0.19541960326E+02 -0.55391348214E+02  0.70070198530E+02  0.00000000000E+00 0. -1.
        -13    1    4    4    0    0  0.24385214010E+01 -0.14426469172E+03  0.89065250691E+02  0.16956080486E+03  0.00000000000E+00 0. -1.
         13    1    4    4    0    0  0.27968473284E+02 -0.78348285744E+02 -0.13453598708E+02  0.84271517697E+02  0.00000000000E+00 0.  1.
         -1    1    1    2    0  502 -0.19404420948E+02  0.68386496131E+02 -0.56629462939E+02  0.90885314975E+02  0.00000000000E+00 0.  1.
<scales pt_clust_5="13000.00000" pt_clust_6="13000.00000" pt_clust_7="13000.00000" pt_clust_8="13000.00000" pt_clust_9="13000.00000"></scales>
<clustering>
<clus scale="   90.734">  7  8 -1 -1</clus>
<clus scale="   71.086">  7  9 -1 -1</clus>
<clus scale="   93.152">  5  6 -1 -1</clus>
<clus scale="  180.511">  2  5  1 -1</clus>
<clus scale="  344.195">  1  5  2 -1</clus>
</clustering>
</event>
<event>
 9    1  0.3312826E-006  0.2696948E+03  0.7546771E-02  0.1128339E+00
         -1   -1    0    0    0  501 -0.00000000000E+00  0.00000000000E+00  0.61264380441E+03  0.61264380441E+03  0.00000000000E+00 0.  1.
         21   -1    0    0  501  502  0.00000000000E+00 -0.00000000000E+00 -0.84505768577E+02  0.84505768577E+02  0.00000000000E+00 0.  1.
         23    2    1    2    0    0  0.10014561351E+03  0.39609384339E+01  0.34505131640E+03  0.37118016669E+03  0.93110000859E+02 0.  0.
         23    2    1    2    0    0  0.57825068787E+02 -0.26724773927E+02  0.75597171406E+02  0.13354557303E+03  0.89786054764E+02 0.  0.
        -11    1    4    4    0    0  0.24212145309E+01  0.27248133561E+02  0.30944182973E+01  0.27529956174E+02  0.00000000000E+00 0. -1.
         11    1    4    4    0    0  0.55403854256E+02 -0.53972907489E+02  0.72502753109E+02  0.10601561686E+03  0.00000000000E+00 0.  1.
        -11    1    3    3    0    0  0.47212857407E+02 -0.36081555886E+02  0.23730518281E+03  0.24463172805E+03  0.00000000000E+00 0.  1.
         11    1    3    3    0    0  0.52932756105E+02  0.40042494320E+02  0.10774613358E+03  0.12654843864E+03  0.00000000000E+00 0. -1.
         -1    1    1    2    0  502 -0.15797068230E+03  0.22763835493E+02  0.10748954803E+03  0.19242383327E+03  0.00000000000E+00 0.  1.
<scales pt_clust_5="13000.00000" pt_clust_6="13000.00000" pt_clust_7="13000.00000" pt_clust_8="13000.00000" pt_clust_9="13000.00000"></scales>
<clustering>
<clus scale="   89.786">  5  6 -1 -1</clus>
<clus scale="   93.110">  7  8 -1 -1</clus>
<clus scale="  136.800">  1  7  2 -1</clus>
<clus scale="  102.102">  5  9 -1 -1</clus>
<clus scale="  269.695">  2  5  1 -1</clus>
</clustering>
</event>
<event>
 9    1  0.3582930E-006  0.4121609E+03  0.7546771E-02  0.1056500E+00
         21   -1    0    0  501  502  0.00000000000E+00  0.00000000000E+00  0.15838616994E+03  0.15838616994E+03  0.00000000000E+00 0. -1.
          3   -1    0    0  502    0 -0.00000000000E+00 -0.00000000000E+00 -0.70141859932E+03  0.70141859932E+03  0.00000000000E+00 0. -1.
         23    2    1    2    0    0 -0.23667281442E+03 -0.17344104492E+02 -0.20039746175E+03  0.32382407306E+03  0.91586290299E+02 0.  0.
         23    2    1    2    0    0  0.11678647081E+02  0.22712099277E+02 -0.29558882695E+03  0.30605781770E+03  0.75142550553E+02 0.  0.
        -11    1    4    4    0    0  0.36476939545E+01  0.49339985489E+02 -0.15362133611E+03  0.16139161919E+03  0.00000000000E+00 0. -1.
         11    1    4    4    0    0  0.80309531263E+01 -0.26627886211E+02 -0.14196749085E+03  0.14466619850E+03  0.00000000000E+00 0.  1.
        -13    1    3    3    0    0 -0.11686971033E+03  0.32790679706E+02 -0.71650173030E+02  0.14095213784E+03  0.00000000000E+00 0. -1.
         13    1    3    3    0    0 -0.11980310409E+03 -0.50134784198E+02 -0.12874728872E+03  0.18287193521E+03  0.00000000000E+00 0.  1.
          3    1    1    2  501    0  0.22499416734E+03 -0.53679947857E+01 -0.47046140682E+02  0.22992287850E+03  0.00000000000E+00 0. -1.
<scales pt_clust_5="13000.00000" pt_clust_6="13000.00000" pt_clust_7="13000.00000" pt_clust_8="13000.00000" pt_clust_9="13000.00000"></scales>
<clustering>
<clus scale="   75.143">  5  6 -1 -1</clus>
<clus scale="   91.586">  7  8 -1 -1</clus>
<clus scale="  225.058">  5  9 -1 -1</clus>
<clus scale="  254.368">  2  7  1 -1</clus>
<clus scale="  412.161">  1  5  2 -1</clus>
</clustering>
</event>
<event>
 9    1  0.3312826E-006  0.2298198E+03  0.7546771E-02  0.1164550E+00
          1   -1    0    0  502    0 -0.00000000000E+00  0.00000000000E+00  0.20783047082E+03  0.20783047082E+03  0.00000000000E+00 0. -1.
         21   -1    0    0  501  502  0.00000000000E+00 -0.00000000000E+00 -0.13428221281E+03  0.13428221281E+03  0.00000000000E+00 0. -1.
         23    2    1    2    0    0  0.20007475673E+02  0.16898728322E+02  0.62110290678E+02  0.11200841550E+03  0.89455747902E+02 0.  0.
         23    2    1    2    0    0 -0.14073633861E+02  0.46078743196E+02  0.86575223351E+02  0.13188522904E+03  0.87046692051E+02 0.  0.
        -13    1    3    3    0    0  0.46292030443E+02  0.27263591586E+02  0.64156799450E+02  0.83680047947E+02  0.00000000000E+00 0.  1.
         13    1    3    3    0    0 -0.26284554770E+02 -0.10364863265E+02 -0.20465087724E+01  0.28328367551E+02  0.00000000000E+00 0. -1.
        -13    1    4    4    0    0 -0.35655738080E+02  0.24646940480E+02  0.91335986386E+02  0.10109928656E+03  0.00000000000E+00 0. -1.
         13    1    4    4    0    0  0.21582104219E+02  0.21431802716E+02 -0.47607630348E+01  0.30785942488E+02  0.00000000000E+00 0.  1.
          1    1    1    2  501    0 -0.59338418115E+01 -0.62977471518E+02 -0.75137256013E+02  0.98219039084E+02  0.00000000000E+00 0. -1.
<scales pt_clust_5="13000.00000" pt_clust_6="13000.00000" pt_clust_7="13000.00000" pt_clust_8="13000.00000" pt_clust_9="13000.00000"></scales>
<clustering>
<clus scale="   87.047">  7  8 -1 -1</clus>
<clus scale="   63.256">  7  9 -1 -1</clus>
<clus scale="   89.456">  5  6 -1 -1</clus>
<clus scale="   93.210">  1  5  2 -1</clus>
<clus scale="  229.820">  2  5  1 -1</clus>
</clustering>
</event>
<event>
 9    1  0.3312826E-006  0.1372642E+03  0.7546771E-02  0.1225916E+00
         21   -1    0    0  501  502  0.00000000000E+00  0.00000000000E+00  0.48822355974E+03  0.48822355974E+03  0.00000000000E+00 0.  1.
          1   -1    0    0  502    0 -0.00000000000E+00 -0.00000000000E+00 -0.32903108170E+02  0.32903108170E+02  0.00000000000E+00 0. -1.
         23    2    1    2    0    0  0.66404011317E+02 -0.71083649943E+01  0.24109607237E+03  0.26669876981E+03  0.92416968845E+02 0.  0.
         23    2    1    2    0    0 -0.35555101583E+02 -0.21641919725E+02  0.17271351018E+03  0.19525538464E+03  0.81007226181E+02 0.  0.
        -11    1    4    4    0    0 -0.62129416531E+01  0.19970850694E+02  0.12058685743E+03  0.12238719584E+03  0.00000000000E+00 0.  1.
         11    1    4    4    0    0 -0.29342159930E+02 -0.41612770419E+02  0.52126652748E+02  0.72868188793E+02  0.00000000000E+00 0. -1.
        -11    1    3    3    0    0 -0.20624580990E+02 -0.56168958567E+01  0.20778541838E+02  0.29810579682E+02  0.00000000000E+00 0. -1.
         11    1    3    3    0    0  0.87028592307E+02 -0.14914691375E+01  0.22031753054E+03  0.23688819012E+03  0.00000000000E+00 0.  1.
          1    1    1    2  501    0 -0.30848909734E+02  0.28750284720E+02  0.41510869016E+02  0.59172513464E+02  0.00000000000E+00 0. -1.
<scales pt_clust_5="13000.00000" pt_clust_6="13000.00000" pt_clust_7="13000.00000" pt_clust_8="13000.00000" pt_clust_9="13000.00000"></scales>
<clustering>
<clus scale="   81.007">  5  6 -1 -1</clus>
<clus scale="   42.169">  5  9 -1 -1</clus>
<clus scale="   92.417">  7  8 -1 -1</clus>
<clus scale="  114.022">  2  7  1 -1</clus>
<clus scale="  137.264">  1  5  2 -1</clus>
</clustering>
</event>
<event>
 9    1  0.3312826E-006  0.1854265E+03  0.7546771E-02  0.1184851E+00
         -1   -1    0    0    0  501 -0.00000000000E+00  0.00000000000E+00  0.73370430078E+03  0.73370430078E+03  0.00000000000E+00 0.  1.
         21   -1    0    0  501  502  0.00000000000E+00 -0.00000000000E+00 -0.31351407740E+02  0.31351407740E+02  0.00000000000E+00 0.  1.
         23    2    1    2    0    0 -0.65570522741E+02  0.29824550098E+01  0.34090947933E+03  0.35882386100E+03  0.90702269174E+02 0.  0.
         23    2    1    2    0    0 -0.13100983765E+02 -0.36497396329E+02  0.14315173958E+03  0.17178843810E+03  0.86689971768E+02 0.  0.
        -11    1    3    3    0    0 -0.33627456067E+02  0.39224435148E+02  0.94290233286E+02  0.10751748791E+03  0.00000000000E+00 0. -1.
         11    1    3    3    0    0 -0.31943066675E+02 -0.36241980138E+02  0.24661924604E+03  0.25130637308E+03  0.00000000000E+00 0.  1.
        -13    1    4    4    0    0  0.29910773029E+02 -0.38584517559E+02  0.97449653472E+02  0.10899474437E+03  0.00000000000E+00 0.  1.
         13    1    4    4    0    0 -0.43011756793E+02  0.20871212292E+01  0.45702086105E+02  0.62793693727E+02  0.00000000000E+00 0. -1.
         -1    1    1    2    0  502  0.78671506506E+02  0.33514941320E+02  0.21829167413E+03  0.23444340942E+03  0.00000000000E+00 0.  1.
<scales pt_clust_5="13000.00000" pt_clust_6="13000.00000" pt_clust_7="13000.00000" pt_clust_8="13000.00000" pt_clust_9="13000.00000"></scales>
<clustering>
<clus scale="   86.690">  7  8 -1 -1</clus>
<clus scale="   85.513">  7  9 -1 -1</clus>
<clus scale="   90.702">  5  6 -1 -1</clus>
<clus scale="  111.961">  1  5  2 -1</clus>
<clus scale="  185.426">  2  5  1 -1</clus>
</clustering>
</event>
<event>
 9    1  0.3312826E-006  0.3007937E+03  0.7546771E-02  0.1111268E+00
         21   -1    0    0  501  502  0.00000000000E+00  0.00000000000E+00  0.55715345271E+03  0.55715345271E+03  0.00000000000E+00 0.  1.
          2   -1    0    0  502    0 -0.00000000000E+00 -0.00000000000E+00 -0.24400326264E+03  0.24400326264E+03  0.00000000000E+00 0. -1.
         23    2    1    2    0    0 -0.19844901258E+02 -0.11909256479E+03  0.44704748440E+03  0.47190702025E+03  0.90928121902E+02 0.  0.
         23    2    1    2    0    0  0.31908606553E+02 -0.61579608943E+02 -0.82645970250E+02  0.14106184860E+03  0.90872885516E+02 0.  0.
        -11    1    3    3    0    0 -0.47283019471E+02 -0.46422686114E+02  0.27922353532E+03  0.28697827861E+03  0.00000000000E+00 0.  1.
         11    1    3    3    0    0  0.27438118213E+02 -0.72669878681E+02  0.16782394909E+03  0.18492874164E+03  0.00000000000E+00 0. -1.
        -13    1    4    4    0    0  0.55084028190E+02 -0.68450284641E+02 -0.52242695496E+02  0.10222030553E+03  0.00000000000E+00 0.  1.
         13    1    4    4    0    0 -0.23175421636E+02  0.68706756987E+01 -0.30403274754E+02  0.38841543073E+02  0.00000000000E+00 0. -1.
          2    1    1    2  501    0 -0.12063705295E+02  0.18067217374E+03 -0.51251324088E+02  0.18818784650E+03  0.00000000000E+00 0. -1.
<scales pt_clust_5="13000.00000" pt_clust_6="13000.00000" pt_clust_7="13000.00000" pt_clust_8="13000.00000" pt_clust_9="13000.00000"></scales>
<clustering>
<clus scale="   90.873">  7  8 -1 -1</clus>
<clus scale="   90.928">  5  6 -1 -1</clus>
<clus scale="  151.145">  2  5  1 -1</clus>
<clus scale="  121.177">  7  9 -1 -1</clus>
<clus scale="  300.794">  1  5  2 -1</clus>
</clustering>
</event>
<event>
 9    1  0.3312826E-006  0.1324522E+03  0.7546771E-02  0.1231138E+00
         -3   -1    0    0    0  501 -0.00000000000E+00  0.00000000000E+00  0.50288289750E+02  0.50288289750E+02  0.00000000000E+00 0.  1.
         21   -1    0    0  501  502  0.00000000000E+00 -0.00000000000E+00 -0.31222576755E+03  0.31222576755E+03  0.00000000000E+00 0. -1.
         23    2    1    2    0    0  0.40654053667E+02  0.54347970973E+02 -0.88273276294E+02  0.14410426723E+03  0.91473572681E+02 0.  0.
         23    2    1    2    0    0 -0.13569918873E+02 -0.34024773644E+02 -0.11869274671E+03  0.15384630542E+03  0.90768329555E+02 0.  0.
        -13    1    3    3    0    0 -0.16257416705E+02  0.53932100127E+02 -0.36162262689E+02  0.66937913508E+02  0.00000000000E+00 0. -1.
         13    1    3    3    0    0  0.56911470372E+02  0.41587084576E+00 -0.52111013605E+02  0.77166353726E+02  0.00000000000E+00 0.  1.
        -13    1    4    4    0    0 -0.38370600179E+02 -0.32030250336E+02 -0.23088302878E+02  0.55057330342E+02  0.00000000000E+00 0.  1.
         13    1    4    4    0    0  0.24800681306E+02 -0.19945233088E+01 -0.95604443834E+02  0.98788975079E+02  0.00000000000E+00 0. -1.
         -3    1    1    2    0  502 -0.27084134794E+02 -0.20323197329E+02 -0.54971454799E+02  0.64563484648E+02  0.00000000000E+00 0.  1.
<scales pt_clust_5="13000.00000" pt_clust_6="13000.00000" pt_clust_7="13000.00000" pt_clust_8="13000.00000" pt_clust_9="13000.00000"></scales>
<clustering>
<clus scale="   90.768">  7  8 -1 -1</clus>
<clus scale="   33.861">  7  9 -1 -1</clus>
<clus scale="   91.474">  5  6 -1 -1</clus>
<clus scale="  113.903">  1  5  2 -1</clus>
<clus scale="  132.452">  2  5  1 -1</clus>
</clustering>
</event>
<event>
 9    1  0.3312826E-006  0.2985762E+03  0.7546771E-02  0.1110427E+00
         21   -1    0    0  501  502  0.00000000000E+00  0.00000000000E+00  0.14569838491E+03  0.14569838491E+03  0.00000000000E+00 0.  1.
         -1   -1    0    0    0  501 -0.00000000000E+00 -0.00000000000E+00 -0.78298355354E+03  0.78298355354E+03  0.00000000000E+00 0.  1.
         23    2    1    2    0    0  0.68470530632E+02  0.64535007720E+02 -0.60858463543E+03  0.62872953467E+03  0.12677771293E+03 0.  0.
         23    2    1    2    0    0 -0.99514454520E+02  0.48631929527E+02 -0.88504952355E+02  0.16824420569E+03  0.90580323071E+02 0.  0.
        -13    1    3    3    0    0  0.55985162022E+02 -0.24589933047E+02 -0.16174872289E+03  0.17292094301E+03  0.00000000000E+00 0. -1.
         13    1    3    3    0    0  0.12485368610E+02  0.89124940766E+02 -0.44683591254E+03  0.45580859166E+03  0.00000000000E+00 0.  1.
        -13    1    4    4    0    0 -0.60421141698E+02  0.18178119075E+02  0.40833572709E+01  0.63228412789E+02  0.00000000000E+00 0. -1.
         13    1    4    4    0    0 -0.39093312822E+02  0.30453810452E+02 -0.92588309626E+02  0.10501579290E+03  0.00000000000E+00 0.  1.
         -1    1    1    2    0  502  0.31043923888E+02 -0.11316693725E+03  0.59804419155E+02  0.13170819810E+03  0.00000000000E+00 0.  1.
<scales pt_clust_5="13000.00000" pt_clust_6="13000.00000" pt_clust_7="13000.00000" pt_clust_8="13000.00000" pt_clust_9="13000.00000"></scales>
<clustering>
<clus scale="   90.580">  7  8 -1 -1</clus>
<clus scale="  117.348">  7  9 -1 -1</clus>
<clus scale="  126.778">  5  6 -1 -1</clus>
<clus scale="  157.878">  2  5  1 -1</clus>
<clus scale="  298.576">  1  5  2 -1</clus>
</clustering>
</event>
<event>
 9    1  0.3312826E-006  0.4748019E+03  0.7546771E-02  0.1055475E+00
          1   -1    0    0  502    0 -0.00000000000E+00  0.00000000000E+00  0.70229603038E+02  0.70229603038E+02  0.00000000000E+00 0. -1.
         21   -1    0    0  501  502  0.00000000000E+00 -0.00000000000E+00 -0.14861281591E+04  0.14861281591E+04  0.00000000000E+00 0. -1.
         23    2    1    2    0    0 -0.19282454898E+02 -0.14296739468E+03 -0.36618597789E+03  0.40425823379E+03  0.92309588747E+02 0.  0.
         23    2    1    2    0    0  0.19080163573E+03  0.19139327211E+03 -0.52065559258E+03  0.59382971097E+03  0.92275840487E+02 0.  0.
        -11    1    4    4    0    0  0.17871058679E+03  0.12501017382E+03 -0.39876580748E+03  0.45450983114E+03  0.00000000000E+00 0. -1.
         11    1    4    4    0    0  0.12091048941E+02  0.66383098293E+02 -0.12188978510E+03  0.13931987983E+03  0.00000000000E+00 0.  1.
        -13    1    3    3    0    0 -0.30068738689E+02 -0.90032169033E+02 -0.12421914157E+03  0.15633398748E+03  0.00000000000E+00 0.  1.
         13    1    3    3    0    0  0.10786283790E+02 -0.52935225644E+02 -0.24196683632E+03  0.24792424631E+03  0.00000000000E+00 0. -1.
          1    1    1    2  501    0 -0.17151918083E+03 -0.48425877433E+02 -0.52905698562E+03  0.55826981741E+03  0.00000000000E+00 0. -1.
<scales pt_clust_5="13000.00000" pt_clust_6="13000.00000" pt_clust_7="13000.00000" pt_clust_8="13000.00000" pt_clust_9="13000.00000"></scales>
<clustering>
<clus scale="   92.276">  5  6 -1 -1</clus>
<clus scale="   92.310">  7  8 -1 -1</clus>
<clus scale="  171.267">  1  7  2 -1</clus>
<clus scale="  198.232">  5  9 -1 -1</clus>
<clus scale="  474.802">  2  5  1 -1</clus>
</clustering>
</event>
<event>
 9    1  0.3312826E-006  0.1571182E+03  0.7546771E-02  0.1210910E+00
         21   -1    0    0  501  502  0.00000000000E+00  0.00000000000E+00  0.94506988341E+02  0.94506988341E+02  0.00000000000E+00 0. -1.
         -1   -1    0    0    0  501 -0.00000000000E+00 -0.00000000000E+00 -0.22242891735E+03  0.22242891735E+03  0.00000000000E+00 0.  1.
         23    2    1    2    0    0  0.49725257164E+02  0.75977908807E+00  0.13997619193E+02  0.10521135684E+03  0.91653247628E+02 0.  0.
         23    2    1    2    0    0 -0.41906519900E+02  0.39641119534E+02 -0.13062128256E+03  0.16905118399E+03  0.90492036021E+02 0.  0.
        -11    1    3    3    0    0  0.67166831063E+02 -0.19026357444E+02 -0.87823046381E+01  0.70359891610E+02  0.00000000000E+00 0.  1.
         11    1    3    3    0    0 -0.17441573899E+02  0.19786136533E+02  0.22779923831E+02  0.34851465230E+02  0.00000000000E+00 0. -1.
        -11    1    4    4    0    0  0.16395354589E+02 -0.16733832021E+02 -0.47262801393E+02  0.52750366650E+02  0.00000000000E+00 0. -1.
         11    1    4    4    0    0 -0.58301874489E+02  0.56374951555E+02 -0.83358481163E+02  0.11630081734E+03  0.00000000000E+00 0.  1.
         -1    1    1    2    0  502 -0.78187372637E+01 -0.40400898622E+02 -0.11298265643E+02  0.42673364859E+02  0.00000000000E+00 0.  1.
<scales pt_clust_5="13000.00000" pt_clust_6="13000.00000" pt_clust_7="13000.00000" pt_clust_8="13000.00000" pt_clust_9="13000.00000"></scales>
<clustering>
<clus scale="   90.492">  7  8 -1 -1</clus>
<clus scale="   41.151">  7  9 -1 -1</clus>
<clus scale="   91.653">  5  6 -1 -1</clus>
<clus scale="  104.276">  2  5  1 -1</clus>
<clus scale="  157.118">  1  5  2 -1</clus>
</clustering>
</event>
<event>
 9    1  0.3312826E-006  0.1232262E+03  0.7546771E-02  0.1252840E+00
         21   -1    0    0  501  502  0.00000000000E+00  0.00000000000E+00  0.17911574915E+03  0.17911574915E+03  0.00000000000E+00 0.  1.
          2   -1    0    0  502    0 -0.00000000000E+00 -0.00000000000E+00 -0.30922534525E+03  0.30922534525E+03  0.00000000000E+00 0. -1.
         23    2    1    2    0    0  0.95716826817E+01  0.10704017765E+02 -0.27990402384E+03  0.29437442174E+03  0.90021355827E+02 0.  0.
         23    2    1    2    0    0 -0.10953576615E+02  0.17963086633E+02  0.10240938278E+03  0.13856762040E+03  0.90943116390E+02 0.  0.
        -13    1    4    4    0    0 -0.38318199998E+02  0.37982052276E+02  0.38698198595E+02  0.66396320084E+02  0.00000000000E+00 0. -1.
         13    1    4    4    0    0  0.27364623383E+02 -0.20018965643E+02  0.63711184190E+02  0.72171300315E+02  0.00000000000E+00 0.  1.
        -13    1    3    3    0    0  0.43452729680E+02 -0.17680429365E+02 -0.13934940212E+03  0.14703398644E+03  0.00000000000E+00 0.  1.
         13    1    3    3    0    0 -0.33881046998E+02  0.28384447129E+02 -0.14055462173E+03  0.14734043530E+03  0.00000000000E+00 0. -1.
          2    1    1    2  501    0  0.13818939335E+01 -0.28667104397E+02  0.47385044958E+02  0.55399052257E+02  0.00000000000E+00 0. -1.
<scales pt_clust_5="13000.00000" pt_clust_6="13000.00000" pt_clust_7="13000.00000" pt_clust_8="13000.00000" pt_clust_9="13000.00000"></scales>
<clustering>
<clus scale="   90.021">  7  8 -1 -1</clus>
<clus scale="   90.943">  5  6 -1 -1</clus>
<clus scale="   28.700">  5  9 -1 -1</clus>
<clus scale="   91.159">  2  7  1 -1</clus>
<clus scale="  123.226">  1  5  2 -1</clus>
</clustering>
</event>
<event>
 9    1  0.3312826E-006  0.2391378E+03  0.7546771E-02  0.1140688E+00
         21   -1    0    0  501  502  0.00000000000E+00  0.00000000000E+00  0.16509804932E+03  0.16509804932E+03  0.00000000000E+00 0. -1.
          2   -1    0    0  502    0 -0.00000000000E+00 -0.00000000000E+00 -0.23112538353E+03  0.23112538353E+03  0.00000000000E+00 0. -1.
         23    2    1    2    0    0 -0.11086625146E+03 -0.28197111991E+02  0.91760162280E+01  0.14553949511E+03  0.89504986037E+02 0.  0.
         23    2    1    2    0    0  0.56945041331E+02  0.15737999412E+02 -0.13238378292E+03  0.17110801017E+03  0.90895889938E+02 0.  0.
        -11    1    3    3    0    0 -0.10667985825E+03 -0.52566333355E+02 -0.65774830473E+00  0.11892957661E+03  0.00000000000E+00 0. -1.
         11    1    3    3    0    0 -0.41863932128E+01  0.24369221364E+02  0.98337645328E+01  0.26609918506E+02  0.00000000000E+00 0.  1.
        -11    1    4    4    0    0  0.35476641489E+02  0.53527869906E+02 -0.88504914588E+02  0.10934781596E+03  0.00000000000E+00 0. -1.
         11    1    4    4    0    0  0.21468399841E+02 -0.37789870494E+02 -0.43878868331E+02  0.61760194216E+02  0.00000000000E+00 0.  1.
          2    1    1    2  501    0  0.53921210133E+02  0.12459112579E+02  0.57180432481E+02  0.79575927561E+02  0.00000000000E+00 0. -1.
<scales pt_clust_5="13000.00000" pt_clust_6="13000.00000" pt_clust_7="13000.00000" pt_clust_8="13000.00000" pt_clust_9="13000.00000"></scales>
<clustering>
<clus scale="   89.505">  5  6 -1 -1</clus>
<clus scale="   90.896">  7  8 -1 -1</clus>
<clus scale="   55.342">  7  9 -1 -1</clus>
<clus scale="  145.250">  2  5  1 -1</clus>
<clus scale="  239.138">  1  5  2 -1</clus>
</clustering>
</event>
<event>
 9    1  0.3312826E-006  0.3781293E+03  0.7546771E-02  0.1054852E+00
          1   -1    0    0  502    0 -0.00000000000E+00  0.00000000000E+00  0.84300869798E+03  0.84300869798E+03  0.00000000000E+00 0. -1.
         21   -1    0    0  501  502  0.00000000000E+00 -0.00000000000E+00 -0.32778315427E+03  0.32778315427E+03  0.00000000000E+00 0. -1.
         23    2    1    2    0    0  0.22737043629E+02 -0.33210217671E+03  0.67671220251E+03  0.75962315103E+03  0.90989546735E+02 0.  0.
         23    2    1    2    0    0 -0.33778511677E+02  0.11180754649E+03 -0.23643833830E+02  0.15106817735E+03  0.92847444913E+02 0.  0.
        -11    1    3    3    0    0  0.14378348171E+02 -0.17885448508E+02  0.16070951394E+02  0.28016096144E+02  0.00000000000E+00 0.  1.
         11    1    3    3    0    0  0.83586954574E+01 -0.31421672821E+03  0.66064125112E+03  0.73160705488E+03  0.00000000000E+00 0. -1.
        -13    1    4    4    0    0 -0.15900653872E+02  0.91752436428E+02  0.24185482549E+02  0.96209552281E+02  0.00000000000E+00 0.  1.
         13    1    4    4    0    0 -0.17877857805E+02  0.20055110063E+02 -0.47829316379E+02  0.54858625071E+02  0.00000000000E+00 0. -1.
          1    1    1    2  501    0  0.11041468048E+02  0.22029463022E+03 -0.13784282497E+03  0.26010052387E+03  0.00000000000E+00 0. -1.
<scales pt_clust_5="13000.00000" pt_clust_6="13000.00000" pt_clust_7="13000.00000" pt_clust_8="13000.00000" pt_clust_9="13000.00000"></scales>
<clustering>
<clus scale="   90.990">  5  6 -1 -1</clus>
<clus scale="   92.847">  7  8 -1 -1</clus>
<clus scale="  220.571">  7  9 -1 -1</clus>
<clus scale="  345.091">  1  5  2 -1</clus>
<clus scale="  378.129">  2  5  1 -1</clus>
</clustering>
</event>
<event>
 9    1  0.3312826E-006  0.2665946E+03  0.7546771E-02  0.1130680E+00
         21   -1    0    0  501  502  0.00000000000E+00  0.00000000000E+00  0.44437386295E+03  0.44437386295E+03  0.00000000000E+00 0.  1.
         -2   -1    0    0    0  501 -0.00000000000E+00 -0.00000000000E+00 -0.12296586221E+03  0.12296586221E+03  0.00000000000E+00 0.  1.
         23    2    1    2    0    0  0.95487660251E+02 -0.21871224761E+02 -0.18902726676E+02  0.13503882707E+03  0.91005098802E+02 0.  0.
         23    2    1    2    0    0 -0.80944655974E+02  0.54043876200E+02  0.53968338228E+02  0.14378999305E+03  0.91050550165E+02 0.  0.
        -11    1    4    4    0    0 -0.45803444834E+02  0.77133753156E+02  0.26407625088E+02  0.93514352360E+02  0.00000000000E+00 0.  1.
         11    1    4    4    0    0 -0.35141211140E+02 -0.23089876955E+02  0.27560713140E+02  0.50275640693E+02  0.00000000000E+00 0. -1.
        -11    1    3    3    0    0  0.22282900758E+02 -0.42724568107E+02  0.16711804644E+02  0.51001968596E+02  0.00000000000E+00 0. -1.
         11    1    3    3    0    0  0.73204759493E+02  0.20853343346E+02 -0.35614531321E+02  0.84036858475E+02  0.00000000000E+00 0.  1.
         -2    1    1    2    0  502 -0.14543004277E+02 -0.32172651439E+02  0.28634238920E+03  0.28851090504E+03  0.00000000000E+00 0.  1.
<scales pt_clust_5="13000.00000" pt_clust_6="13000.00000" pt_clust_7="13000.00000" pt_clust_8="13000.00000" pt_clust_9="13000.00000"></scales>
<clustering>
<clus scale="   91.005">  7  8 -1 -1</clus>
<clus scale="   91.051">  5  6 -1 -1</clus>
<clus scale="   35.307">  5  9 -1 -1</clus>
<clus scale="  133.709">  2  7  1 -1</clus>
<clus scale="  266.595">  1  5  2 -1</clus>
</clustering>
</event>
<event>
 9    1  0.3312826E-006  0.3649836E+03  0.7546771E-02  0.1104023E+00
         21   -1    0    0  501  502  0.00000000000E+00  0.00000000000E+00  0.66904168434E+03  0.66904168434E+03  0.00000000000E+00 0.  1.
         -1   -1    0    0    0  501 -0.00000000000E+00 -0.00000000000E+00 -0.13256104875E+03  0.13256104875E+03  0.00000000000E+00 0.  1.
         23    2    1    2    0    0 -0.26044111507E+02 -0.29267171276E+02 -0.47958585313E+02  0.11255831277E+03  0.93991940129E+02 0.  0.
         23    2    1    2    0    0 -0.46131299426E+02 -0.12727176140E+03  0.41821597778E+03  0.44957856902E+03  0.94287261156E+02 0.  0.
        -13    1    4    4    0    0  0.16388403294E+02 -0.77041460931E+02  0.26747587667E+03  0.27883204813E+03  0.00000000000E+00 0.  1.
         13    1    4    4    0    0 -0.62519702720E+02 -0.50230300468E+02  0.15074010111E+03  0.17074652089E+03  0.00000000000E+00 0. -1.
        -13    1    3    3    0    0  0.22000660860E+02  0.95918599227E+01  0.11669520163E+02  0.26687273294E+02  0.00000000000E+00 0. -1.
         13    1    3    3    0    0 -0.48044772367E+02 -0.38859031199E+02 -0.59628105476E+02  0.85871039473E+02  0.00000000000E+00 0.  1.
         -1    1    1    2    0  502  0.72175410933E+02  0.15653893268E+03  0.16622324312E+03  0.23946585130E+03  0.00000000000E+00 0.  1.
<scales pt_clust_5="13000.00000" pt_clust_6="13000.00000" pt_clust_7="13000.00000" pt_clust_8="13000.00000" pt_clust_9="13000.00000"></scales>
<clustering>
<clus scale="   93.992">  7  8 -1 -1</clus>
<clus scale="   94.287">  5  6 -1 -1</clus>
<clus scale="  101.830">  2  7  1 -1</clus>
<clus scale="  146.350">  5  9 -1 -1</clus>
<clus scale="  364.984">  1  5  2 -1</clus>
</clustering>
</event>
<event>
 9    1  0.3312826E-006  0.4791841E+03  0.7546771E-02  0.1052001E+00
         21   -1    0    0  501  502  0.00000000000E+00  0.00000000000E+00  0.16030264193E+03  0.16030264193E+03  0.00000000000E+00 0. -1.
          2   -1    0    0  502    0 -0.00000000000E+00 -0.00000000000E+00 -0.69394219978E+03  0.69394219978E+03  0.00000000000E+00 0. -1.
         23    2    1    2    0    0 -0.11757860144E+03 -0.85221312449E+02 -0.19144236185E+03  0.26541861528E+03  0.11273625776E+03 0.  0.
         23    2    1    2    0    0 -0.48455335706E+02  0.20392247623E+03 -0.60076169759E+02  0.24061722596E+03  0.10176053942E+03 0.  0.
        -11    1    3    3    0    0 -0.13353911237E+01 -0.64050079611E+02 -0.51005165064E+02  0.81888478010E+02  0.00000000000E+00 0. -1.
         11    1    3    3    0    0 -0.11624321032E+03 -0.21171232839E+02 -0.14043719679E+03  0.18353013727E+03  0.00000000000E+00 0.  1.
        -13    1    4    4    0    0 -0.75953545288E+02  0.13014340976E+03 -0.19206131907E+02  0.15190498230E+03  0.00000000000E+00 0. -1.
         13    1    4    4    0    0  0.27498209581E+02  0.73779066474E+02 -0.40870037853E+02  0.88712243653E+02  0.00000000000E+00 0.  1.
          2    1    1    2  501    0  0.16603393715E+03 -0.11870116378E+03 -0.28212102623E+03  0.34820900047E+03  0.00000000000E+00 0. -1.
<scales pt_clust_5="13000.00000" pt_clust_6="13000.00000" pt_clust_7="13000.00000" pt_clust_8="13000.00000" pt_clust_9="13000.00000"></scales>
<clustering>
<clus scale="  101.761">  7  8 -1 -1</clus>
<clus scale="  112.736">  5  6 -1 -1</clus>
<clus scale="  183.839">  2  5  1 -1</clus>
<clus scale="  196.435">  7  9 -1 -1</clus>
<clus scale="  479.184">  1  5  2 -1</clus>
</clustering>
</event>
<event>
 9    1  0.3312826E-006  0.1878496E+03  0.7546771E-02  0.1182315E+00
         -1   -1    0    0    0  501 -0.00000000000E+00  0.00000000000E+00  0.63207188594E+03  0.63207188594E+03  0.00000000000E+00 0.  1.
         21   -1    0    0  501  502  0.00000000000E+00 -0.00000000000E+00 -0.36460741371E+02  0.36460741371E+02  0.00000000000E+00 0.  1.
         23    2    1    2    0    0 -0.20545679031E+02 -0.55801044855E+02  0.26105787387E+03  0.28484869769E+03  0.97219779545E+02 0.  0.
         23    2    1    2    0    0 -0.23979878009E+02  0.90883788585E+02  0.25535669325E+03  0.28629079836E+03  0.88997094665E+02 0.  0.
        -13    1    3    3    0    0 -0.32647702843E+02  0.18914652991E+02  0.10034681327E+03  0.10720596780E+03  0.00000000000E+00 0.  1.
         13    1    3    3    0    0  0.12102023811E+02 -0.74715697845E+02  0.16071106060E+03  0.17764272989E+03  0.00000000000E+00 0. -1.
        -13    1    4    4    0    0 -0.49982794519E+02  0.87396659643E+02  0.17664892143E+03  0.20332559433E+03  0.00000000000E+00 0.  1.
         13    1    4    4    0    0  0.26002916510E+02  0.34871289421E+01  0.78707771816E+02  0.82965204028E+02  0.00000000000E+00 0. -1.
         -1    1    1    2    0  502  0.44525557040E+02 -0.35082743730E+02  0.79196577457E+02  0.97393131269E+02  0.00000000000E+00 0.  1.
<scales pt_clust_5="13000.00000" pt_clust_6="13000.00000" pt_clust_7="13000.00000" pt_clust_8="13000.00000" pt_clust_9="13000.00000"></scales>
<clustering>
<clus scale="   88.997">  7  8 -1 -1</clus>
<clus scale="   56.686">  7  9 -1 -1</clus>
<clus scale="   97.220">  5  6 -1 -1</clus>
<clus scale="  113.963">  1  5  2 -1</clus>
<clus scale="  187.850">  2  5  1 -1</clus>
</clustering>
</event>
<event>
 9    1  0.3312826E-006  0.1263329E+03  0.7546771E-02  0.1247081E+00
         21   -1    0    0  501  502  0.00000000000E+00  0.00000000000E+00  0.85559295589E+02  0.85559295589E+02  0.00000000000E+00 0. -1.
         -1   -1    0    0    0  501 -0.00000000000E+00 -0.00000000000E+00 -0.19076486375E+03  0.19076486375E+03  0.00000000000E+00 0.  1.
         23    2    1    2    0    0 -0.26553763349E+02  0.48338597553E+00 -0.11559032374E+03  0.14956513105E+03  0.91122277593E+02 0.  0.
         23    2    1    2    0    0 -0.21153619046E+01 -0.11699272847E+02  0.18661963166E+02  0.94880712357E+02  0.92264472940E+02 0.  0.
        -11    1    4    4    0    0  0.97756203799E+01  0.38875808995E+02  0.13168947204E+01  0.40107673712E+02  0.00000000000E+00 0.  1.
         11    1    4    4    0    0 -0.11890982285E+02 -0.50575081842E+02  0.17345068445E+02  0.54773038645E+02  0.00000000000E+00 0. -1.
        -11    1    3    3    0    0 -0.55105065141E+02 -0.20826530734E+02 -0.78373142821E+02  0.98044184439E+02  0.00000000000E+00 0. -1.
         11    1    3    3    0    0  0.28551301792E+02  0.21309916710E+02 -0.37217180919E+02  0.51520946612E+02  0.00000000000E+00 0.  1.
         -1    1    1    2    0  502  0.28669125253E+02  0.11215886872E+02 -0.82772075827E+01  0.31878315929E+02  0.00000000000E+00 0.  1.
<scales pt_clust_5="13000.00000" pt_clust_6="13000.00000" pt_clust_7="13000.00000" pt_clust_8="13000.00000" pt_clust_9="13000.00000"></scales>
<clustering>
<clus scale="   91.122">  7  8 -1 -1</clus>
<clus scale="   92.264">  5  6 -1 -1</clus>
<clus scale="   30.785">  5  9 -1 -1</clus>
<clus scale="   94.914">  2  7  1 -1</clus>
<clus scale="  126.333">  1  5  2 -1</clus>
</clustering>
</event>
<event>
 9    1  0.3312826E-006  0.5566824E+03  0.7546771E-02  0.1008529E+00
         21   -1    0    0  501  502  0.00000000000E+00  0.00000000000E+00  0.17803657148E+03  0.17803657148E+03  0.00000000000E+00 0. -1.
          2   -1    0    0  502    0 -0.00000000000E+00 -0.00000000000E+00 -0.14462867768E+04  0.14462867768E+04  0.00000000000E+00 0. -1.
         23    2    1    2    0    0  0.39192075551E+03  0.13816102376E+03 -0.75653985368E+03  0.86818662002E+03  0.93301178409E+02 0.  0.
         23    2    1    2    0    0  0.32972873974E+02 -0.65231709512E+01 -0.16553082800E+03  0.19248490020E+03  0.92305035659E+02 0.  0.
        -11    1    3    3    0    0  0.31455034439E+03  0.14839601900E+03 -0.61202899342E+03  0.70394799978E+03  0.00000000000E+00 0. -1.
         11    1    3    3    0    0  0.77370411120E+02 -0.10234995247E+02 -0.14451086026E+03  0.16423862024E+03  0.00000000000E+00 0.  1.
        -13    1    4    4    0    0  0.88307894546E+01  0.40172263870E+02 -0.10228582904E+03  0.11024601784E+03  0.00000000000E+00 0. -1.
         13    1    4    4    0    0  0.24142084519E+02 -0.46695434822E+02 -0.63244998962E+02  0.82238882360E+02  0.00000000000E+00 0.  1.
          2    1    1    2  501    0 -0.42489362949E+03 -0.13163785280E+03 -0.34617952360E+03  0.56365182802E+03  0.00000000000E+00 0. -1.
<scales pt_clust_5="13000.00000" pt_clust_6="13000.00000" pt_clust_7="13000.00000" pt_clust_8="13000.00000" pt_clust_9="13000.00000"></scales>
<clustering>
<clus scale="   92.305">  7  8 -1 -1</clus>
<clus scale="   93.301">  5  6 -1 -1</clus>
<clus scale="  425.905">  2  5  1 -1</clus>
<clus scale="  147.273">  7  9 -1 -1</clus>
<clus scale="  556.682">  1  5  2 -1</clus>
</clustering>
</event>
<event>
 9    1  0.3312826E-006  0.3171552E+03  0.7546771E-02  0.1123197E+00
          2   -1    0    0  502    0 -0.00000000000E+00  0.00000000000E+00  0.64879431581E+03  0.64879431581E+03  0.00000000000E+00 0. -1.
         21   -1    0    0  501  502  0.00000000000E+00 -0.00000000000E+00 -0.86161653498E+02  0.86161653498E+02  0.00000000000E+00 0. -1.
         23    2    1    2    0    0  0.38773299796E+00  0.25676903815E+02  0.32472751046E+03  0.33848867948E+03  0.92017261208E+02 0.  0.
         23    2    1    2    0    0 -0.46861717590E+02  0.71192313483E+02  0.25852750050E+03  0.28706547190E+03  0.91135890662E+02 0.  0.
        -11    1    4    4    0    0 -0.42154532339E+02 -0.43380460629E+01  0.51824488894E+02  0.66944759985E+02  0.00000000000E+00 0.  1.
         11    1    4    4    0    0 -0.47071852514E+01  0.75530359546E+02  0.20670301160E+03  0.22012071191E+03  0.00000000000E+00 0. -1.
        -13    1    3    3    0    0  0.31242464792E+02  0.47616709773E+02  0.17421170820E+03  0.18328437448E+03  0.00000000000E+00 0.  1.
         13    1    3    3    0    0 -0.30854731794E+02 -0.21939805957E+02  0.15051580226E+03  0.15520430500E+03  0.00000000000E+00 0. -1.
          2    1    1    2  501    0  0.46473984592E+02 -0.96869217299E+02 -0.20622348642E+02  0.10940181793E+03  0.00000000000E+00 0. -1.
<scales pt_clust_5="13000.00000" pt_clust_6="13000.00000" pt_clust_7="13000.00000" pt_clust_8="13000.00000" pt_clust_9="13000.00000"></scales>
<clustering>
<clus scale="   91.136">  5  6 -1 -1</clus>
<clus scale="   92.017">  7  8 -1 -1</clus>
<clus scale="   95.533">  1  7  2 -1</clus>
<clus scale="  104.237">  5  9 -1 -1</clus>
<clus scale="  317.155">  2  5  1 -1</clus>
</clustering>
</event>
<event>
 9    1  0.3312826E-006  0.2800095E+03  0.7546771E-02  0.1110996E+00
         21   -1    0    0  501  502  0.00000000000E+00  0.00000000000E+00  0.20498898054E+03  0.20498898054E+03  0.00000000000E+00 0. -1.
          2   -1    0    0  502    0 -0.00000000000E+00 -0.00000000000E+00 -0.41180164288E+03  0.41180164288E+03  0.00000000000E+00 0. -1.
         23    2    1    2    0    0 -0.78257263376E+02 -0.14519600478E+03 -0.27034337461E+03  0.32966440329E+03  0.91580563023E+02 0.  0.
         23    2    1    2    0    0  0.65627324818E+02 -0.19378649461E+02  0.18420599466E+02  0.11601440159E+03  0.91856110710E+02 0.  0.
        -11    1    3    3    0    0  0.12047473012E+02 -0.70128647498E+02 -0.10651314679E+03  0.12809457149E+03  0.00000000000E+00 0.  1.
         11    1    3    3    0    0 -0.90304736388E+02 -0.75067357284E+02 -0.16383022783E+03  0.20156983180E+03  0.00000000000E+00 0. -1.
        -13    1    4    4    0    0 -0.15940222320E+02 -0.27273470537E+02 -0.16861852104E+01  0.31635045493E+02  0.00000000000E+00 0. -1.
         13    1    4    4    0    0  0.81567547138E+02  0.78948210765E+01  0.20106784676E+02  0.84379356101E+02  0.00000000000E+00 0.  1.
          2    1    1    2  501    0  0.12629938558E+02  0.16457465424E+03  0.45110112803E+02  0.17111181854E+03  0.00000000000E+00 0. -1.
<scales pt_clust_5="13000.00000" pt_clust_6="13000.00000" pt_clust_7="13000.00000" pt_clust_8="13000.00000" pt_clust_9="13000.00000"></scales>
<clustering>
<clus scale="   91.581">  5  6 -1 -1</clus>
<clus scale="   91.856">  7  8 -1 -1</clus>
<clus scale="  165.059">  7  9 -1 -1</clus>
<clus scale="  188.661">  2  5  1 -1</clus>
<clus scale="  280.009">  1  5  2 -1</clus>
</clustering>
</event>
<event>
 9    1  0.3312826E-006  0.3972597E+03  0.7546771E-02  0.1087980E+00
         21   -1    0    0  501  502  0.00000000000E+00  0.00000000000E+00  0.32758847899E+03  0.32758847899E+03  0.00000000000E+00 0.  1.
         -1   -1    0    0    0  501 -0.00000000000E+00 -0.00000000000E+00 -0.38795137990E+03  0.38795137990E+03  0.00000000000E+00 0.  1.
         23    2    1    2    0    0  0.71241130231E+02  0.35118738039E+02 -0.24848003476E+03  0.27599082120E+03  0.90110938929E+02 0.  0.
         23    2    1    2    0    0  0.52274756215E+02 -0.10169642053E+03 -0.55606138332E+02  0.15831995774E+03  0.94331088790E+02 0.  0.
        -11    1    4    4    0    0  0.21378446795E+02 -0.54822615031E+02  0.21753931188E+02  0.62735879912E+02  0.00000000000E+00 0. -1.
         11    1    4    4    0    0  0.30896309420E+02 -0.46873805496E+02 -0.77360069520E+02  0.95584077825E+02  0.00000000000E+00 0.  1.
        -13    1    3    3    0    0  0.53686208929E+02 -0.22032249489E+02 -0.14934018268E+03  0.16021897269E+03  0.00000000000E+00 0. -1.
         13    1    3    3    0    0  0.17554921302E+02  0.57150987528E+02 -0.99139852084E+02  0.11577184852E+03  0.00000000000E+00 0.  1.
         -1    1    1    2    0  502 -0.12351588645E+03  0.66577682488E+02  0.24372327218E+03  0.28122907995E+03  0.00000000000E+00 0.  1.
<scales pt_clust_5="13000.00000" pt_clust_6="13000.00000" pt_clust_7="13000.00000" pt_clust_8="13000.00000" pt_clust_9="13000.00000"></scales>
<clustering>
<clus scale="   90.111">  7  8 -1 -1</clus>
<clus scale="   94.331">  5  6 -1 -1</clus>
<clus scale="  120.119">  2  7  1 -1</clus>
<clus scale="  133.797">  5  9 -1 -1</clus>
<clus scale="  397.260">  1  5  2 -1</clus>
</clustering>
</event>
<event>
 9    1  0.3312826E-006  0.1328665E+03  0.7546771E-02  0.1231429E+00
         -4   -1    0    0    0  501 -0.00000000000E+00  0.00000000000E+00  0.11535154865E+03  0.11535154865E+03  0.00000000000E+00 0.  1.
         21   -1    0    0  501  502  0.00000000000E+00 -0.00000000000E+00 -0.20838098345E+03  0.20838098345E+03  0.00000000000E+00 0. -1.
         23    2    1    2    0    0 -0.48983242480E+02  0.16619569958E+02  0.54911601842E+02  0.12488574113E+03  0.99526861559E+02 0.  0.
         23    2    1    2    0    0  0.34053302384E+02 -0.36607190026E+02 -0.96711538280E+02  0.14186548202E+03  0.90955921125E+02 0.  0.
        -13    1    3    3    0    0 -0.73354219494E+01  0.23873626833E+02 -0.24460053494E+02  0.34957870219E+02  0.00000000000E+00 0. -1.
         13    1    3    3    0    0 -0.41647820530E+02 -0.72540568750E+01  0.79371655336E+02  0.89927870912E+02  0.00000000000E+00 0.  1.
        -13    1    4    4    0    0  0.18130053746E+02 -0.59877557853E+02 -0.94827516641E+02  0.11360580397E+03  0.00000000000E+00 0. -1.
         13    1    4    4    0    0  0.15923248638E+02  0.23270367828E+02 -0.18840216394E+01  0.28259678051E+02  0.00000000000E+00 0.  1.
         -4    1    1    2    0  502  0.14929940096E+02  0.19987620067E+02 -0.51229498364E+02  0.56981308952E+02  0.00000000000E+00 0.  1.
<scales pt_clust_5="13000.00000" pt_clust_6="13000.00000" pt_clust_7="13000.00000" pt_clust_8="13000.00000" pt_clust_9="13000.00000"></scales>
<clustering>
<clus scale="   90.956">  7  8 -1 -1</clus>
<clus scale="   24.948">  7  9 -1 -1</clus>
<clus scale="   99.527">  5  6 -1 -1</clus>
<clus scale="  112.166">  1  5  2 -1</clus>
<clus scale="  132.866">  2  5  1 -1</clus>
</clustering>
</event>
<event>
 9    1  0.3312826E-006  0.1670834E+03  0.7546771E-02  0.1199266E+00
         -1   -1    0    0    0  501 -0.00000000000E+00  0.00000000000E+00  0.59438378242E+03  0.59438378242E+03  0.00000000000E+00 0.  1.
         21   -1    0    0  501  502  0.00000000000E+00 -0.00000000000E+00 -0.43763059280E+02  0.43763059280E+02  0.00000000000E+00 0. -1.
         23    2    1    2    0    0 -0.31760516347E+02  0.56182179337E+02  0.39285646493E+03  0.40835037496E+03  0.90822128453E+02 0.  0.
         23    2    1    2    0    0  0.58242943817E+02 -0.11160616728E+02  0.77434931177E+02  0.13397861430E+03  0.91854780246E+02 0.  0.
        -11    1    4    4    0    0  0.21292996214E+02 -0.16469599478E+02 -0.17405554153E+02  0.32056086943E+02  0.00000000000E+00 0. -1.
         11    1    4    4    0    0  0.36949947603E+02  0.53089827498E+01  0.94840485330E+02  0.10192252736E+03  0.00000000000E+00 0.  1.
        -13    1    3    3    0    0 -0.61823372979E+02  0.22065373386E+02  0.24666689988E+03  0.25525197285E+03  0.00000000000E+00 0.  1.
         13    1    3    3    0    0  0.30062856632E+02  0.34116805951E+02  0.14618956505E+03  0.15309840210E+03  0.00000000000E+00 0. -1.
         -1    1    1    2    0  502 -0.26482427470E+02 -0.45021562608E+02  0.80329327029E+02  0.95817852435E+02  0.00000000000E+00 0.  1.
<scales pt_clust_5="13000.00000" pt_clust_6="13000.00000" pt_clust_7="13000.00000" pt_clust_8="13000.00000" pt_clust_9="13000.00000"></scales>
<clustering>
<clus scale="   90.822">  7  8 -1 -1</clus>
<clus scale="   91.855">  5  6 -1 -1</clus>
<clus scale="   52.233">  5  9 -1 -1</clus>
<clus scale="  111.417">  1  7  2 -1</clus>
<clus scale="  167.083">  2  5  1 -1</clus>
</clustering>
</event>
<event>
 9    1  0.3312826E-006  0.2866719E+03  0.7546771E-02  0.1128280E+00
         21   -1    0    0  501  502  0.00000000000E+00  0.00000000000E+00  0.12348551286E+03  0.12348551286E+03  0.00000000000E+00 0. -1.
          1   -1    0    0  502    0 -0.00000000000E+00 -0.00000000000E+00 -0.34365975260E+03  0.34365975260E+03  0.00000000000E+00 0. -1.
         23    2    1    2    0    0 -0.48768067594E+02 -0.50376446368E+02 -0.11447631047E+03  0.16160832458E+03  0.89979520717E+02 0.  0.
         23    2    1    2    0    0 -0.27669349404E+02  0.68539331004E+02 -0.16857366056E+03  0.20490927729E+03  0.90041657544E+02 0.  0.
        -11    1    3    3    0    0  0.35358805812E+01 -0.44646169343E+02 -0.11924989000E+02  0.46346394155E+02  0.00000000000E+00 0.  1.
         11    1    3    3    0    0 -0.52303948175E+02 -0.57302770245E+01 -0.10255132147E+03  0.11526193042E+03  0.00000000000E+00 0. -1.
        -13    1    4    4    0    0 -0.14544344881E+02 -0.17744604152E+02 -0.67898203908E+02  0.71669903296E+02  0.00000000000E+00 0.  1.
         13    1    4    4    0    0 -0.13125004523E+02  0.86283935156E+02 -0.10067545665E+03  0.13323937399E+03  0.00000000000E+00 0. -1.
          1    1    1    2  501    0  0.76437416998E+02 -0.18162884637E+02  0.62875731293E+02  0.10062766360E+03  0.00000000000E+00 0. -1.
<scales pt_clust_5="13000.00000" pt_clust_6="13000.00000" pt_clust_7="13000.00000" pt_clust_8="13000.00000" pt_clust_9="13000.00000"></scales>
<clustering>
<clus scale="   89.980">  5  6 -1 -1</clus>
<clus scale="   90.042">  7  8 -1 -1</clus>
<clus scale="   78.566">  7  9 -1 -1</clus>
<clus scale="  114.072">  2  5  1 -1</clus>
<clus scale="  286.672">  1  5  2 -1</clus>
</clustering>
</event>
<event>
 9    1  0.3312826E-006  0.2012767E+03  0.7546771E-02  0.1171858E+00
         21   -1    0    0  501  502  0.00000000000E+00  0.00000000000E+00  0.76638874259E+02  0.76638874259E+02  0.00000000000E+00 0. -1.
          2   -1    0    0  502    0 -0.00000000000E+00 -0.00000000000E+00 -0.45268053422E+03  0.45268053422E+03  0.00000000000E+00 0. -1.
         23    2    1    2    0    0 -0.43223439872E+02  0.63870649306E+02 -0.28539439241E+03  0.30857245098E+03  0.88426651452E+02 0.  0.
         23    2    1    2    0    0  0.62714496475E+02  0.20000340121E+02 -0.33082102392E+02  0.11717093520E+03  0.91112462838E+02 0.  0.
        -11    1    4    4    0    0 -0.23414283044E+02  0.93498285441E+01 -0.33462645888E+01  0.25433156135E+02  0.00000000000E+00 0. -1.
         11    1    4    4    0    0  0.86128779519E+02  0.10650511577E+02 -0.29735837803E+02  0.91737779067E+02  0.00000000000E+00 0.  1.
        -11    1    3    3    0    0 -0.62455082996E+02  0.72947803002E+02 -0.23651454832E+03  0.25526682300E+03  0.00000000000E+00 0. -1.
         11    1    3    3    0    0  0.19231643124E+02 -0.90771536966E+01 -0.48879844090E+02  0.53305627984E+02  0.00000000000E+00 0.  1.
          2    1    1    2  501    0 -0.19491056603E+02 -0.83870989427E+02 -0.57565165156E+02  0.10357602229E+03  0.00000000000E+00 0. -1.
<scales pt_clust_5="13000.00000" pt_clust_6="13000.00000" pt_clust_7="13000.00000" pt_clust_8="13000.00000" pt_clust_9="13000.00000"></scales>
<clustering>
<clus scale="   88.427">  7  8 -1 -1</clus>
<clus scale="   91.112">  5  6 -1 -1</clus>
<clus scale="   86.106">  5  9 -1 -1</clus>
<clus scale="  117.333">  2  7  1 -1</clus>
<clus scale="  201.277">  1  5  2 -1</clus>
</clustering>
</event>
<event>
 9    1  0.3312826E-006  0.2760257E+03  0.7546771E-02  0.1107850E+00
         21   -1    0    0  501  502  0.00000000000E+00  0.00000000000E+00  0.43251180491E+03  0.43251180491E+03  0.00000000000E+00 0. -1.
          4   -1    0    0  502    0 -0.00000000000E+00 -0.00000000000E+00 -0.14912854133E+03  0.14912854133E+03  0.00000000000E+00 0. -1.
         23    2    1    2    0    0 -0.10089716006E+03 -0.16569133670E+03  0.20206016494E+03  0.29388414381E+03  0.88914137028E+02 0.  0.
         23    2    1    2    0    0 -0.17438423802E+01  0.32365392687E+02 -0.75749685641E+01  0.97456835429E+02  0.91596369978E+02 0.  0.
        -11    1    4    4    0    0  0.28211723558E+02 -0.16736198960E+02  0.14478996214E+02  0.35855864696E+02  0.00000000000E+00 0. -1.
         11    1    4    4    0    0 -0.29955565938E+02  0.49101591646E+02 -0.22053964778E+02  0.61600970733E+02  0.00000000000E+00 0.  1.
        -13    1    3    3    0    0 -0.10865846711E+03 -0.10657696454E+03  0.12847174686E+03  0.19917404847E+03  0.00000000000E+00 0. -1.
         13    1    3    3    0    0  0.77613070508E+01 -0.59114372164E+02  0.73588418079E+02  0.94710095338E+02  0.00000000000E+00 0.  1.
          4    1    1    2  501    0  0.10264100244E+03  0.13332594401E+03  0.88898067210E+02  0.19029936701E+03  0.00000000000E+00 0. -1.
<scales pt_clust_5="13000.00000" pt_clust_6="13000.00000" pt_clust_7="13000.00000" pt_clust_8="13000.00000" pt_clust_9="13000.00000"></scales>
<clustering>
<clus scale="   88.914">  7  8 -1 -1</clus>
<clus scale="   91.596">  5  6 -1 -1</clus>
<clus scale="  168.259">  5  9 -1 -1</clus>
<clus scale="  213.400">  2  7  1 -1</clus>
<clus scale="  276.026">  1  5  2 -1</clus>
</clustering>
</event>
<event>
 9    1  0.3312826E-006  0.1841775E+03  0.7546771E-02  0.1183421E+00
         21   -1    0    0  501  502  0.00000000000E+00  0.00000000000E+00  0.11225770629E+03  0.11225770629E+03  0.00000000000E+00 0.  1.
          3   -1    0    0  502    0 -0.00000000000E+00 -0.00000000000E+00 -0.20571715795E+03  0.20571715795E+03  0.00000000000E+00 0. -1.
         23    2    1    2    0    0  0.18750359351E+02 -0.69874858218E+02 -0.19785617336E+02  0.11960858433E+03  0.93170118628E+02 0.  0.
         23    2    1    2    0    0  0.61228979575E+01  0.85378625719E+02 -0.98785689940E+02  0.15977028234E+03  0.91874539303E+02 0.  0.
        -13    1    3    3    0    0 -0.30059243382E+02 -0.22379020534E+00 -0.16951953634E+02  0.34510533563E+02  0.00000000000E+00 0.  1.
         13    1    3    3    0    0  0.48809602733E+02 -0.69651068013E+02 -0.28336637013E+01  0.85098050767E+02  0.00000000000E+00 0. -1.
        -13    1    4    4    0    0  0.24135173002E+02  0.99497578700E+02 -0.76308278760E+02  0.12769192672E+03  0.00000000000E+00 0.  1.
         13    1    4    4    0    0 -0.18012275045E+02 -0.14118952981E+02 -0.22477411180E+02  0.32078355614E+02  0.00000000000E+00 0. -1.
          3    1    1    2  501    0 -0.24873257309E+02 -0.15503767501E+02  0.25111855614E+02  0.38595997568E+02  0.00000000000E+00 0. -1.
<scales pt_clust_5="13000.00000" pt_clust_6="13000.00000" pt_clust_7="13000.00000" pt_clust_8="13000.00000" pt_clust_9="13000.00000"></scales>
<clustering>
<clus scale="   91.875">  7  8 -1 -1</clus>
<clus scale="   29.309">  7  9 -1 -1</clus>
<clus scale="   93.170">  5  6 -1 -1</clus>
<clus scale="  117.961">  2  5  1 -1</clus>
<clus scale="  184.177">  1  5  2 -1</clus>
</clustering>
</event>
<event>
 9    1  0.3312826E-006  0.4834300E+03  0.7546771E-02  0.1050974E+00
          2   -1    0    0  502    0 -0.00000000000E+00  0.00000000000E+00  0.14091222960E+04  0.14091222960E+04  0.00000000000E+00 0. -1.
         21   -1    0    0  501  502  0.00000000000E+00 -0.00000000000E+00 -0.82175207297E+02  0.82175207297E+02  0.00000000000E+00 0. -1.
         23    2    1    2    0    0  0.12206024564E+03 -0.10313570365E+03  0.24810477239E+03  0.30909392486E+03  0.91909734926E+02 0.  0.
         23    2    1    2    0    0 -0.20113936085E+03  0.10608911249E+03  0.10753503107E+04  0.11029923218E+04  0.92205362980E+02 0.  0.
        -11    1    4    4    0    0 -0.13461854542E+03  0.31276664572E+02  0.74858805601E+03  0.76123876682E+03  0.00000000000E+00 0.  1.
         11    1    4    4    0    0 -0.66520815425E+02  0.74812447919E+02  0.32676225464E+03  0.34175355493E+03  0.00000000000E+00 0. -1.
        -13    1    3    3    0    0  0.57175367894E+02  0.39550237385E+01  0.58673712877E+02  0.82019933488E+02  0.00000000000E+00 0. -1.
         13    1    3    3    0    0  0.64884877741E+02 -0.10709072739E+03  0.18943105951E+03  0.22707399138E+03  0.00000000000E+00 0.  1.
          2    1    1    2  501    0  0.79079115213E+02 -0.29534088422E+01  0.34920057012E+01  0.79211256715E+02  0.00000000000E+00 0. -1.
<scales pt_clust_5="13000.00000" pt_clust_6="13000.00000" pt_clust_7="13000.00000" pt_clust_8="13000.00000" pt_clust_9="13000.00000"></scales>
<clustering>
<clus scale="   91.910">  7  8 -1 -1</clus>
<clus scale="   92.205">  5  6 -1 -1</clus>
<clus scale="   79.134">  5  9 -1 -1</clus>
<clus scale="  184.345">  1  7  2 -1</clus>
<clus scale="  483.430">  2  5  1 -1</clus>
</clustering>
</event>
<event>
 9    1  0.3312826E-006  0.3377256E+03  0.7546771E-02  0.1114878E+00
          1   -1    0    0  502    0 -0.00000000000E+00  0.00000000000E+00  0.91207973427E+02  0.91207973427E+02  0.00000000000E+00 0. -1.
         21   -1    0    0  501  502  0.00000000000E+00 -0.00000000000E+00 -0.64126906066E+03  0.64126906066E+03  0.00000000000E+00 0.  1.
         23    2    1    2    0    0 -0.18713984707E+02  0.31318844192E+02 -0.13369369417E+02  0.98366201109E+02  0.90366400043E+02 0.  0.
         23    2    1    2    0    0  0.63030185729E+02 -0.10618618553E+03 -0.52400368302E+03  0.54619023983E+03  0.92171622299E+02 0.  0.
        -11    1    4    4    0    0  0.29745508903E+02 -0.24594785102E+02 -0.45613218981E+02  0.59751690352E+02  0.00000000000E+00 0. -1.
         11    1    4    4    0    0  0.33284676826E+02 -0.81591400426E+02 -0.47839046404E+03  0.48643854948E+03  0.00000000000E+00 0.  1.
        -13    1    3    3    0    0 -0.44921537750E+02 -0.10784035861E+02 -0.15495806350E+02  0.48727404997E+02  0.00000000000E+00 0.  1.
         13    1    3    3    0    0  0.26207553044E+02  0.42102880054E+02  0.21264369328E+01  0.49638796111E+02  0.00000000000E+00 0. -1.
          1    1    1    2  501    0 -0.44316201023E+02  0.74867341335E+02 -0.12688034791E+02  0.87920593143E+02  0.00000000000E+00 0. -1.
<scales pt_clust_5="13000.00000" pt_clust_6="13000.00000" pt_clust_7="13000.00000" pt_clust_8="13000.00000" pt_clust_9="13000.00000"></scales>
<clustering>
<clus scale="   90.366">  7  8 -1 -1</clus>
<clus scale="   92.172">  5  6 -1 -1</clus>
<clus scale="   87.000">  5  9 -1 -1</clus>
<clus scale="   97.453">  1  7  2 -1</clus>
<clus scale="  337.726">  2  5  1 -1</clus>
</clustering>
</event>
<event>
 9    1  0.3312826E-006  0.1848888E+03  0.7546771E-02  0.1184865E+00
         21   -1    0    0  501  502  0.00000000000E+00  0.00000000000E+00  0.83500875075E+02  0.83500875075E+02  0.00000000000E+00 0. -1.
          2   -1    0    0  502    0 -0.00000000000E+00 -0.00000000000E+00 -0.67112830300E+03  0.67112830300E+03  0.00000000000E+00 0. -1.
         23    2    1    2    0    0  0.11277174774E+02 -0.66450386098E+02 -0.55563804675E+03  0.56699335750E+03  0.90581454905E+02 0.  0.
         23    2    1    2    0    0 -0.33381027159E+02 -0.10854561862E+02 -0.34347668770E+02  0.10719828711E+03  0.95286913699E+02 0.  0.
        -11    1    4    4    0    0 -0.49767088432E+02  0.24614601701E+02 -0.52962213575E+00  0.55524068723E+02  0.00000000000E+00 0.  1.
         11    1    4    4    0    0  0.16386061273E+02 -0.35469163563E+02 -0.33818046635E+02  0.51674218389E+02  0.00000000000E+00 0. -1.
        -11    1    3    3    0    0  0.23358794972E+02 -0.84265895503E+02 -0.49461163762E+03  0.50228183972E+03  0.00000000000E+00 0. -1.
         11    1    3    3    0    0 -0.12081620198E+02  0.17815509404E+02 -0.61026409129E+02  0.64711517778E+02  0.00000000000E+00 0.  1.
          2    1    1    2  501    0  0.22103852385E+02  0.77304947961E+02  0.23582875922E+01  0.80437533464E+02  0.00000000000E+00 0. -1.
<scales pt_clust_5="13000.00000" pt_clust_6="13000.00000" pt_clust_7="13000.00000" pt_clust_8="13000.00000" pt_clust_9="13000.00000"></scales>
<clustering>
<clus scale="   90.581">  7  8 -1 -1</clus>
<clus scale="   95.287">  5  6 -1 -1</clus>
<clus scale="   80.403">  5  9 -1 -1</clus>
<clus scale="  112.906">  2  7  1 -1</clus>
<clus scale="  184.889">  1  5  2 -1</clus>
</clustering>
</event>
<event>
 9    1  0.3312826E-006  0.2959229E+03  0.7546771E-02  0.1109704E+00
         -1   -1    0    0    0  501 -0.00000000000E+00  0.00000000000E+00  0.10394455384E+04  0.10394455384E+04  0.00000000000E+00 0.  1.
         21   -1    0    0  501  502  0.00000000000E+00 -0.00000000000E+00 -0.58000204332E+02  0.58000204332E+02  0.00000000000E+00 0.  1.
         23    2    1    2    0    0  0.13650203940E+03  0.18732508771E+02  0.18608345088E+03  0.24881693025E+03  0.91099398704E+02 0.  0.
         23    2    1    2    0    0  0.30097020264E+02  0.40534027967E+02  0.18285190341E+03  0.21110528791E+03  0.92637929320E+02 0.  0.
        -13    1    3    3    0    0  0.11586876224E+03 -0.22414557278E+02  0.14637582862E+03  0.18802623659E+03  0.00000000000E+00 0. -1.
         13    1    3    3    0    0  0.20633277155E+02  0.41147066049E+02  0.39707622266E+02  0.60790693668E+02  0.00000000000E+00 0.  1.
        -13    1    4    4    0    0  0.58646637403E+02  0.38139264626E+02  0.90348083199E+02  0.11426638930E+03  0.00000000000E+00 0.  1.
         13    1    4    4    0    0 -0.28549617139E+02  0.23947633416E+01  0.92503820215E+02  0.96838898613E+02  0.00000000000E+00 0. -1.
         -1    1    1    2    0  502 -0.16659905966E+03 -0.59266536739E+02  0.61250997972E+03  0.63752352452E+03  0.00000000000E+00 0.  1.
<scales pt_clust_5="13000.00000" pt_clust_6="13000.00000" pt_clust_7="13000.00000" pt_clust_8="13000.00000" pt_clust_9="13000.00000"></scales>
<clustering>
<clus scale="   91.099">  5  6 -1 -1</clus>
<clus scale="   92.638">  7  8 -1 -1</clus>
<clus scale="  165.175">  1  5  2 -1</clus>
<clus scale="   77.278">  7  9 -1 -1</clus>
<clus scale="  295.923">  2  5  1 -1</clus>
</clustering>
</event>
<event>
 9    1  0.3312826E-006  0.2238556E+03  0.7546771E-02  0.1155626E+00
         21   -1    0    0  501  502  0.00000000000E+00  0.00000000000E+00  0.86510340467E+02  0.86510340467E+02  0.00000000000E+00 0. -1.
          3   -1    0    0  502    0 -0.00000000000E+00 -0.00000000000E+00 -0.37461870097E+03  0.37461870097E+03  0.00000000000E+00 0. -1.
         23    2    1    2    0    0 -0.33229685214E+02 -0.78351923190E+02 -0.16232462776E+03  0.20435506225E+03  0.90379593064E+02 0.  0.
         23    2    1    2    0    0  0.29443299902E+02  0.20416886130E+02 -0.16129914218E+03  0.18871408247E+03  0.91169262954E+02 0.  0.
        -11    1    3    3    0    0  0.27105689274E+02 -0.24237357860E+02 -0.84503466591E+02  0.91994585563E+02  0.00000000000E+00 0.  1.
         11    1    3    3    0    0 -0.60335374487E+02 -0.54114565330E+02 -0.77821161170E+02  0.11236047669E+03  0.00000000000E+00 0. -1.
        -11    1    4    4    0    0  0.49786046447E+02 -0.18494245318E+02 -0.10112947916E+03  0.11422722567E+03  0.00000000000E+00 0. -1.
         11    1    4    4    0    0 -0.20342746544E+02  0.38911131448E+02 -0.60169663024E+02  0.74486856800E+02  0.00000000000E+00 0.  1.
          3    1    1    2  501    0  0.37863853116E+01  0.57935037060E+02  0.35515409440E+02  0.68059896713E+02  0.00000000000E+00 0. -1.
<scales pt_clust_5="13000.00000" pt_clust_6="13000.00000" pt_clust_7="13000.00000" pt_clust_8="13000.00000" pt_clust_9="13000.00000"></scales>
<clustering>
<clus scale="   90.380">  5  6 -1 -1</clus>
<clus scale="   91.169">  7  8 -1 -1</clus>
<clus scale="   58.059">  7  9 -1 -1</clus>
<clus scale="  124.144">  2  5  1 -1</clus>
<clus scale="  223.856">  1  5  2 -1</clus>
</clustering>
</event>
<event>
 9    1  0.3312826E-006  0.4728244E+03  0.7546771E-02  0.1051280E+00
          1   -1    0    0  502    0 -0.00000000000E+00  0.00000000000E+00  0.13095021070E+03  0.13095021070E+03  0.00000000000E+00 0. -1.
         21   -1    0    0  501  502  0.00000000000E+00 -0.00000000000E+00 -0.87523874374E+03  0.87523874374E+03  0.00000000000E+00 0.  1.
         23    2    1    2    0    0  0.10732596564E+02 -0.17243321834E+03 -0.29597059481E+03  0.35461250560E+03  0.91120978484E+02 0.  0.
         23    2    1    2    0    0 -0.17739019166E+03 -0.37775339307E+02 -0.22041533902E+03  0.29957930904E+03  0.90942753261E+02 0.  0.
        -11    1    3    3    0    0  0.27438484100E+02 -0.16060928473E+03 -0.20761308036E+03  0.26391552415E+03  0.00000000000E+00 0.  1.
         11    1    3    3    0    0 -0.16705887536E+02 -0.11823933610E+02 -0.88357514450E+02  0.90696981450E+02  0.00000000000E+00 0. -1.
        -13    1    4    4    0    0 -0.26873897692E+02  0.26141436014E+02 -0.26459212277E+02  0.45887590571E+02  0.00000000000E+00 0.  1.
         13    1    4    4    0    0 -0.15051629397E+03 -0.63916775321E+02 -0.19395612675E+03  0.25369171847E+03  0.00000000000E+00 0. -1.
          1    1    1    2  501    0  0.16665759509E+03  0.21020855764E+03 -0.22790259920E+03  0.35199713980E+03  0.00000000000E+00 0. -1.
<scales pt_clust_5="13000.00000" pt_clust_6="13000.00000" pt_clust_7="13000.00000" pt_clust_8="13000.00000" pt_clust_9="13000.00000"></scales>
<clustering>
<clus scale="   90.943">  7  8 -1 -1</clus>
<clus scale="   91.121">  5  6 -1 -1</clus>
<clus scale="  195.324">  1  5  2 -1</clus>
<clus scale="  202.516">  7  9 -1 -1</clus>
<clus scale="  472.824">  2  5  1 -1</clus>
</clustering>
</event>
<event>
 9    1  0.3312826E-006  0.1559325E+03  0.7546771E-02  0.1206767E+00
         -4   -1    0    0    0  501 -0.00000000000E+00  0.00000000000E+00  0.14340633111E+03  0.14340633111E+03  0.00000000000E+00 0.  1.
         21   -1    0    0  501  502  0.00000000000E+00 -0.00000000000E+00 -0.15719250754E+03  0.15719250754E+03  0.00000000000E+00 0.  1.
         23    2    1    2    0    0 -0.60589695874E+02 -0.39299249640E+02  0.56531040458E+02  0.12954492790E+03  0.91490915072E+02 0.  0.
         23    2    1    2    0    0  0.69207808746E+01  0.40302107197E+02 -0.62636626055E+02  0.11682891988E+03  0.89741253301E+02 0.  0.
        -13    1    3    3    0    0 -0.31237145565E+02 -0.37731779351E+02  0.78719809553E+02  0.92715990272E+02  0.00000000000E+00 0.  1.
         13    1    3    3    0    0 -0.29352550309E+02 -0.15674702893E+01 -0.22188769096E+02  0.36828937627E+02  0.00000000000E+00 0. -1.
        -13    1    4    4    0    0 -0.19483020924E+02  0.22203766062E+02  0.14797639453E+02  0.33038847817E+02  0.00000000000E+00 0.  1.
         13    1    4    4    0    0  0.26403801798E+02  0.18098341135E+02 -0.77434265509E+02  0.83790072062E+02  0.00000000000E+00 0. -1.
         -4    1    1    2    0  502  0.53668914999E+02 -0.10028575573E+01 -0.76805908330E+01  0.54224990881E+02  0.00000000000E+00 0.  1.
<scales pt_clust_5="13000.00000" pt_clust_6="13000.00000" pt_clust_7="13000.00000" pt_clust_8="13000.00000" pt_clust_9="13000.00000"></scales>
<clustering>
<clus scale="   89.741">  7  8 -1 -1</clus>
<clus scale="   53.678">  7  9 -1 -1</clus>
<clus scale="   91.491">  5  6 -1 -1</clus>
<clus scale="  116.560">  1  5  2 -1</clus>
<clus scale="  155.932">  2  5  1 -1</clus>
</clustering>
</event>
<event>
 9    1  0.3312826E-006  0.7284790E+03  0.7546771E-02  0.1014376E+00
          2   -1    0    0  502    0 -0.00000000000E+00  0.00000000000E+00  0.78181301026E+03  0.78181301026E+03  0.00000000000E+00 0. -1.
         21   -1    0    0  501  502  0.00000000000E+00 -0.00000000000E+00 -0.25586928043E+03  0.25586928043E+03  0.00000000000E+00 0. -1.
         23    2    1    2    0    0 -0.10289776595E+03 -0.78468775770E+02  0.45850690032E+02  0.16523114544E+03  0.91944258321E+02 0.  0.
         23    2    1    2    0    0 -0.60798556907E+02 -0.21006094699E+03  0.48582380470E+03  0.54066999946E+03  0.92071782504E+02 0.  0.
        -13    1    3    3    0    0 -0.21469065300E+02  0.20974629757E+02  0.11959569389E+02  0.32309242613E+02  0.00000000000E+00 0.  1.
         13    1    3    3    0    0 -0.81428700655E+02 -0.99443405527E+02  0.33891120643E+02  0.13292190283E+03  0.00000000000E+00 0. -1.
        -13    1    4    4    0    0 -0.63023691327E+02 -0.11065944612E+03  0.19125372894E+03  0.22977268662E+03  0.00000000000E+00 0.  1.
         13    1    4    4    0    0  0.22251344203E+01 -0.99401500870E+02  0.29457007576E+03  0.31089731284E+03  0.00000000000E+00 0. -1.
          2    1    1    2  501    0  0.16369632286E+03  0.28852972276E+03 -0.57307648961E+01  0.33178114579E+03  0.00000000000E+00 0. -1.
<scales pt_clust_5="13000.00000" pt_clust_6="13000.00000" pt_clust_7="13000.00000" pt_clust_8="13000.00000" pt_clust_9="13000.00000"></scales>
<clustering>
<clus scale="   91.944">  5  6 -1 -1</clus>
<clus scale="   92.072">  7  8 -1 -1</clus>
<clus scale="  158.742">  1  5  2 -1</clus>
<clus scale="  303.286">  7  9 -1 -1</clus>
<clus scale="  728.479">  2  5  1 -1</clus>
</clustering>
</event>
<event>
 9    1  0.3312826E-006  0.3098958E+03  0.7546771E-02  0.1121535E+00
         21   -1    0    0  501  502  0.00000000000E+00  0.00000000000E+00  0.23517679069E+03  0.23517679069E+03  0.00000000000E+00 0.  1.
          1   -1    0    0  502    0 -0.00000000000E+00 -0.00000000000E+00 -0.19351109737E+03  0.19351109737E+03  0.00000000000E+00 0. -1.
         23    2    1    2    0    0  0.11081328442E+02  0.51963952308E+02 -0.29483030099E+02  0.11072948993E+03  0.92567395435E+02 0.  0.
         23    2    1    2    0    0  0.58737296169E+02  0.12103836516E+01 -0.83561886222E+02  0.14008899918E+03  0.95868680358E+02 0.  0.
        -11    1    4    4    0    0  0.62667781587E+02  0.25754954180E+02 -0.18193444330E+02  0.70153901748E+02  0.00000000000E+00 0.  1.
         11    1    4    4    0    0 -0.39304854176E+01 -0.24544570528E+02 -0.65368441891E+02  0.69935097436E+02  0.00000000000E+00 0. -1.
        -13    1    3    3    0    0  0.43307865096E+01  0.29545635540E+02  0.32701108958E+02  0.44283888925E+02  0.00000000000E+00 0.  1.
         13    1    3    3    0    0  0.67505419324E+01  0.22418316768E+02 -0.62184139057E+02  0.66445601008E+02  0.00000000000E+00 0. -1.
          1    1    1    2  501    0 -0.69818624611E+02 -0.53174335959E+02  0.15471060964E+03  0.17786939895E+03  0.00000000000E+00 0. -1.
<scales pt_clust_5="13000.00000" pt_clust_6="13000.00000" pt_clust_7="13000.00000" pt_clust_8="13000.00000" pt_clust_9="13000.00000"></scales>
<clustering>
<clus scale="   92.567">  7  8 -1 -1</clus>
<clus scale="   95.869">  5  6 -1 -1</clus>
<clus scale="   87.762">  5  9 -1 -1</clus>
<clus scale="  106.732">  2  7  1 -1</clus>
<clus scale="  309.896">  1  5  2 -1</clus>
</clustering>
</event>
<event>
 9    1  0.3312826E-006  0.1385452E+03  0.7546771E-02  0.1235280E+00
          1   -1    0    0  502    0 -0.00000000000E+00  0.00000000000E+00  0.20339678928E+03  0.20339678928E+03  0.00000000000E+00 0. -1.
         21   -1    0    0  501  502  0.00000000000E+00 -0.00000000000E+00 -0.97495051166E+02  0.97495051166E+02  0.00000000000E+00 0.  1.
         23    2    1    2    0    0 -0.77554162772E+01  0.70318216307E+01  0.13135219775E+03  0.16002846422E+03  0.90808130202E+02 0.  0.
         23    2    1    2    0    0 -0.31113073709E+02 -0.36867678016E+01 -0.57560255756E+01  0.97161893046E+02  0.91791535653E+02 0.  0.
        -13    1    3    3    0    0 -0.26382386141E+02  0.43168235417E+02  0.68053477097E+02  0.84798600180E+02  0.00000000000E+00 0.  1.
         13    1    3    3    0    0  0.18626969864E+02 -0.36136413786E+02  0.63298720652E+02  0.75229864042E+02  0.00000000000E+00 0. -1.
        -13    1    4    4    0    0 -0.36050160852E+02 -0.43683341170E+02 -0.49489985629E+01  0.56853680443E+02  0.00000000000E+00 0. -1.
         13    1    4    4    0    0  0.49370871425E+01  0.39996573368E+02 -0.80702701272E+00  0.40308212603E+02  0.00000000000E+00 0.  1.
          1    1    1    2  501    0  0.38868489986E+02 -0.33450538291E+01 -0.19694434060E+02  0.43701483177E+02  0.00000000000E+00 0. -1.
<scales pt_clust_5="13000.00000" pt_clust_6="13000.00000" pt_clust_7="13000.00000" pt_clust_8="13000.00000" pt_clust_9="13000.00000"></scales>
<clustering>
<clus scale="   90.808">  5  6 -1 -1</clus>
<clus scale="   91.410">  1  5  2 -1</clus>
<clus scale="   91.792">  7  8 -1 -1</clus>
<clus scale="   37.303">  7  9 -1 -1</clus>
<clus scale="  138.545">  2  5  1 -1</clus>
</clustering>
</event>
<event>
 9    1  0.3312826E-006  0.6752183E+03  0.7546771E-02  0.9944173E-01
          2   -1    0    0  502    0 -0.00000000000E+00  0.00000000000E+00  0.71062591564E+03  0.71062591564E+03  0.00000000000E+00 0.  1.
         21   -1    0    0  501  502  0.00000000000E+00 -0.00000000000E+00 -0.42981022260E+03  0.42981022260E+03  0.00000000000E+00 0.  1.
         23    2    1    2    0    0 -0.25067383073E+03  0.25884485813E+03 -0.71731905172E+02  0.37872123323E+03  0.91903624988E+02 0.  0.
         23    2    1    2    0    0  0.81176763871E+02 -0.21882854881E+01  0.42779110696E+03  0.44507088159E+03  0.92132528763E+02 0.  0.
        -11    1    4    4    0    0  0.38063683824E+01  0.24617541447E+02  0.30258630411E+02  0.39193067009E+02  0.00000000000E+00 0. -1.
         11    1    4    4    0    0  0.77370395489E+02 -0.26805826935E+02  0.39753247655E+03  0.40587781458E+03  0.00000000000E+00 0.  1.
        -13    1    3    3    0    0 -0.15953263233E+03  0.18271600589E+03 -0.89702138729E+02  0.25861607313E+03  0.00000000000E+00 0.  1.
         13    1    3    3    0    0 -0.91141198406E+02  0.76128852240E+02  0.17970233557E+02  0.12010516011E+03  0.00000000000E+00 0. -1.
          2    1    1    2  501    0  0.16949706686E+03 -0.25665657264E+03 -0.75243508756E+02  0.31664402342E+03  0.00000000000E+00 0.  1.
<scales pt_clust_5="13000.00000" pt_clust_6="13000.00000" pt_clust_7="13000.00000" pt_clust_8="13000.00000" pt_clust_9="13000.00000"></scales>
<clustering>
<clus scale="   91.904">  7  8 -1 -1</clus>
<clus scale="   92.133">  5  6 -1 -1</clus>
<clus scale="  307.574">  5  9 -1 -1</clus>
<clus scale="  371.866">  1  7  2 -1</clus>
<clus scale="  675.218">  2  5  1 -1</clus>
</clustering>
</event>
<event>
 9    1  0.3312826E-006  0.1859351E+03  0.7546771E-02  0.1165202E+00
         -1   -1    0    0    0  501 -0.00000000000E+00  0.00000000000E+00  0.17447922570E+03  0.17447922570E+03  0.00000000000E+00 0.  1.
         21   -1    0    0  501  502  0.00000000000E+00 -0.00000000000E+00 -0.25593412969E+03  0.25593412969E+03  0.00000000000E+00 0.  1.
         23    2    1    2    0    0 -0.57903798835E+02  0.13639079073E+03  0.73553921457E+02  0.18833978980E+03  0.90035544908E+02 0.  0.
         23    2    1    2    0    0  0.29473753415E+02 -0.92810580823E+02 -0.12142351492E+03  0.18014235164E+03  0.90692286479E+02 0.  0.
        -11    1    3    3    0    0 -0.23068578890E+02  0.82145774723E+02  0.87679863928E+02  0.12234314928E+03  0.00000000000E+00 0.  1.
         11    1    3    3    0    0 -0.34835219945E+02  0.54245016005E+02 -0.14125942471E+02  0.65996640526E+02  0.00000000000E+00 0. -1.
        -13    1    4    4    0    0  0.17797190647E+02 -0.47043824549E+02 -0.12299644773E+03  0.13288336080E+03  0.00000000000E+00 0.  1.
         13    1    4    4    0    0  0.11676562768E+02 -0.45766756274E+02  0.15729328111E+01  0.47258990843E+02  0.00000000000E+00 0. -1.
         -1    1    1    2    0  502  0.28430045420E+02 -0.43580209905E+02 -0.33585310532E+02  0.61931213952E+02  0.00000000000E+00 0.  1.
<scales pt_clust_5="13000.00000" pt_clust_6="13000.00000" pt_clust_7="13000.00000" pt_clust_8="13000.00000" pt_clust_9="13000.00000"></scales>
<clustering>
<clus scale="   90.036">  5  6 -1 -1</clus>
<clus scale="   90.692">  7  8 -1 -1</clus>
<clus scale="   52.034">  7  9 -1 -1</clus>
<clus scale="  173.383">  1  5  2 -1</clus>
<clus scale="  185.935">  2  5  1 -1</clus>
</clustering>
</event>
<event>
 9    1  0.3312826E-006  0.3432699E+03  0.7546771E-02  0.1108605E+00
         21   -1    0    0  501  502  0.00000000000E+00  0.00000000000E+00  0.33563493890E+03  0.33563493890E+03  0.00000000000E+00 0. -1.
          3   -1    0    0  502    0 -0.00000000000E+00 -0.00000000000E+00 -0.41488516396E+03  0.41488516396E+03  0.00000000000E+00 0. -1.
         23    2    1    2    0    0 -0.57717687236E+02  0.15597502071E+02 -0.31554382555E+03  0.33378413692E+03  0.90935860505E+02 0.  0.
         23    2    1    2    0    0  0.19816254984E+00  0.13520051699E+03  0.51080042158E+02  0.17106830331E+03  0.91520350890E+02 0.  0.
        -11    1    3    3    0    0 -0.27969134167E+02 -0.34630265403E+02 -0.84836663691E+02  0.95805987570E+02  0.00000000000E+00 0.  1.
         11    1    3    3    0    0 -0.29748553070E+02  0.50227767474E+02 -0.23070716186E+03  0.23797814935E+03  0.00000000000E+00 0. -1.
        -11    1    4    4    0    0  0.19518309786E+02  0.18794288151E+02  0.45476400977E+02  0.52936686049E+02  0.00000000000E+00 0.  1.
         11    1    4    4    0    0 -0.19320147236E+02  0.11640622884E+03  0.56036411813E+01  0.11813161726E+03  0.00000000000E+00 0. -1.
          3    1    1    2  501    0  0.57519524687E+02 -0.15079801906E+03  0.18521355833E+03  0.24566766263E+03  0.00000000000E+00 0. -1.
<scales pt_clust_5="13000.00000" pt_clust_6="13000.00000" pt_clust_7="13000.00000" pt_clust_8="13000.00000" pt_clust_9="13000.00000"></scales>
<clustering>
<clus scale="   90.936">  5  6 -1 -1</clus>
<clus scale="   91.520">  7  8 -1 -1</clus>
<clus scale="  108.830">  2  5  1 -1</clus>
<clus scale="  150.497">  7  9 -1 -1</clus>
<clus scale="  343.270">  1  5  2 -1</clus>
</clustering>
</event>
<event>
 9    1  0.3312826E-006  0.7103072E+03  0.7546771E-02  0.9957168E-01
          2   -1    0    0  502    0 -0.00000000000E+00  0.00000000000E+00  0.12410680441E+03  0.12410680441E+03  0.00000000000E+00 0. -1.
         21   -1    0    0  501  502  0.00000000000E+00 -0.00000000000E+00 -0.31538306426E+04  0.31538306426E+04  0.00000000000E+00 0. -1.
         23    2    1    2    0    0 -0.19965220743E+03 -0.21409098489E+03 -0.21350575794E+03  0.37352347260E+03  0.90769610363E+02 0.  0.
         23    2    1    2    0    0 -0.92567858309E+02 -0.43905241095E+01 -0.10179976843E+03  0.16558329177E+03  0.92013849875E+02 0.  0.
        -11    1    3    3    0    0 -0.20422138527E+03 -0.18301479268E+03 -0.19957713385E+03  0.33916341326E+03  0.00000000000E+00 0. -1.
         11    1    3    3    0    0  0.45691778398E+01 -0.31076192209E+02 -0.13928624090E+02  0.34360059333E+02  0.00000000000E+00 0.  1.
        -13    1    4    4    0    0 -0.23788925542E+02 -0.19166778309E+02 -0.88977664706E+02  0.94076050011E+02  0.00000000000E+00 0.  1.
         13    1    4    4    0    0 -0.68778932767E+02  0.14776254199E+02 -0.12822103723E+02  0.71507241763E+02  0.00000000000E+00 0. -1.
          2    1    1    2  501    0  0.29222006574E+03  0.21848150900E+03 -0.27144183118E+04  0.27388306826E+04  0.00000000000E+00 0. -1.
<scales pt_clust_5="13000.00000" pt_clust_6="13000.00000" pt_clust_7="13000.00000" pt_clust_8="13000.00000" pt_clust_9="13000.00000"></scales>
<clustering>
<clus scale="   90.770">  5  6 -1 -1</clus>
<clus scale="   92.014">  7  8 -1 -1</clus>
<clus scale="  306.488">  1  5  2 -1</clus>
<clus scale="  285.482">  7  9 -1 -1</clus>
<clus scale="  710.307">  2  5  1 -1</clus>
</clustering>
</event>
<event>
 9    1  0.3312826E-006  0.2182215E+03  0.7546771E-02  0.1176713E+00
         21   -1    0    0  501  502  0.00000000000E+00  0.00000000000E+00  0.17323424123E+03  0.17323424123E+03  0.00000000000E+00 0.  1.
          2   -1    0    0  502    0 -0.00000000000E+00 -0.00000000000E+00 -0.13104455457E+03  0.13104455457E+03  0.00000000000E+00 0. -1.
         23    2    1    2    0    0  0.68469472204E+01 -0.38552734235E+02  0.26282461889E+01  0.82500201638E+02  0.72568461393E+02 0.  0.
         23    2    1    2    0    0  0.74053029608E+02  0.18933477678E+02 -0.16088552937E+02  0.12164546656E+03  0.93254759812E+02 0.  0.
        -11    1    3    3    0    0 -0.22585558878E+02 -0.46724301707E+02  0.24344091948E+01  0.51953769719E+02  0.00000000000E+00 0.  1.
         11    1    3    3    0    0  0.29432506098E+02  0.81715674726E+01  0.19383699408E+00  0.30546431919E+02  0.00000000000E+00 0. -1.
        -13    1    4    4    0    0  0.36388227158E+02  0.34977677547E+02 -0.48065086895E+02  0.69697873573E+02  0.00000000000E+00 0. -1.
         13    1    4    4    0    0  0.37664802449E+02 -0.16044199870E+02  0.31976533959E+02  0.51947592986E+02  0.00000000000E+00 0.  1.
          2    1    1    2  501    0 -0.80899976828E+02  0.19619256557E+02  0.55649993403E+02  0.10013312761E+03  0.00000000000E+00 0. -1.
<scales pt_clust_5="13000.00000" pt_clust_6="13000.00000" pt_clust_7="13000.00000" pt_clust_8="13000.00000" pt_clust_9="13000.00000"></scales>
<clustering>
<clus scale="   72.568">  5  6 -1 -1</clus>
<clus scale="   82.458">  2  5  1 -1</clus>
<clus scale="   93.255">  7  8 -1 -1</clus>
<clus scale="   79.883">  7  9 -1 -1</clus>
<clus scale="  218.222">  1  5  2 -1</clus>
</clustering>
</event>
<event>
 9    1  0.3312826E-006  0.1799242E+03  0.7546771E-02  0.1176878E+00
         21   -1    0    0  501  502  0.00000000000E+00  0.00000000000E+00  0.67811671905E+02  0.67811671905E+02  0.00000000000E+00 0.  1.
          1   -1    0    0  502    0 -0.00000000000E+00 -0.00000000000E+00 -0.52280222916E+03  0.52280222916E+03  0.00000000000E+00 0. -1.
         23    2    1    2    0    0 -0.11344215246E+03  0.43583041604E+02 -0.35659742010E+03  0.38554331702E+03  0.81934887589E+02 0.  0.
         23    2    1    2    0    0  0.41080188065E+02 -0.23246402514E+02 -0.40567191678E+02  0.11023560764E+03  0.90984696896E+02 0.  0.
        -11    1    3    3    0    0 -0.10240782223E+03  0.62474435092E+02 -0.25767107501E+03  0.28422667009E+03  0.00000000000E+00 0. -1.
         11    1    3    3    0    0 -0.11034330231E+02 -0.18891393488E+02 -0.98926345093E+02  0.10131664693E+03  0.00000000000E+00 0.  1.
        -11    1    4    4    0    0  0.33845827662E+02 -0.42728055945E+02  0.10131938575E+02  0.55442609916E+02  0.00000000000E+00 0.  1.
         11    1    4    4    0    0  0.72343604030E+01  0.19481653431E+02 -0.50699130253E+02  0.54792997721E+02  0.00000000000E+00 0. -1.
          1    1    1    2  501    0  0.72361964392E+02 -0.20336639090E+02 -0.57825945470E+02  0.94834976405E+02  0.00000000000E+00 0. -1.
<scales pt_clust_5="13000.00000" pt_clust_6="13000.00000" pt_clust_7="13000.00000" pt_clust_8="13000.00000" pt_clust_9="13000.00000"></scales>
<clustering>
<clus scale="   81.935">  5  6 -1 -1</clus>
<clus scale="   90.985">  7  8 -1 -1</clus>
<clus scale="   75.165">  7  9 -1 -1</clus>
<clus scale="  146.567">  2  5  1 -1</clus>
<clus scale="  179.924">  1  5  2 -1</clus>
</clustering>
</event>
<event>
 9    1  0.6169301E-006  0.6431313E+03  0.7546771E-02  0.1026980E+00
          2   -1    0    0  502    0 -0.00000000000E+00  0.00000000000E+00  0.91418100115E+03  0.91418100115E+03  0.00000000000E+00 0. -1.
         21   -1    0    0  501  502  0.00000000000E+00 -0.00000000000E+00 -0.19429466923E+03  0.19429466923E+03  0.00000000000E+00 0. -1.
         23    2    1    2    0    0  0.76748745976E+02  0.10358852569E+03  0.21479395978E+02  0.15905996840E+03  0.90651841863E+02 0.  0.
         23    2    1    2    0    0 -0.15568330953E+03 -0.23928769588E+03  0.72981599167E+03  0.78931742311E+03  0.94311815075E+02 0.  0.
        -13    1    4    4    0    0 -0.51921906491E+02 -0.23488761301E+02  0.94220923501E+02  0.11011443460E+03  0.00000000000E+00 0.  1.
         13    1    4    4    0    0 -0.10376140304E+03 -0.21579893458E+03  0.63559506817E+03  0.67920298851E+03  0.00000000000E+00 0. -1.
        -13    1    3    3    0    0  0.85178404333E+02  0.75683870928E+02  0.44080944353E+02  0.12217421389E+03  0.00000000000E+00 0.  1.
         13    1    3    3    0    0 -0.84296583575E+01  0.27904654759E+02 -0.22601548375E+02  0.36885754516E+02  0.00000000000E+00 0. -1.
          2    1    1    2  501    0  0.78934563556E+02  0.13569917019E+03 -0.31409055728E+02  0.16009827887E+03  0.00000000000E+00 0. -1.
<scales pt_clust_5="13000.00000" pt_clust_6="13000.00000" pt_clust_7="13000.00000" pt_clust_8="13000.00000" pt_clust_9="13000.00000"></scales>
<clustering>
<clus scale="   90.652">  7  8 -1 -1</clus>
<clus scale="   94.312">  5  6 -1 -1</clus>
<clus scale="  156.987">  5  9 -1 -1</clus>
<clus scale="  157.603">  1  7  2 -1</clus>
<clus scale="  643.131">  2  5  1 -1</clus>
</clustering>
</event>
<event>
 9    1  0.3026800E-005  0.1455553E+04  0.7546771E-02  0.9518795E-01
         21   -1    0    0  501  502  0.00000000000E+00  0.00000000000E+00  0.14016415569E+04  0.14016415569E+04  0.00000000000E+00 0. -1.
          2   -1    0    0  502    0 -0.00000000000E+00 -0.00000000000E+00 -0.46741622163E+03  0.46741622163E+03  0.00000000000E+00 0. -1.
         23    2    1    2    0    0  0.12170936302E+03  0.95744082838E+01  0.31971379776E+02  0.15654588866E+03  0.92626172290E+02 0.  0.
         23    2    1    2    0    0 -0.77380936884E+03 -0.13821455327E+03  0.49111527762E+03  0.93096360793E+03  0.87262943693E+02 0.  0.
        -11    1    4    4    0    0 -0.33885934009E+02 -0.25280134083E+02  0.29903221994E+02  0.51783630508E+02  0.00000000000E+00 0.  1.
         11    1    4    4    0    0 -0.73992343483E+03 -0.11293441918E+03  0.46121205562E+03  0.87917997743E+03  0.00000000000E+00 0. -1.
        -11    1    3    3    0    0  0.56625393099E+02 -0.33742844103E+02  0.41336602159E+02  0.77805715406E+02  0.00000000000E+00 0. -1.
         11    1    3    3    0    0  0.65083969916E+02  0.43317252387E+02 -0.93652223824E+01  0.78740173257E+02  0.00000000000E+00 0.  1.
          2    1    1    2  501    0  0.65210000583E+03  0.12864014498E+03  0.41113867783E+03  0.78154828188E+03  0.00000000000E+00 0. -1.
<scales pt_clust_5="13000.00000" pt_clust_6="13000.00000" pt_clust_7="13000.00000" pt_clust_8="13000.00000" pt_clust_9="13000.00000"></scales>
<clustering>
<clus scale="   87.263">  5  6 -1 -1</clus>
<clus scale="   92.626">  7  8 -1 -1</clus>
<clus scale="  153.246">  2  7  1 -1</clus>
<clus scale="  720.131">  5  9 -1 -1</clus>
<clus scale=" 1455.553">  1  5  2 -1</clus>
</clustering>
</event>
<event>
 9    1  0.3312826E-006  0.1322866E+03  0.7546771E-02  0.1240676E+00
         21   -1    0    0  501  502  0.00000000000E+00  0.00000000000E+00  0.60296725435E+02  0.60296725435E+02  0.00000000000E+00 0.  1.
          2   -1    0    0  502    0 -0.00000000000E+00 -0.00000000000E+00 -0.47499758921E+03  0.47499758921E+03  0.00000000000E+00 0. -1.
         23    2    1    2    0    0 -0.25058106930E+02 -0.14235198418E+02 -0.38940967986E+03  0.40061178349E+03  0.89550838695E+02 0.  0.
         23    2    1    2    0    0  0.15250945535E+01  0.34418596177E+02 -0.33707566308E+02  0.10255765435E+03  0.90525724321E+02 0.  0.
        -13    1    4    4    0    0 -0.10481950687E+02  0.63008805444E+02 -0.12761724019E+02  0.65137105045E+02  0.00000000000E+00 0.  1.
         13    1    4    4    0    0  0.12007045240E+02 -0.28590209267E+02 -0.20945842288E+02  0.37420549308E+02  0.00000000000E+00 0. -1.
        -13    1    3    3    0    0 -0.15533345199E+02  0.37809320972E+02 -0.18544236282E+03  0.18989391642E+03  0.00000000000E+00 0.  1.
         13    1    3    3    0    0 -0.95247617312E+01 -0.52044519389E+02 -0.20396731704E+03  0.21071786707E+03  0.00000000000E+00 0. -1.
          2    1    1    2  501    0  0.23533012377E+02 -0.20183397759E+02  0.84163823911E+01  0.32124876796E+02  0.00000000000E+00 0. -1.
<scales pt_clust_5="13000.00000" pt_clust_6="13000.00000" pt_clust_7="13000.00000" pt_clust_8="13000.00000" pt_clust_9="13000.00000"></scales>
<clustering>
<clus scale="   89.551">  7  8 -1 -1</clus>
<clus scale="   90.526">  5  6 -1 -1</clus>
<clus scale="   31.003">  5  9 -1 -1</clus>
<clus scale="   94.074">  2  7  1 -1</clus>
<clus scale="  132.287">  1  5  2 -1</clus>
</clustering>
</event>
<event>
 9    1  0.3312826E-006  0.1898202E+03  0.7546771E-02  0.1163023E+00
         21   -1    0    0  501  502  0.00000000000E+00  0.00000000000E+00  0.26633006087E+03  0.26633006087E+03  0.00000000000E+00 0.  1.
         -3   -1    0    0    0  501 -0.00000000000E+00 -0.00000000000E+00 -0.62308552751E+03  0.62308552751E+03  0.00000000000E+00 0.  1.
         23    2    1    2    0    0  0.12514876051E+03  0.58570627910E+02 -0.57510350293E+03  0.60009299205E+03  0.10136483274E+03 0.  0.
         23    2    1    2    0    0 -0.10786465022E+03 -0.70273429460E+02  0.21789290434E+03  0.26844430190E+03  0.89509149291E+02 0.  0.
        -11    1    4    4    0    0 -0.76156790942E+01 -0.32077022548E+02  0.99138905971E+01  0.34427012220E+02  0.00000000000E+00 0. -1.
         11    1    4    4    0    0 -0.10024897112E+03 -0.38196406912E+02  0.20797901375E+03  0.23401728968E+03  0.00000000000E+00 0.  1.
        -11    1    3    3    0    0  0.60569223977E+02  0.74695187711E+02 -0.24206155484E+03  0.26046458164E+03  0.00000000000E+00 0.  1.
         11    1    3    3    0    0  0.64579536538E+02 -0.16124559801E+02 -0.33304194809E+03  0.33962841041E+03  0.00000000000E+00 0. -1.
         -3    1    1    2    0  502 -0.17284110298E+02  0.11702801549E+02  0.45513193947E+00  0.20878294423E+02  0.00000000000E+00 0.  1.
<scales pt_clust_5="13000.00000" pt_clust_6="13000.00000" pt_clust_7="13000.00000" pt_clust_8="13000.00000" pt_clust_9="13000.00000"></scales>
<clustering>
<clus scale="   89.509">  5  6 -1 -1</clus>
<clus scale="   20.873">  5  9 -1 -1</clus>
<clus scale="  101.365">  7  8 -1 -1</clus>
<clus scale="  171.370">  2  7  1 -1</clus>
<clus scale="  189.820">  1  5  2 -1</clus>
</clustering>
</event>
<event>
 9    1  0.3312826E-006  0.2993980E+03  0.7546771E-02  0.1127864E+00
          2   -1    0    0  502    0 -0.00000000000E+00  0.00000000000E+00  0.10801595083E+03  0.10801595083E+03  0.00000000000E+00 0.  1.
         21   -1    0    0  501  502  0.00000000000E+00 -0.00000000000E+00 -0.46207323190E+03  0.46207323190E+03  0.00000000000E+00 0.  1.
         23    2    1    2    0    0 -0.22224109644E+01 -0.26656466379E+02  0.65645880885E+01  0.10138107911E+03  0.97568043308E+02 0.  0.
         23    2    1    2    0    0 -0.89419833472E+02  0.81392467966E+02 -0.32145121868E+03  0.35500379106E+03  0.89867486979E+02 0.  0.
        -11    1    3    3    0    0 -0.33634911588E+02 -0.14375996688E+02  0.39781972473E+02  0.54042408275E+02  0.00000000000E+00 0.  1.
         11    1    3    3    0    0  0.31412500624E+02 -0.12280469690E+02 -0.33217384385E+02  0.47338670837E+02  0.00000000000E+00 0. -1.
        -13    1    4    4    0    0 -0.47878819295E+02  0.44668066445E+02 -0.63687192247E+02  0.91343724214E+02  0.00000000000E+00 0.  1.
         13    1    4    4    0    0 -0.41541014177E+02  0.36724401520E+02 -0.25776402643E+03  0.26366006684E+03  0.00000000000E+00 0. -1.
          2    1    1    2  501    0  0.91642244436E+02 -0.54736001587E+02 -0.39170650488E+02  0.11370431256E+03  0.00000000000E+00 0.  1.
<scales pt_clust_5="13000.00000" pt_clust_6="13000.00000" pt_clust_7="13000.00000" pt_clust_8="13000.00000" pt_clust_9="13000.00000"></scales>
<clustering>
<clus scale="   89.867">  7  8 -1 -1</clus>
<clus scale="   97.568">  5  6 -1 -1</clus>
<clus scale="  101.168">  1  5  2 -1</clus>
<clus scale="  116.043">  7  9 -1 -1</clus>
<clus scale="  299.398">  2  5  1 -1</clus>
</clustering>
</event>
<event>
 9    1  0.3312826E-006  0.1961637E+03  0.7546771E-02  0.1177182E+00
         21   -1    0    0  501  502  0.00000000000E+00  0.00000000000E+00  0.12702394049E+03  0.12702394049E+03  0.00000000000E+00 0. -1.
          1   -1    0    0  502    0 -0.00000000000E+00 -0.00000000000E+00 -0.30570357533E+03  0.30570357533E+03  0.00000000000E+00 0. -1.
         23    2    1    2    0    0  0.32044543474E+02 -0.57281655991E+02 -0.20603780206E+03  0.23466523887E+03  0.91149095315E+02 0.  0.
         23    2    1    2    0    0 -0.35359454028E+02 -0.39523110947E+02 -0.20255689432E+02  0.90130674166E+02  0.70006272456E+02 0.  0.
        -11    1    4    4    0    0 -0.56366005803E+02 -0.22358590545E+02 -0.15518086234E+02  0.62592684730E+02  0.00000000000E+00 0.  1.
         11    1    4    4    0    0  0.21006551775E+02 -0.17164520402E+02 -0.47376031978E+01  0.27537989436E+02  0.00000000000E+00 0. -1.
        -13    1    3    3    0    0 -0.22124267923E+02 -0.53399523940E+02 -0.11343246209E+03  0.12731031318E+03  0.00000000000E+00 0. -1.
         13    1    3    3    0    0  0.54168811397E+02 -0.38821320513E+01 -0.92605339975E+02  0.10735492569E+03  0.00000000000E+00 0.  1.
          1    1    1    2  501    0  0.33149105537E+01  0.96804766939E+02  0.47613856648E+02  0.10793160278E+03  0.00000000000E+00 0. -1.
<scales pt_clust_5="13000.00000" pt_clust_6="13000.00000" pt_clust_7="13000.00000" pt_clust_8="13000.00000" pt_clust_9="13000.00000"></scales>
<clustering>
<clus scale="   70.006">  5  6 -1 -1</clus>
<clus scale="   91.149">  7  8 -1 -1</clus>
<clus scale="   96.862">  5  9 -1 -1</clus>
<clus scale="  112.322">  2  7  1 -1</clus>
<clus scale="  196.164">  1  5  2 -1</clus>
</clustering>
</event>
<event>
 9    1  0.3312826E-006  0.3696646E+03  0.7546771E-02  0.1067952E+00
          2   -1    0    0  502    0 -0.00000000000E+00  0.00000000000E+00  0.38945039818E+03  0.38945039818E+03  0.00000000000E+00 0. -1.
         21   -1    0    0  501  502  0.00000000000E+00 -0.00000000000E+00 -0.25813784573E+03  0.25813784573E+03  0.00000000000E+00 0. -1.
         23    2    1    2    0    0  0.20258423773E+03  0.12933369951E+03  0.28896867397E+01  0.25625160450E+03  0.88819791239E+02 0.  0.
         23    2    1    2    0    0  0.56540469927E+01  0.23596319140E+02  0.88827817186E+02  0.12995848099E+03  0.91706440076E+02 0.  0.
        -11    1    4    4    0    0 -0.35086440192E+02 -0.11725048009E+02  0.55072633046E+02  0.66344027213E+02  0.00000000000E+00 0. -1.
         11    1    4    4    0    0  0.40740487185E+02  0.35321367149E+02  0.33755184140E+02  0.63614453779E+02  0.00000000000E+00 0.  1.
        -13    1    3    3    0    0  0.94207512642E+02  0.10524156413E+03 -0.20684866395E+02  0.14275400504E+03  0.00000000000E+00 0.  1.
         13    1    3    3    0    0  0.10837672509E+03  0.24092135385E+02  0.23574553135E+02  0.11349759946E+03  0.00000000000E+00 0. -1.
          2    1    1    2  501    0 -0.20823828472E+03 -0.15293001865E+03  0.39595048528E+02  0.26137815841E+03  0.00000000000E+00 0. -1.
<scales pt_clust_5="13000.00000" pt_clust_6="13000.00000" pt_clust_7="13000.00000" pt_clust_8="13000.00000" pt_clust_9="13000.00000"></scales>
<clustering>
<clus scale="   88.820">  7  8 -1 -1</clus>
<clus scale="   91.706">  5  6 -1 -1</clus>
<clus scale="  256.235">  1  7  2 -1</clus>
<clus scale="  119.825">  5  9 -1 -1</clus>
<clus scale="  369.665">  2  5  1 -1</clus>
</clustering>
</event>
<event>
 9    1  0.3312826E-006  0.2191098E+03  0.7546771E-02  0.1171000E+00
         21   -1    0    0  501  502  0.00000000000E+00  0.00000000000E+00  0.16069129716E+03  0.16069129716E+03  0.00000000000E+00 0. -1.
          3   -1    0    0  502    0 -0.00000000000E+00 -0.00000000000E+00 -0.15134849641E+03  0.15134849641E+03  0.00000000000E+00 0. -1.
         23    2    1    2    0    0 -0.59175912556E-01 -0.23539948694E+02  0.50636545607E+01  0.92888219383E+02  0.89713142941E+02 0.  0.
         23    2    1    2    0    0  0.10426009461E+02 -0.62000625162E+01 -0.75435969069E+02  0.13344020327E+03  0.10940091394E+03 0.  0.
        -11    1    3    3    0    0  0.98159151961E+00  0.34016371171E+02  0.89614234135E+01  0.35190682561E+02  0.00000000000E+00 0. -1.
         11    1    3    3    0    0 -0.10407674322E+01 -0.57556319865E+02 -0.38977688528E+01  0.57697536821E+02  0.00000000000E+00 0.  1.
        -13    1    4    4    0    0 -0.76033620092E+01 -0.52382624463E+02 -0.63081438068E+02  0.82346938548E+02  0.00000000000E+00 0. -1.
         13    1    4    4    0    0  0.18029371470E+02  0.46182561947E+02 -0.12354531001E+02  0.51093264721E+02  0.00000000000E+00 0.  1.
          3    1    1    2  501    0 -0.10366833548E+02  0.29740011210E+02  0.79715115252E+02  0.85711370915E+02  0.00000000000E+00 0. -1.
<scales pt_clust_5="13000.00000" pt_clust_6="13000.00000" pt_clust_7="13000.00000" pt_clust_8="13000.00000" pt_clust_9="13000.00000"></scales>
<clustering>
<clus scale="   89.713">  5  6 -1 -1</clus>
<clus scale="   92.750">  2  5  1 -1</clus>
<clus scale="  109.401">  7  8 -1 -1</clus>
<clus scale="   30.876">  7  9 -1 -1</clus>
<clus scale="  219.110">  1  5  2 -1</clus>
</clustering>
</event>
<event>
 9    1  0.3312826E-006  0.1648578E+03  0.7546771E-02  0.1209221E+00
          1   -1    0    0  502    0 -0.00000000000E+00  0.00000000000E+00  0.14710201385E+03  0.14710201385E+03  0.00000000000E+00 0. -1.
         21   -1    0    0  501  502  0.00000000000E+00 -0.00000000000E+00 -0.12072196684E+03  0.12072196684E+03  0.00000000000E+00 0.  1.
         23    2    1    2    0    0 -0.24412679131E+02 -0.68341225854E+00  0.41302386157E+02  0.10229215681E+03  0.90340203052E+02 0.  0.
         23    2    1    2    0    0  0.50040085092E+02  0.39610379828E+02 -0.32575525620E+02  0.11569501285E+03  0.90835999598E+02 0.  0.
        -11    1    4    4    0    0  0.51164328954E+02  0.66542478820E+02 -0.26947995769E+02  0.88158292411E+02  0.00000000000E+00 0.  1.
         11    1    4    4    0    0 -0.11242438621E+01 -0.26932098992E+02 -0.56275298506E+01  0.27536720440E+02  0.00000000000E+00 0. -1.
        -13    1    3    3    0    0 -0.47414006009E+02 -0.29275329016E+02  0.32671404127E+02  0.64595305576E+02  0.00000000000E+00 0. -1.
         13    1    3    3    0    0  0.23001326878E+02  0.28591916757E+02  0.86309820299E+01  0.37696851232E+02  0.00000000000E+00 0.  1.
          1    1    1    2  501    0 -0.25627405961E+02 -0.38926967570E+02  0.17653186473E+02  0.49836811025E+02  0.00000000000E+00 0. -1.
<scales pt_clust_5="13000.00000" pt_clust_6="13000.00000" pt_clust_7="13000.00000" pt_clust_8="13000.00000" pt_clust_9="13000.00000"></scales>
<clustering>
<clus scale="   90.340">  7  8 -1 -1</clus>
<clus scale="   90.836">  5  6 -1 -1</clus>
<clus scale="   46.606">  5  9 -1 -1</clus>
<clus scale="   93.583">  1  7  2 -1</clus>
<clus scale="  164.858">  2  5  1 -1</clus>
</clustering>
</event>
<event>
 9    1  0.3312826E-006  0.2354093E+03  0.7546771E-02  0.1157189E+00
         -3   -1    0    0    0  501 -0.00000000000E+00  0.00000000000E+00  0.22377143519E+03  0.22377143519E+03  0.00000000000E+00 0.  1.
         21   -1    0    0  501  502  0.00000000000E+00 -0.00000000000E+00 -0.16317459617E+03  0.16317459617E+03  0.00000000000E+00 0.  1.
         23    2    1    2    0    0 -0.30900639664E+02 -0.35171189778E+02  0.10540464576E+03  0.14731028697E+03  0.91642343802E+02 0.  0.
         23    2    1    2    0    0  0.27933510311E+02  0.12056735905E+03 -0.33875010225E+02  0.15349147225E+03  0.84233880753E+02 0.  0.
        -11    1    4    4    0    0  0.14589943504E+02  0.41934718660E+02  0.28048694870E+02  0.52517771891E+02  0.00000000000E+00 0.  1.
         11    1    4    4    0    0  0.13343566807E+02  0.78632640394E+02 -0.61923705095E+02  0.10097370035E+03  0.00000000000E+00 0. -1.
        -11    1    3    3    0    0  0.14535762658E+02 -0.52143729747E+02  0.60938993136E+02  0.81509618036E+02  0.00000000000E+00 0.  1.
         11    1    3    3    0    0 -0.45436402323E+02  0.16972539968E+02  0.44465652623E+02  0.65800668934E+02  0.00000000000E+00 0. -1.
         -3    1    1    2    0  502  0.29671293534E+01 -0.85396169276E+02 -0.10932796522E+02  0.86144272145E+02  0.00000000000E+00 0.  1.
<scales pt_clust_5="13000.00000" pt_clust_6="13000.00000" pt_clust_7="13000.00000" pt_clust_8="13000.00000" pt_clust_9="13000.00000"></scales>
<clustering>
<clus scale="   84.234">  5  6 -1 -1</clus>
<clus scale="   85.448">  5  9 -1 -1</clus>
<clus scale="   91.642">  7  8 -1 -1</clus>
<clus scale="  102.909">  1  7  2 -1</clus>
<clus scale="  235.409">  2  5  1 -1</clus>
</clustering>
</event>
<event>
 9    1  0.3312826E-006  0.3240144E+03  0.7546771E-02  0.1124891E+00
         21   -1    0    0  501  502  0.00000000000E+00  0.00000000000E+00  0.51577674808E+02  0.51577674808E+02  0.00000000000E+00 0. -1.
         -2   -1    0    0    0  501 -0.00000000000E+00 -0.00000000000E+00 -0.89262817006E+03  0.89262817006E+03  0.00000000000E+00 0. -1.
         23    2    1    2    0    0  0.22755284884E+02  0.37591918622E+01 -0.31386671354E+03  0.32541017036E+03  0.82749807187E+02 0.  0.
         23    2    1    2    0    0  0.60006580047E+02 -0.81323990102E+02 -0.47428076238E+03  0.49363755984E+03  0.92311526390E+02 0.  0.
        -13    1    4    4    0    0 -0.24062785817E+02 -0.85022570142E+01 -0.97340042654E+02  0.10062996542E+03  0.00000000000E+00 0.  1.
         13    1    4    4    0    0  0.84069365864E+02 -0.72821733088E+02 -0.37694071973E+03  0.39300759443E+03  0.00000000000E+00 0. -1.
        -13    1    3    3    0    0  0.14126218454E+02 -0.37013965924E+02 -0.20594154803E+03  0.20971767909E+03  0.00000000000E+00 0. -1.
         13    1    3    3    0    0  0.86290664298E+01  0.40773157787E+02 -0.10792516552E+03  0.11569249127E+03  0.00000000000E+00 0.  1.
         -2    1    1    2    0  502 -0.82761864931E+02  0.77564798240E+02 -0.52903019323E+02  0.12515811466E+03  0.00000000000E+00 0. -1.
<scales pt_clust_5="13000.00000" pt_clust_6="13000.00000" pt_clust_7="13000.00000" pt_clust_8="13000.00000" pt_clust_9="13000.00000"></scales>
<clustering>
<clus scale="   82.750">  7  8 -1 -1</clus>
<clus scale="   85.904">  2  7  1 -1</clus>
<clus scale="   92.312">  5  6 -1 -1</clus>
<clus scale="  111.284">  5  9 -1 -1</clus>
<clus scale="  324.014">  1  5  2 -1</clus>
</clustering>
</event>
<event>
 9    1  0.3312826E-006  0.1493272E+03  0.7546771E-02  0.1221118E+00
          3   -1    0    0  502    0 -0.00000000000E+00  0.00000000000E+00  0.12725490945E+03  0.12725490945E+03  0.00000000000E+00 0. -1.
         21   -1    0    0  501  502  0.00000000000E+00 -0.00000000000E+00 -0.29958062934E+03  0.29958062934E+03  0.00000000000E+00 0. -1.
         23    2    1    2    0    0  0.11781675601E+02 -0.32619737026E+02  0.84788138609E+02  0.12950382856E+03  0.91538833501E+02 0.  0.
         23    2    1    2    0    0 -0.31960364530E+02  0.38436513755E+02 -0.11884383961E+03  0.15747602568E+03  0.90421291528E+02 0.  0.
        -13    1    4    4    0    0 -0.47412397520E+02  0.17670829099E+02 -0.18542914224E+02  0.53889083380E+02  0.00000000000E+00 0. -1.
         13    1    4    4    0    0  0.15452032990E+02  0.20765684656E+02 -0.10030092539E+03  0.10358694230E+03  0.00000000000E+00 0.  1.
        -13    1    3    3    0    0  0.45238450108E+02 -0.29860109509E+02  0.22387039965E+02  0.58645742100E+02  0.00000000000E+00 0.  1.
         13    1    3    3    0    0 -0.33456774507E+02 -0.27596275171E+01  0.62401098644E+02  0.70858086457E+02  0.00000000000E+00 0. -1.
          3    1    1    2  501    0  0.20178688929E+02 -0.58167767289E+01 -0.13827001888E+03  0.13985568455E+03  0.00000000000E+00 0. -1.
<scales pt_clust_5="13000.00000" pt_clust_6="13000.00000" pt_clust_7="13000.00000" pt_clust_8="13000.00000" pt_clust_9="13000.00000"></scales>
<clustering>
<clus scale="   90.421">  5  6 -1 -1</clus>
<clus scale="   21.000">  5  9 -1 -1</clus>
<clus scale="   91.539">  7  8 -1 -1</clus>
<clus scale="   97.889">  1  7  2 -1</clus>
<clus scale="  149.327">  2  5  1 -1</clus>
</clustering>
</event>
<event>
 9    1  0.3312826E-006  0.3186483E+03  0.7546771E-02  0.1114795E+00
          1   -1    0    0  502    0 -0.00000000000E+00  0.00000000000E+00  0.20259993215E+03  0.20259993215E+03  0.00000000000E+00 0. -1.
         21   -1    0    0  501  502  0.00000000000E+00 -0.00000000000E+00 -0.29778618378E+03  0.29778618378E+03  0.00000000000E+00 0. -1.
         23    2    1    2    0    0  0.74574740617E+02 -0.39329965239E+02  0.75765043111E+02  0.13877709257E+03  0.80065607857E+02 0.  0.
         23    2    1    2    0    0  0.65305257071E+02  0.19079219589E+02  0.28194629777E+02  0.11740499861E+03  0.91434147497E+02 0.  0.
        -11    1    4    4    0    0  0.16675469189E+02 -0.36465718751E+02  0.83190301247E+01  0.40951510093E+02  0.00000000000E+00 0.  1.
         11    1    4    4    0    0  0.48629787881E+02  0.55544938339E+02  0.19875599653E+02  0.76453488515E+02  0.00000000000E+00 0. -1.
        -13    1    3    3    0    0  0.15605792517E+02 -0.46574614257E+02  0.59545341824E+02  0.77190564101E+02  0.00000000000E+00 0.  1.
         13    1    3    3    0    0  0.58968948100E+02  0.72446490176E+01  0.16219701287E+02  0.61586528472E+02  0.00000000000E+00 0. -1.
          1    1    1    2  501    0 -0.13987999769E+03  0.20250745651E+02 -0.19914592452E+03  0.24420402475E+03  0.00000000000E+00 0. -1.
<scales pt_clust_5="13000.00000" pt_clust_6="13000.00000" pt_clust_7="13000.00000" pt_clust_8="13000.00000" pt_clust_9="13000.00000"></scales>
<clustering>
<clus scale="   80.066">  7  8 -1 -1</clus>
<clus scale="   91.434">  5  6 -1 -1</clus>
<clus scale="  116.270">  1  7  2 -1</clus>
<clus scale="  122.746">  5  9 -1 -1</clus>
<clus scale="  318.648">  2  5  1 -1</clus>
</clustering>
</event>
<event>
 9    1  0.3312826E-006  0.2507759E+03  0.7546771E-02  0.1128894E+00
          2   -1    0    0  502    0 -0.00000000000E+00  0.00000000000E+00  0.43852623745E+03  0.43852623745E+03  0.00000000000E+00 0. -1.
         21   -1    0    0  501  502  0.00000000000E+00 -0.00000000000E+00 -0.10280898051E+03  0.10280898051E+03  0.00000000000E+00 0. -1.
         23    2    1    2    0    0 -0.13852116096E+03  0.23971654288E+02  0.18015760020E+03  0.24622951911E+03  0.91703123871E+02 0.  0.
         23    2    1    2    0    0 -0.45406684335E+01  0.28405164566E+02  0.68963996243E+02  0.11986635794E+03  0.93725343130E+02 0.  0.
        -11    1    4    4    0    0  0.12765644363E+02  0.16028543701E+02 -0.19856284862E+02  0.28533277724E+02  0.00000000000E+00 0.  1.
         11    1    4    4    0    0 -0.17306312796E+02  0.12376620865E+02  0.88820281105E+02  0.91333080218E+02  0.00000000000E+00 0. -1.
        -13    1    3    3    0    0 -0.82287560474E+01 -0.26710491910E+02  0.33152263412E+02  0.43361680935E+02  0.00000000000E+00 0.  1.
         13    1    3    3    0    0 -0.13029240492E+03  0.50682146198E+02  0.14700533679E+03  0.20286783818E+03  0.00000000000E+00 0. -1.
          2    1    1    2  501    0  0.14306182940E+03 -0.52376818854E+02  0.86595660501E+02  0.17523934091E+03  0.00000000000E+00 0. -1.
<scales pt_clust_5="13000.00000" pt_clust_6="13000.00000" pt_clust_7="13000.00000" pt_clust_8="13000.00000" pt_clust_9="13000.00000"></scales>
<clustering>
<clus scale="   91.703">  7  8 -1 -1</clus>
<clus scale="   93.725">  5  6 -1 -1</clus>
<clus scale="  152.348">  5  9 -1 -1</clus>
<clus scale="  167.846">  1  7  2 -1</clus>
<clus scale="  250.776">  2  5  1 -1</clus>
</clustering>
</event>
<event>
 9    1  0.3312826E-006  0.3798677E+03  0.7546771E-02  0.1090674E+00
          2   -1    0    0  502    0 -0.00000000000E+00  0.00000000000E+00  0.45037185520E+03  0.45037185520E+03  0.00000000000E+00 0. -1.
         21   -1    0    0  501  502  0.00000000000E+00 -0.00000000000E+00 -0.15392376105E+03  0.15392376105E+03  0.00000000000E+00 0. -1.
         23    2    1    2    0    0  0.71345601410E+02  0.60627611579E+02  0.15008052274E+03  0.19720475966E+03  0.87175981796E+02 0.  0.
         23    2    1    2    0    0  0.50066044937E+01  0.50366510087E+01  0.24725639165E+03  0.26454258836E+03  0.93790318809E+02 0.  0.
        -11    1    3    3    0    0  0.56870957679E+02  0.20113875205E+02  0.14082156513E+03  0.15319786882E+03  0.00000000000E+00 0. -1.
         11    1    3    3    0    0  0.14474643731E+02  0.40513736374E+02  0.92589576049E+01  0.44006890847E+02  0.00000000000E+00 0.  1.
        -13    1    4    4    0    0  0.44413346089E+02 -0.89819045205E+00  0.18768651323E+03  0.19287192461E+03  0.00000000000E+00 0. -1.
         13    1    4    4    0    0 -0.39406741596E+02  0.59348414608E+01  0.59569878419E+02  0.71670663741E+02  0.00000000000E+00 0.  1.
          2    1    1    2  501    0 -0.76352205904E+02 -0.65664262588E+02 -0.10088882023E+03  0.14254826823E+03  0.00000000000E+00 0. -1.
<scales pt_clust_5="13000.00000" pt_clust_6="13000.00000" pt_clust_7="13000.00000" pt_clust_8="13000.00000" pt_clust_9="13000.00000"></scales>
<clustering>
<clus scale="   87.176">  5  6 -1 -1</clus>
<clus scale="   93.790">  7  8 -1 -1</clus>
<clus scale="  100.705">  7  9 -1 -1</clus>
<clus scale="  127.928">  1  5  2 -1</clus>
<clus scale="  379.868">  2  5  1 -1</clus>
</clustering>
</event>
<event>
 9    1  0.3312826E-006  0.6748493E+03  0.7546771E-02  0.1034653E+00
         -1   -1    0    0    0  501 -0.00000000000E+00  0.00000000000E+00  0.13269107139E+03  0.13269107139E+03  0.00000000000E+00 0.  1.
         21   -1    0    0  501  502  0.00000000000E+00 -0.00000000000E+00 -0.11728197462E+04  0.11728197462E+04  0.00000000000E+00 0.  1.
         23    2    1    2    0    0  0.78781791099E+01 -0.59195259002E+02 -0.96056728231E+02  0.14503959342E+03  0.90793415105E+02 0.  0.
         23    2    1    2    0    0  0.20476916377E+03  0.16095939298E+03 -0.11574587885E+03  0.29925179459E+03  0.91193154771E+02 0.  0.
        -11    1    3    3    0    0 -0.22391666274E+02 -0.69120836525E+02 -0.83787828573E+02  0.11090300707E+03  0.00000000000E+00 0. -1.
         11    1    3    3    0    0  0.30269845384E+02  0.99255775229E+01 -0.12268899659E+02  0.34136586349E+02  0.00000000000E+00 0.  1.
        -13    1    4    4    0    0  0.18005384773E+03  0.15308810200E+03 -0.12991974422E+03  0.26969333509E+03  0.00000000000E+00 0.  1.
         13    1    4    4    0    0  0.24715316040E+02  0.78712909833E+01  0.14173865367E+02  0.29558459502E+02  0.00000000000E+00 0. -1.
         -1    1    1    2    0  502 -0.21264734288E+03 -0.10176413398E+03 -0.82832606777E+03  0.86121942961E+03  0.00000000000E+00 0.  1.
<scales pt_clust_5="13000.00000" pt_clust_6="13000.00000" pt_clust_7="13000.00000" pt_clust_8="13000.00000" pt_clust_9="13000.00000"></scales>
<clustering>
<clus scale="   90.793">  5  6 -1 -1</clus>
<clus scale="   91.193">  7  8 -1 -1</clus>
<clus scale="  108.672">  1  5  2 -1</clus>
<clus scale="  238.703">  7  9 -1 -1</clus>
<clus scale="  674.849">  2  5  1 -1</clus>
</clustering>
</event>
<event>
 9    1  0.3312826E-006  0.4204940E+03  0.7546771E-02  0.1039057E+00
          1   -1    0    0  502    0 -0.00000000000E+00  0.00000000000E+00  0.16446431543E+04  0.16446431543E+04  0.00000000000E+00 0. -1.
         21   -1    0    0  501  502  0.00000000000E+00 -0.00000000000E+00 -0.11115805460E+03  0.11115805460E+03  0.00000000000E+00 0. -1.
         23    2    1    2    0    0  0.18676615215E+03 -0.33561732192E+03  0.10093244252E+04  0.10838193643E+04  0.91695347587E+02 0.  0.
         23    2    1    2    0    0 -0.13791093298E+03  0.14164729333E+03  0.23436428838E+03  0.31985523408E+03  0.91089900395E+02 0.  0.
        -11    1    4    4    0    0 -0.63761860550E+01  0.55792286616E+02  0.35483860262E+02  0.66426947345E+02  0.00000000000E+00 0. -1.
         11    1    4    4    0    0 -0.13153474693E+03  0.85855006717E+02  0.19888042812E+03  0.25342828673E+03  0.00000000000E+00 0.  1.
        -11    1    3    3    0    0  0.17720424948E+02 -0.23906338526E+02  0.17122204402E+03  0.17378870746E+03  0.00000000000E+00 0.  1.
         11    1    3    3    0    0  0.16904572721E+03 -0.31171098340E+03  0.83810238118E+03  0.91003065684E+03  0.00000000000E+00 0. -1.
          1    1    1    2  501    0 -0.48855219171E+02  0.19397002859E+03  0.28979638615E+03  0.35212661055E+03  0.00000000000E+00 0. -1.
<scales pt_clust_5="13000.00000" pt_clust_6="13000.00000" pt_clust_7="13000.00000" pt_clust_8="13000.00000" pt_clust_9="13000.00000"></scales>
<clustering>
<clus scale="   91.090">  5  6 -1 -1</clus>
<clus scale="   91.695">  7  8 -1 -1</clus>
<clus scale="  200.028">  5  9 -1 -1</clus>
<clus scale="  394.878">  1  7  2 -1</clus>
<clus scale="  420.494">  2  5  1 -1</clus>
</clustering>
</event>
<event>
 9    1  0.3312826E-006  0.2996739E+03  0.7546771E-02  0.1093440E+00
         21   -1    0    0  501  502  0.00000000000E+00  0.00000000000E+00  0.39803739170E+03  0.39803739170E+03  0.00000000000E+00 0. -1.
         -1   -1    0    0    0  501 -0.00000000000E+00 -0.00000000000E+00 -0.30601680728E+03  0.30601680728E+03  0.00000000000E+00 0.  1.
         23    2    1    2    0    0  0.18056908742E+03  0.13207191551E+03 -0.17804108371E+03  0.30064650222E+03  0.92959698837E+02 0.  0.
         23    2    1    2    0    0 -0.17327338075E+03 -0.56148684945E+02  0.12357275363E+03  0.23825150904E+03  0.91198776424E+02 0.  0.
        -11    1    4    4    0    0 -0.12940763812E+03 -0.81527227019E+02  0.95567622758E+02  0.18035020396E+03  0.00000000000E+00 0.  1.
         11    1    4    4    0    0 -0.43865742625E+02  0.25378542075E+02  0.28005130872E+02  0.57901305072E+02  0.00000000000E+00 0. -1.
        -13    1    3    3    0    0  0.36418680478E+01  0.44641804547E+02 -0.36645237596E+02  0.57870781527E+02  0.00000000000E+00 0.  1.
         13    1    3    3    0    0  0.17692721937E+03  0.87430110963E+02 -0.14139584612E+03  0.24277572069E+03  0.00000000000E+00 0. -1.
         -1    1    1    2    0  502 -0.72957066721E+01 -0.75923230565E+02  0.14648891450E+03  0.16515618773E+03  0.00000000000E+00 0.  1.
<scales pt_clust_5="13000.00000" pt_clust_6="13000.00000" pt_clust_7="13000.00000" pt_clust_8="13000.00000" pt_clust_9="13000.00000"></scales>
<clustering>
<clus scale="   91.199">  5  6 -1 -1</clus>
<clus scale="   76.273">  5  9 -1 -1</clus>
<clus scale="   92.960">  7  8 -1 -1</clus>
<clus scale="  242.260">  2  7  1 -1</clus>
<clus scale="  299.674">  1  5  2 -1</clus>
</clustering>
</event>
<event>
 9    1  0.3312826E-006  0.5620645E+03  0.7546771E-02  0.1040321E+00
         21   -1    0    0  501  502  0.00000000000E+00  0.00000000000E+00  0.22647868963E+03  0.22647868963E+03  0.00000000000E+00 0. -1.
          1   -1    0    0  502    0 -0.00000000000E+00 -0.00000000000E+00 -0.57886226313E+03  0.57886226313E+03  0.00000000000E+00 0. -1.
         23    2    1    2    0    0  0.11739380811E+03 -0.60424018328E+02 -0.10756689216E+03  0.19227347801E+03  0.89252932080E+02 0.  0.
         23    2    1    2    0    0 -0.83989962025E+02  0.25213386847E+03 -0.29968523237E+03  0.41088181386E+03  0.91579610786E+02 0.  0.
        -11    1    4    4    0    0 -0.63163219589E+02  0.62395012672E+02 -0.76421919385E+02  0.11714537839E+03  0.00000000000E+00 0.  1.
         11    1    4    4    0    0 -0.20826742435E+02  0.18973885580E+03 -0.22326331299E+03  0.29373643548E+03  0.00000000000E+00 0. -1.
        -11    1    3    3    0    0 -0.27472802751E+01 -0.35571066079E+02 -0.15564880552E+02  0.38924462713E+02  0.00000000000E+00 0.  1.
         11    1    3    3    0    0  0.12014108838E+03 -0.24852952249E+02 -0.92002011604E+02  0.15334901530E+03  0.00000000000E+00 0. -1.
          1    1    1    2  501    0 -0.33403846081E+02 -0.19170985014E+03  0.54868551028E+02  0.20218566088E+03  0.00000000000E+00 0. -1.
<scales pt_clust_5="13000.00000" pt_clust_6="13000.00000" pt_clust_7="13000.00000" pt_clust_8="13000.00000" pt_clust_9="13000.00000"></scales>
<clustering>
<clus scale="   89.253">  7  8 -1 -1</clus>
<clus scale="   91.580">  5  6 -1 -1</clus>
<clus scale="  159.369">  2  7  1 -1</clus>
<clus scale="  202.520">  5  9 -1 -1</clus>
<clus scale="  562.065">  1  5  2 -1</clus>
</clustering>
</event>
<event>
 9    1  0.3312826E-006  0.2070687E+03  0.7546771E-02  0.1183066E+00
          3   -1    0    0  502    0 -0.00000000000E+00  0.00000000000E+00  0.41357190932E+02  0.41357190932E+02  0.00000000000E+00 0. -1.
         21   -1    0    0  501  502  0.00000000000E+00 -0.00000000000E+00 -0.53805138428E+03  0.53805138428E+03  0.00000000000E+00 0.  1.
         23    2    1    2    0    0 -0.27073567340E+02 -0.29204330276E+02 -0.20743309986E+03  0.22367069865E+03  0.73581380520E+02 0.  0.
         23    2    1    2    0    0 -0.38379938155E+02 -0.22064686949E+02 -0.80488207258E+02  0.13101851484E+03  0.93421783654E+02 0.  0.
        -11    1    4    4    0    0 -0.25479374995E+02 -0.58975788274E+02 -0.48365855762E+02  0.80415161234E+02  0.00000000000E+00 0.  1.
         11    1    4    4    0    0 -0.12900563160E+02  0.36911101325E+02 -0.32122351495E+02  0.50603353609E+02  0.00000000000E+00 0. -1.
        -13    1    3    3    0    0  0.23538359923E+02 -0.85328537646E+01 -0.10050962384E+03  0.10358112022E+03  0.00000000000E+00 0. -1.
         13    1    3    3    0    0 -0.50611927263E+02 -0.20671476511E+02 -0.10692347602E+03  0.12008957843E+03  0.00000000000E+00 0.  1.
          3    1    1    2  501    0  0.65453505495E+02  0.51269017225E+02 -0.20877288623E+03  0.22471936172E+03  0.00000000000E+00 0. -1.
<scales pt_clust_5="13000.00000" pt_clust_6="13000.00000" pt_clust_7="13000.00000" pt_clust_8="13000.00000" pt_clust_9="13000.00000"></scales>
<clustering>
<clus scale="   73.581">  7  8 -1 -1</clus>
<clus scale="   83.667">  1  7  2 -1</clus>
<clus scale="   93.422">  5  6 -1 -1</clus>
<clus scale="   73.725">  5  9 -1 -1</clus>
<clus scale="  207.069">  2  5  1 -1</clus>
</clustering>
</event>
<event>
 9    1  0.3312826E-006  0.2981721E+03  0.7546771E-02  0.1128764E+00
          1   -1    0    0  502    0 -0.00000000000E+00  0.00000000000E+00  0.40519432371E+03  0.40519432371E+03  0.00000000000E+00 0. -1.
         21   -1    0    0  501  502  0.00000000000E+00 -0.00000000000E+00 -0.10752312290E+03  0.10752312290E+03  0.00000000000E+00 0. -1.
         23    2    1    2    0    0 -0.18698975728E+02 -0.32496696391E+02  0.13970095585E+02  0.10114374910E+03  0.92893527445E+02 0.  0.
         23    2    1    2    0    0 -0.96434723143E+01 -0.45365113287E+02  0.30858686007E+03  0.32505747614E+03  0.91024845638E+02 0.  0.
        -11    1    3    3    0    0  0.30578927799E+02  0.12809583453E+02  0.65421429581E+01  0.33792837822E+02  0.00000000000E+00 0.  1.
         11    1    3    3    0    0 -0.49277903528E+02 -0.45306279844E+02  0.74279526266E+01  0.67350911275E+02  0.00000000000E+00 0. -1.
        -13    1    4    4    0    0  0.56946690950E+01 -0.67684588399E+02  0.15689139764E+03  0.17096357336E+03  0.00000000000E+00 0. -1.
         13    1    4    4    0    0 -0.15338141409E+02  0.22319475112E+02  0.15169546244E+03  0.15409390278E+03  0.00000000000E+00 0.  1.
          1    1    1    2  501    0  0.28342448043E+02  0.77861809677E+02 -0.24885754842E+02  0.86516221377E+02  0.00000000000E+00 0. -1.
<scales pt_clust_5="13000.00000" pt_clust_6="13000.00000" pt_clust_7="13000.00000" pt_clust_8="13000.00000" pt_clust_9="13000.00000"></scales>
<clustering>
<clus scale="   91.025">  7  8 -1 -1</clus>
<clus scale="   82.860">  7  9 -1 -1</clus>
<clus scale="   92.894">  5  6 -1 -1</clus>
<clus scale="  100.174">  1  5  2 -1</clus>
<clus scale="  298.172">  2  5  1 -1</clus>
</clustering>
</event>
<event>
 9    1  0.3312826E-006  0.2411936E+03  0.7546771E-02  0.1150439E+00
         21   -1    0    0  501  502  0.00000000000E+00  0.00000000000E+00  0.31036371973E+03  0.31036371973E+03  0.00000000000E+00 0.  1.
         -3   -1    0    0    0  501 -0.00000000000E+00 -0.00000000000E+00 -0.10063497327E+03  0.10063497327E+03  0.00000000000E+00 0.  1.
         23    2    1    2    0    0 -0.22204895929E+01  0.64851994731E+02  0.61827896989E+02  0.12806932339E+03  0.91478691252E+02 0.  0.
         23    2    1    2    0    0 -0.76741613002E+02 -0.94583771994E+02  0.81029269018E+02  0.17526878956E+03  0.96530000849E+02 0.  0.
        -13    1    3    3    0    0 -0.31775610058E+02  0.26775113535E+02 -0.88842797329E+01  0.42491487686E+02  0.00000000000E+00 0.  1.
         13    1    3    3    0    0  0.29555120465E+02  0.38076881196E+02  0.70712176722E+02  0.85577835706E+02  0.00000000000E+00 0. -1.
        -13    1    4    4    0    0 -0.50285050763E+02 -0.70288663923E+02  0.10198862729E+03  0.13368157204E+03  0.00000000000E+00 0. -1.
         13    1    4    4    0    0 -0.26456562240E+02 -0.24295108071E+02 -0.20959358271E+02  0.41587217518E+02  0.00000000000E+00 0.  1.
         -3    1    1    2    0  502  0.78962102595E+02  0.29731777263E+02  0.66871580456E+02  0.10766058006E+03  0.00000000000E+00 0.  1.
<scales pt_clust_5="13000.00000" pt_clust_6="13000.00000" pt_clust_7="13000.00000" pt_clust_8="13000.00000" pt_clust_9="13000.00000"></scales>
<clustering>
<clus scale="   91.479">  5  6 -1 -1</clus>
<clus scale="   96.530">  7  8 -1 -1</clus>
<clus scale="   84.374">  7  9 -1 -1</clus>
<clus scale="  112.156">  2  5  1 -1</clus>
<clus scale="  241.194">  1  5  2 -1</clus>
</clustering>
</event>
<event>
 9    1  0.3312826E-006  0.5406449E+03  0.7546771E-02  0.1063605E+00
         21   -1    0    0  501  502  0.00000000000E+00  0.00000000000E+00  0.22679684401E+03  0.22679684401E+03  0.00000000000E+00 0.  1.
          2   -1    0    0  502    0 -0.00000000000E+00 -0.00000000000E+00 -0.44815314714E+03  0.44815314714E+03  0.00000000000E+00 0. -1.
         23    2    1    2    0    0  0.38038901329E+01 -0.20315049679E+02 -0.62193142828E+02  0.11136340450E+03  0.90036936992E+02 0.  0.
         23    2    1    2    0    0  0.29612302082E+02  0.27147798146E+03 -0.79845968329E+02  0.29808578223E+03  0.88896411960E+02 0.  0.
        -11    1    4    4    0    0 -0.22267853612E+02  0.47627608782E+02 -0.37130547741E+02  0.64365549779E+02  0.00000000000E+00 0. -1.
         11    1    4    4    0    0  0.51880155694E+02  0.22385037268E+03 -0.42715420588E+02  0.23372023245E+03  0.00000000000E+00 0.  1.
        -13    1    3    3    0    0 -0.42731845550E+02 -0.61649070444E+01 -0.23130368263E+02  0.48979900357E+02  0.00000000000E+00 0.  1.
         13    1    3    3    0    0  0.46535735683E+02 -0.14150142634E+02 -0.39062774565E+02  0.62383504141E+02  0.00000000000E+00 0. -1.
          2    1    1    2  501    0 -0.33416192215E+02 -0.25116293178E+03 -0.79317191973E+02  0.26550080441E+03  0.00000000000E+00 0. -1.
<scales pt_clust_5="13000.00000" pt_clust_6="13000.00000" pt_clust_7="13000.00000" pt_clust_8="13000.00000" pt_clust_9="13000.00000"></scales>
<clustering>
<clus scale="   88.896">  5  6 -1 -1</clus>
<clus scale="   90.037">  7  8 -1 -1</clus>
<clus scale="   92.379">  2  7  1 -1</clus>
<clus scale="  262.762">  5  9 -1 -1</clus>
<clus scale="  540.645">  1  5  2 -1</clus>
</clustering>
</event>
<event>
 9    1  0.3312826E-006  0.7181893E+03  0.7546771E-02  0.1004584E+00
         21   -1    0    0  501  502  0.00000000000E+00  0.00000000000E+00  0.39642475147E+03  0.39642475147E+03  0.00000000000E+00 0. -1.
          2   -1    0    0  502    0 -0.00000000000E+00 -0.00000000000E+00 -0.10175078340E+04  0.10175078340E+04  0.00000000000E+00 0. -1.
         23    2    1    2    0    0 -0.55924740623E+02 -0.19771264213E+03 -0.65763641026E+03  0.69481369273E+03  0.89791725870E+02 0.  0.
         23    2    1    2    0    0 -0.48951680778E+02 -0.24395525438E+03  0.56469044602E+01  0.26411911081E+03  0.88411447082E+02 0.  0.
        -11    1    4    4    0    0 -0.14329398965E+02 -0.45096850979E+02 -0.34186813262E+02  0.58376329483E+02  0.00000000000E+00 0.  1.
         11    1    4    4    0    0 -0.34622281813E+02 -0.19885840340E+03  0.39833717722E+02  0.20574278133E+03  0.00000000000E+00 0. -1.
        -13    1    3    3    0    0 -0.73258297887E+02 -0.97282622348E+02 -0.38181018104E+03  0.40076140179E+03  0.00000000000E+00 0.  1.
         13    1    3    3    0    0  0.17333557265E+02 -0.10043001978E+03 -0.27582622923E+03  0.29405229094E+03  0.00000000000E+00 0. -1.
          2    1    1    2  501    0  0.10487642140E+03  0.44166789651E+03  0.30906423258E+02  0.45499978194E+03  0.00000000000E+00 0. -1.
<scales pt_clust_5="13000.00000" pt_clust_6="13000.00000" pt_clust_7="13000.00000" pt_clust_8="13000.00000" pt_clust_9="13000.00000"></scales>
<clustering>
<clus scale="   88.411">  5  6 -1 -1</clus>
<clus scale="   89.792">  7  8 -1 -1</clus>
<clus scale="  224.233">  2  7  1 -1</clus>
<clus scale="  326.446">  5  9 -1 -1</clus>
<clus scale="  718.189">  1  5  2 -1</clus>
</clustering>
</event>
<event>
 9    1  0.3312826E-006  0.2303295E+03  0.7546771E-02  0.1143934E+00
         21   -1    0    0  501  502  0.00000000000E+00  0.00000000000E+00  0.79562808882E+02  0.79562808882E+02  0.00000000000E+00 0.  1.
          2   -1    0    0  502    0 -0.00000000000E+00 -0.00000000000E+00 -0.57741057423E+03  0.57741057423E+03  0.00000000000E+00 0. -1.
         23    2    1    2    0    0  0.50584048651E+02  0.10103841208E+03 -0.59332547095E+02  0.16164795865E+03  0.99207886267E+02 0.  0.
         23    2    1    2    0    0 -0.10128139052E+03 -0.29377186327E+02 -0.24125138870E+03  0.27941208491E+03  0.93530430893E+02 0.  0.
        -11    1    4    4    0    0  0.51998806144E+01  0.21637067219E+02 -0.29296416158E+02  0.36789691979E+02  0.00000000000E+00 0.  1.
         11    1    4    4    0    0 -0.10648127113E+03 -0.51014253546E+02 -0.21195497255E+03  0.24262239294E+03  0.00000000000E+00 0. -1.
        -13    1    3    3    0    0 -0.27904517915E+02  0.48306208889E+02 -0.23322874499E+02  0.60465762314E+02  0.00000000000E+00 0.  1.
         13    1    3    3    0    0  0.78488566566E+02  0.52732203187E+02 -0.36009672596E+02  0.10118219633E+03  0.00000000000E+00 0. -1.
          2    1    1    2  501    0  0.50697341865E+02 -0.71661225748E+02 -0.19726382955E+03  0.21591333955E+03  0.00000000000E+00 0. -1.
<scales pt_clust_5="13000.00000" pt_clust_6="13000.00000" pt_clust_7="13000.00000" pt_clust_8="13000.00000" pt_clust_9="13000.00000"></scales>
<clustering>
<clus scale="   93.530">  5  6 -1 -1</clus>
<clus scale="   87.781">  5  9 -1 -1</clus>
<clus scale="   99.208">  7  8 -1 -1</clus>
<clus scale="  150.365">  2  7  1 -1</clus>
<clus scale="  230.330">  1  5  2 -1</clus>
</clustering>
</event>
<event>
 9    1  0.3312826E-006  0.2118094E+03  0.7546771E-02  0.1174347E+00
          1   -1    0    0  502    0 -0.00000000000E+00  0.00000000000E+00  0.96917386006E+02  0.96917386006E+02  0.00000000000E+00 0. -1.
         21   -1    0    0  501  502  0.00000000000E+00 -0.00000000000E+00 -0.25244630961E+03  0.25244630961E+03  0.00000000000E+00 0.  1.
         23    2    1    2    0    0 -0.14455333462E+02 -0.33806684640E+02 -0.80599426357E+02  0.12469134185E+03  0.87748587519E+02 0.  0.
         23    2    1    2    0    0  0.34956685822E+02  0.86271371408E+02 -0.98952697371E+02  0.16343541271E+03  0.90855811051E+02 0.  0.
        -11    1    3    3    0    0 -0.47317919491E+02 -0.38226803140E+02 -0.61132784372E+02  0.86240891162E+02  0.00000000000E+00 0.  1.
         11    1    3    3    0    0  0.32862586029E+02  0.44201184993E+01 -0.19466641985E+02  0.38450450689E+02  0.00000000000E+00 0. -1.
        -13    1    4    4    0    0  0.45790481886E+02  0.62969875812E+02 -0.19971885900E+02  0.80379411030E+02  0.00000000000E+00 0. -1.
         13    1    4    4    0    0 -0.10833796064E+02  0.23301495596E+02 -0.78980811470E+02  0.83056001678E+02  0.00000000000E+00 0.  1.
          1    1    1    2  501    0 -0.20501352360E+02 -0.52464686768E+02  0.24023200121E+02  0.61236941059E+02  0.00000000000E+00 0. -1.
<scales pt_clust_5="13000.00000" pt_clust_6="13000.00000" pt_clust_7="13000.00000" pt_clust_8="13000.00000" pt_clust_9="13000.00000"></scales>
<clustering>
<clus scale="   87.749">  5  6 -1 -1</clus>
<clus scale="   90.856">  7  8 -1 -1</clus>
<clus scale="   56.328">  7  9 -1 -1</clus>
<clus scale="   95.140">  1  5  2 -1</clus>
<clus scale="  211.809">  2  5  1 -1</clus>
</clustering>
</event>
<event>
 9    1  0.3312826E-006  0.1848387E+03  0.7546771E-02  0.1180077E+00
         21   -1    0    0  501  502  0.00000000000E+00  0.00000000000E+00  0.24015170247E+03  0.24015170247E+03  0.00000000000E+00 0.  1.
          2   -1    0    0  502    0 -0.00000000000E+00 -0.00000000000E+00 -0.48908701257E+03  0.48908701257E+03  0.00000000000E+00 0. -1.
         23    2    1    2    0    0  0.73572688075E+02 -0.31466976654E+02 -0.44342897224E+03  0.46092333067E+03  0.97046134810E+02 0.  0.
         23    2    1    2    0    0 -0.77141255229E+02  0.44749519861E+00  0.69356557864E+02  0.13934159722E+03  0.93031043679E+02 0.  0.
        -11    1    4    4    0    0 -0.10435538498E+02  0.41272393039E+02  0.22097715914E+02  0.47964778114E+02  0.00000000000E+00 0. -1.
         11    1    4    4    0    0 -0.66705716732E+02 -0.40824897840E+02  0.47258841950E+02  0.91376819111E+02  0.00000000000E+00 0.  1.
        -13    1    3    3    0    0 -0.21418681743E+02 -0.19268570356E+02 -0.13169330172E+03  0.13480787607E+03  0.00000000000E+00 0.  1.
         13    1    3    3    0    0  0.94991369818E+02 -0.12198406298E+02 -0.31173567052E+03  0.32611545460E+03  0.00000000000E+00 0. -1.
          2    1    1    2  501    0  0.35685671543E+01  0.31019481456E+02  0.12513710428E+03  0.12897378714E+03  0.00000000000E+00 0. -1.
<scales pt_clust_5="13000.00000" pt_clust_6="13000.00000" pt_clust_7="13000.00000" pt_clust_8="13000.00000" pt_clust_9="13000.00000"></scales>
<clustering>
<clus scale="   93.031">  5  6 -1 -1</clus>
<clus scale="   31.224">  5  9 -1 -1</clus>
<clus scale="   97.046">  7  8 -1 -1</clus>
<clus scale="  125.782">  2  7  1 -1</clus>
<clus scale="  184.839">  1  5  2 -1</clus>
</clustering>
</event>
<event>
 9    1  0.3312826E-006  0.1221773E+03  0.7546771E-02  0.1254065E+00
         21   -1    0    0  501  502  0.00000000000E+00  0.00000000000E+00  0.16509654787E+03  0.16509654787E+03  0.00000000000E+00 0. -1.
         -4   -1    0    0    0  501 -0.00000000000E+00 -0.00000000000E+00 -0.69627365694E+02  0.69627365694E+02  0.00000000000E+00 0.  1.
         23    2    1    2    0    0 -0.83592680457E+01 -0.20698598397E+02  0.29816679117E+02  0.96024465365E+02  0.88506238521E+02 0.  0.
         23    2    1    2    0    0  0.12706355751E+02 -0.55793653061E+01  0.66533002301E+02  0.11204979855E+03  0.89083871522E+02 0.  0.
        -11    1    4    4    0    0  0.23548045650E+02  0.28546206872E+02  0.66660540886E+02  0.76243190463E+02  0.00000000000E+00 0. -1.
         11    1    4    4    0    0 -0.10841689899E+02 -0.34125572178E+02 -0.12753858480E+00  0.35806608083E+02  0.00000000000E+00 0.  1.
        -13    1    3    3    0    0  0.28517198196E+02 -0.37660039212E+02  0.29147396690E+01  0.47328689541E+02  0.00000000000E+00 0.  1.
         13    1    3    3    0    0 -0.36876466241E+02  0.16961440815E+02  0.26901939448E+02  0.48695775823E+02  0.00000000000E+00 0. -1.
         -4    1    1    2    0  502 -0.43470877057E+01  0.26277963703E+02 -0.88049923885E+00  0.26649649656E+02  0.00000000000E+00 0.  1.
<scales pt_clust_5="13000.00000" pt_clust_6="13000.00000" pt_clust_7="13000.00000" pt_clust_8="13000.00000" pt_clust_9="13000.00000"></scales>
<clustering>
<clus scale="   88.506">  7  8 -1 -1</clus>
<clus scale="   89.084">  5  6 -1 -1</clus>
<clus scale="   26.635">  5  9 -1 -1</clus>
<clus scale="   91.278">  2  7  1 -1</clus>
<clus scale="  122.177">  1  5  2 -1</clus>
</clustering>
</event>
<event>
 9    1  0.3312826E-006  0.3737257E+03  0.7546771E-02  0.1096879E+00
         21   -1    0    0  501  502  0.00000000000E+00  0.00000000000E+00  0.60283244491E+03  0.60283244491E+03  0.00000000000E+00 0.  1.
          3   -1    0    0  502    0 -0.00000000000E+00 -0.00000000000E+00 -0.11894878106E+03  0.11894878106E+03  0.00000000000E+00 0. -1.
         23    2    1    2    0    0  0.68808010393E+02  0.44320323711E+00  0.49058031371E+01  0.11425287321E+03  0.91076415219E+02 0.  0.
         23    2    1    2    0    0 -0.14169901827E+02  0.15788059187E+03  0.35496334704E+03  0.39912646551E+03  0.90420629944E+02 0.  0.
        -11    1    4    4    0    0 -0.25890122057E+02  0.89606146800E+02  0.28820251105E+03  0.30291953938E+03  0.00000000000E+00 0. -1.
         11    1    4    4    0    0  0.11720220231E+02  0.68274445073E+02  0.66760835986E+02  0.96206926122E+02  0.00000000000E+00 0.  1.
        -13    1    3    3    0    0  0.36232114053E+02 -0.42746612910E+02 -0.12520534852E+02  0.57417791642E+02  0.00000000000E+00 0.  1.
         13    1    3    3    0    0  0.32575896340E+02  0.43189816147E+02  0.17426337989E+02  0.56835081569E+02  0.00000000000E+00 0. -1.
          3    1    1    2  501    0 -0.54638108567E+02 -0.15832379511E+03  0.12401451368E+03  0.20840188725E+03  0.00000000000E+00 0. -1.
<scales pt_clust_5="13000.00000" pt_clust_6="13000.00000" pt_clust_7="13000.00000" pt_clust_8="13000.00000" pt_clust_9="13000.00000"></scales>
<clustering>
<clus scale="   90.421">  5  6 -1 -1</clus>
<clus scale="   91.076">  7  8 -1 -1</clus>
<clus scale="  114.148">  2  7  1 -1</clus>
<clus scale="  158.316">  5  9 -1 -1</clus>
<clus scale="  373.726">  1  5  2 -1</clus>
</clustering>
</event>
<event>
 9    1  0.3312826E-006  0.2310373E+03  0.7546771E-02  0.1132616E+00
         21   -1    0    0  501  502  0.00000000000E+00  0.00000000000E+00  0.76974538693E+02  0.76974538693E+02  0.00000000000E+00 0. -1.
         -1   -1    0    0    0  501 -0.00000000000E+00 -0.00000000000E+00 -0.86939324883E+03  0.86939324883E+03  0.00000000000E+00 0.  1.
         23    2    1    2    0    0 -0.77243885061E+02  0.15236588788E+03 -0.64065630630E+03  0.66994410080E+03  0.95930255041E+02 0.  0.
         23    2    1    2    0    0  0.10088312977E+03 -0.88556646235E+02 -0.11553482880E+03  0.19933367178E+03  0.91465461096E+02 0.  0.
        -11    1    3    3    0    0 -0.56982784935E+02  0.18566291746E+02 -0.22290536517E+03  0.23082146086E+03  0.00000000000E+00 0.  1.
         11    1    3    3    0    0 -0.20261100126E+02  0.13379959614E+03 -0.41775094112E+03  0.43912263995E+03  0.00000000000E+00 0. -1.
        -13    1    4    4    0    0  0.81748367551E+02 -0.65373919766E+02 -0.30325838777E+02  0.10897798622E+03  0.00000000000E+00 0.  1.
         13    1    4    4    0    0  0.19134762222E+02 -0.23182726469E+02 -0.85208990027E+02  0.90355685562E+02  0.00000000000E+00 0. -1.
         -1    1    1    2    0  502 -0.23639244713E+02 -0.63809241648E+02 -0.36227575033E+02  0.77090014937E+02  0.00000000000E+00 0.  1.
<scales pt_clust_5="13000.00000" pt_clust_6="13000.00000" pt_clust_7="13000.00000" pt_clust_8="13000.00000" pt_clust_9="13000.00000"></scales>
<clustering>
<clus scale="   91.465">  7  8 -1 -1</clus>
<clus scale="   68.047">  7  9 -1 -1</clus>
<clus scale="   95.930">  5  6 -1 -1</clus>
<clus scale="  195.920">  2  5  1 -1</clus>
<clus scale="  231.037">  1  5  2 -1</clus>
</clustering>
</event>
<event>
 9    1  0.3312826E-006  0.2762723E+03  0.7546771E-02  0.1112996E+00
          1   -1    0    0  502    0 -0.00000000000E+00  0.00000000000E+00  0.54908670927E+03  0.54908670927E+03  0.00000000000E+00 0. -1.
         21   -1    0    0  501  502  0.00000000000E+00 -0.00000000000E+00 -0.12156070464E+03  0.12156070464E+03  0.00000000000E+00 0. -1.
         23    2    1    2    0    0 -0.36546369271E+01  0.16230162519E+03  0.33916001590E+02  0.18975739795E+03  0.92208464928E+02 0.  0.
         23    2    1    2    0    0  0.56379212805E+02 -0.38732674766E+02  0.28889197231E+03  0.31055202146E+03  0.91132599215E+02 0.  0.
        -11    1    3    3    0    0 -0.36586132267E+02  0.22252267352E+02  0.69162995344E+01  0.43376764239E+02  0.00000000000E+00 0.  1.
         11    1    3    3    0    0  0.32931495340E+02  0.14004935784E+03  0.26999702056E+02  0.14638063371E+03  0.00000000000E+00 0. -1.
        -11    1    4    4    0    0  0.29821124990E+02 -0.66473073351E+02  0.21904509437E+03  0.23084350184E+03  0.00000000000E+00 0.  1.
         11    1    4    4    0    0  0.26558087815E+02  0.27740398585E+02  0.69846877936E+02  0.79708519616E+02  0.00000000000E+00 0. -1.
          1    1    1    2  501    0 -0.52724575878E+02 -0.12356895042E+03  0.10471803074E+03  0.17033799450E+03  0.00000000000E+00 0. -1.
<scales pt_clust_5="13000.00000" pt_clust_6="13000.00000" pt_clust_7="13000.00000" pt_clust_8="13000.00000" pt_clust_9="13000.00000"></scales>
<clustering>
<clus scale="   91.133">  7  8 -1 -1</clus>
<clus scale="   92.208">  5  6 -1 -1</clus>
<clus scale="  134.347">  7  9 -1 -1</clus>
<clus scale="  186.702">  1  5  2 -1</clus>
<clus scale="  276.272">  2  5  1 -1</clus>
</clustering>
</event>
<event>
 9    1  0.3312826E-006  0.1973286E+03  0.7546771E-02  0.1181345E+00
         -3   -1    0    0    0  501 -0.00000000000E+00  0.00000000000E+00  0.15406077345E+03  0.15406077345E+03  0.00000000000E+00 0.  1.
         21   -1    0    0  501  502  0.00000000000E+00 -0.00000000000E+00 -0.16405340460E+03  0.16405340460E+03  0.00000000000E+00 0.  1.
         23    2    1    2    0    0  0.12798016500E+02 -0.16978306527E+02 -0.56648743139E+02  0.11534495264E+03  0.98200437273E+02 0.  0.
         23    2    1    2    0    0  0.10703205837E+02  0.46858879560E+02  0.95710313081E+02  0.14070900675E+03  0.91259231546E+02 0.  0.
        -11    1    3    3    0    0  0.53272495277E+02  0.47632191308E+00 -0.45044547930E+02  0.69765298922E+02  0.00000000000E+00 0.  1.
         11    1    3    3    0    0 -0.40474478777E+02 -0.17454628440E+02 -0.11604195209E+02  0.45579653714E+02  0.00000000000E+00 0. -1.
        -13    1    4    4    0    0  0.72951124079E+01  0.21636031340E+02 -0.14863006990E+02  0.27244182755E+02  0.00000000000E+00 0. -1.
         13    1    4    4    0    0  0.34080934287E+01  0.25222848220E+02  0.11057332007E+03  0.11346482400E+03  0.00000000000E+00 0.  1.
         -3    1    1    2    0  502 -0.23501222336E+02 -0.29880573033E+02 -0.49054201089E+02  0.62060218664E+02  0.00000000000E+00 0.  1.
<scales pt_clust_5="13000.00000" pt_clust_6="13000.00000" pt_clust_7="13000.00000" pt_clust_8="13000.00000" pt_clust_9="13000.00000"></scales>
<clustering>
<clus scale="   91.259">  7  8 -1 -1</clus>
<clus scale="   38.015">  7  9 -1 -1</clus>
<clus scale="   98.200">  5  6 -1 -1</clus>
<clus scale="  100.476">  1  5  2 -1</clus>
<clus scale="  197.329">  2  5  1 -1</clus>
</clustering>
</event>
<event>
 9    1  0.3312826E-006  0.4369036E+03  0.7546771E-02  0.1069657E+00
          3   -1    0    0  502    0 -0.00000000000E+00  0.00000000000E+00  0.68869779356E+03  0.68869779356E+03  0.00000000000E+00 0. -1.
         21   -1    0    0  501  502  0.00000000000E+00 -0.00000000000E+00 -0.12423029285E+03  0.12423029285E+03  0.00000000000E+00 0.  1.
         23    2    1    2    0    0  0.11528783138E+03  0.13084026826E+02  0.14466173538E+03  0.20702246065E+03  0.92026114270E+02 0.  0.
         23    2    1    2    0    0 -0.15768343217E+03 -0.13821050365E+03  0.41397332389E+03  0.47366327421E+03  0.94956707744E+02 0.  0.
        -13    1    3    3    0    0  0.88195021208E+02 -0.95084662450E+01  0.14697558736E+03  0.17167002061E+03  0.00000000000E+00 0. -1.
         13    1    3    3    0    0  0.27092810172E+02  0.22592493071E+02 -0.23138519731E+01  0.35352440045E+02  0.00000000000E+00 0.  1.
        -13    1    4    4    0    0 -0.73709206117E+02 -0.31244237492E+02  0.23903420962E+03  0.25208451521E+03  0.00000000000E+00 0. -1.
         13    1    4    4    0    0 -0.83974226051E+02 -0.10696626616E+03  0.17493911427E+03  0.22157875900E+03  0.00000000000E+00 0.  1.
          3    1    1    2  501    0  0.42395600787E+02  0.12512647683E+03  0.58324414466E+01  0.13224235155E+03  0.00000000000E+00 0. -1.
<scales pt_clust_5="13000.00000" pt_clust_6="13000.00000" pt_clust_7="13000.00000" pt_clust_8="13000.00000" pt_clust_9="13000.00000"></scales>
<clustering>
<clus scale="   92.026">  5  6 -1 -1</clus>
<clus scale="   94.957">  7  8 -1 -1</clus>
<clus scale="  132.114">  7  9 -1 -1</clus>
<clus scale="  148.092">  1  5  2 -1</clus>
<clus scale="  436.904">  2  5  1 -1</clus>
</clustering>
</event>
<event>
 9    1  0.3312826E-006  0.2565945E+03  0.7546771E-02  0.1138678E+00
          1   -1    0    0  502    0 -0.00000000000E+00  0.00000000000E+00  0.52499894086E+03  0.52499894086E+03  0.00000000000E+00 0. -1.
         21   -1    0    0  501  502  0.00000000000E+00 -0.00000000000E+00 -0.73429612775E+02  0.73429612775E+02  0.00000000000E+00 0.  1.
         23    2    1    2    0    0 -0.41029641086E+02  0.70686411613E+02  0.22261546739E+03  0.25453813498E+03  0.92477108538E+02 0.  0.
         23    2    1    2    0    0  0.12060124738E+03 -0.17357796041E+02  0.18277729123E+03  0.23755200916E+03  0.90429336580E+02 0.  0.
        -11    1    3    3    0    0 -0.57106238102E+02  0.20511591097E+02  0.16813182160E+03  0.17874606914E+03  0.00000000000E+00 0. -1.
         11    1    3    3    0    0  0.16076597017E+02  0.50174820516E+02  0.54483645795E+02  0.75792065842E+02  0.00000000000E+00 0.  1.
        -11    1    4    4    0    0  0.97456941824E+00  0.20699819454E+02  0.76723363138E+01  0.22097444547E+02  0.00000000000E+00 0.  1.
         11    1    4    4    0    0  0.11962667796E+03 -0.38057615495E+02  0.17510495491E+03  0.21545456461E+03  0.00000000000E+00 0. -1.
          1    1    1    2  501    0 -0.79571606289E+02 -0.53328615571E+02  0.46176569462E+02  0.10633840949E+03  0.00000000000E+00 0. -1.
<scales pt_clust_5="13000.00000" pt_clust_6="13000.00000" pt_clust_7="13000.00000" pt_clust_8="13000.00000" pt_clust_9="13000.00000"></scales>
<clustering>
<clus scale="   90.429">  7  8 -1 -1</clus>
<clus scale="   92.477">  5  6 -1 -1</clus>
<clus scale="   95.789">  7  9 -1 -1</clus>
<clus scale="  123.418">  1  5  2 -1</clus>
<clus scale="  256.595">  2  5  1 -1</clus>
</clustering>
</event>
<event>
 9    1  0.3312826E-006  0.2231930E+03  0.7546771E-02  0.1161882E+00
         21   -1    0    0  501  502  0.00000000000E+00  0.00000000000E+00  0.26934100209E+03  0.26934100209E+03  0.00000000000E+00 0.  1.
         -3   -1    0    0    0  501 -0.00000000000E+00 -0.00000000000E+00 -0.11349724352E+03  0.11349724352E+03  0.00000000000E+00 0.  1.
         23    2    1    2    0    0 -0.57679544449E+02 -0.52503899391E+01 -0.39900628776E+01  0.10831689595E+03  0.91444698612E+02 0.  0.
         23    2    1    2    0    0  0.96433573357E+01  0.18742583816E+02 -0.13407400735E+02  0.94238140141E+02  0.90866879962E+02 0.  0.
        -13    1    3    3    0    0  0.17632046942E+02 -0.14216021391E+02 -0.20667495627E+02  0.30661534845E+02  0.00000000000E+00 0. -1.
         13    1    3    3    0    0 -0.75311591392E+02  0.89656314519E+01  0.16677432750E+02  0.77655361105E+02  0.00000000000E+00 0.  1.
        -13    1    4    4    0    0 -0.24154287829E+02  0.44164725650E+02 -0.17471051826E+01  0.50368690561E+02  0.00000000000E+00 0.  1.
         13    1    4    4    0    0  0.33797645165E+02 -0.25422141834E+02 -0.11660295552E+02  0.43869449580E+02  0.00000000000E+00 0. -1.
         -3    1    1    2    0  502  0.48036187114E+02 -0.13492193877E+02  0.17324122219E+03  0.18028320952E+03  0.00000000000E+00 0.  1.
<scales pt_clust_5="13000.00000" pt_clust_6="13000.00000" pt_clust_7="13000.00000" pt_clust_8="13000.00000" pt_clust_9="13000.00000"></scales>
<clustering>
<clus scale="   90.867">  7  8 -1 -1</clus>
<clus scale="   49.895">  7  9 -1 -1</clus>
<clus scale="   91.445">  5  6 -1 -1</clus>
<clus scale="  108.243">  2  5  1 -1</clus>
<clus scale="  223.193">  1  5  2 -1</clus>
</clustering>
</event>
<event>
 9    1  0.3312826E-006  0.4377356E+03  0.7546771E-02  0.1047677E+00
         21   -1    0    0  501  502  0.00000000000E+00  0.00000000000E+00  0.26330767610E+03  0.26330767610E+03  0.00000000000E+00 0. -1.
          2   -1    0    0  502    0 -0.00000000000E+00 -0.00000000000E+00 -0.55278795582E+03  0.55278795582E+03  0.00000000000E+00 0. -1.
         23    2    1    2    0    0  0.10596256753E+03  0.23444884941E+03 -0.26077147750E+03  0.37741957263E+03  0.90826436809E+02 0.  0.
         23    2    1    2    0    0  0.70241861624E+01 -0.72210155510E+02 -0.16269508078E+03  0.19984615507E+03  0.90582286548E+02 0.  0.
        -11    1    3    3    0    0  0.87761850613E+02  0.84927356631E+02 -0.12165860046E+03  0.17238217249E+03  0.00000000000E+00 0.  1.
         11    1    3    3    0    0  0.18200716916E+02  0.14952149277E+03 -0.13911287704E+03  0.20503740014E+03  0.00000000000E+00 0. -1.
        -13    1    4    4    0    0  0.47383478407E+02 -0.51183738283E+02 -0.10966040994E+03  0.12996297395E+03  0.00000000000E+00 0. -1.
         13    1    4    4    0    0 -0.40359292245E+02 -0.21026417227E+02 -0.53034670842E+02  0.69883181118E+02  0.00000000000E+00 0.  1.
          2    1    1    2  501    0 -0.11298675369E+03 -0.16223869390E+03  0.13398627856E+03  0.23882990422E+03  0.00000000000E+00 0. -1.
<scales pt_clust_5="13000.00000" pt_clust_6="13000.00000" pt_clust_7="13000.00000" pt_clust_8="13000.00000" pt_clust_9="13000.00000"></scales>
<clustering>
<clus scale="   90.582">  7  8 -1 -1</clus>
<clus scale="   90.826">  5  6 -1 -1</clus>
<clus scale="  197.705">  7  9 -1 -1</clus>
<clus scale="  272.844">  2  5  1 -1</clus>
<clus scale="  437.736">  1  5  2 -1</clus>
</clustering>
</event>
<event>
 9    1  0.3312826E-006  0.2077852E+03  0.7546771E-02  0.1177209E+00
          1   -1    0    0  502    0 -0.00000000000E+00  0.00000000000E+00  0.59401954357E+02  0.59401954357E+02  0.00000000000E+00 0. -1.
         21   -1    0    0  501  502  0.00000000000E+00 -0.00000000000E+00 -0.43124487338E+03  0.43124487338E+03  0.00000000000E+00 0. -1.
         23    2    1    2    0    0  0.27405727378E+01 -0.20311995545E+01 -0.48191104942E+02  0.10603639257E+03  0.94391193676E+02 0.  0.
         23    2    1    2    0    0 -0.33089014310E+02  0.77990591278E+02 -0.22260940496E+03  0.25460879849E+03  0.89962647230E+02 0.  0.
        -11    1    3    3    0    0  0.16554250740E+02 -0.45601210726E+02 -0.28524965196E+02  0.56277768938E+02  0.00000000000E+00 0.  1.
         11    1    3    3    0    0 -0.13813678003E+02  0.43570011171E+02 -0.19666139747E+02  0.49758623634E+02  0.00000000000E+00 0. -1.
        -11    1    4    4    0    0 -0.17270146142E+02  0.14897406905E+02 -0.12206509885E+00  0.22808015700E+02  0.00000000000E+00 0.  1.
         11    1    4    4    0    0 -0.15818868168E+02  0.63093184373E+02 -0.22248733986E+03  0.23180078279E+03  0.00000000000E+00 0. -1.
          1    1    1    2  501    0  0.30348441573E+02 -0.75959391723E+02 -0.10104240912E+03  0.13000163668E+03  0.00000000000E+00 0. -1.
<scales pt_clust_5="13000.00000" pt_clust_6="13000.00000" pt_clust_7="13000.00000" pt_clust_8="13000.00000" pt_clust_9="13000.00000"></scales>
<clustering>
<clus scale="   89.963">  7  8 -1 -1</clus>
<clus scale="   81.798">  7  9 -1 -1</clus>
<clus scale="   94.391">  5  6 -1 -1</clus>
<clus scale="   94.453">  1  5  2 -1</clus>
<clus scale="  207.785">  2  5  1 -1</clus>
</clustering>
</event>
<event>
 9    1  0.3312826E-006  0.1912011E+03  0.7546771E-02  0.1186675E+00
         -1   -1    0    0    0  501 -0.00000000000E+00  0.00000000000E+00  0.18773118172E+03  0.18773118172E+03  0.00000000000E+00 0.  1.
         21   -1    0    0  501  502  0.00000000000E+00 -0.00000000000E+00 -0.17797626887E+03  0.17797626887E+03  0.00000000000E+00 0. -1.
         23    2    1    2    0    0 -0.22202190923E+02  0.30454104058E+02  0.11201969583E+03  0.14887588140E+03  0.90527487942E+02 0.  0.
         23    2    1    2    0    0 -0.33268237035E+02 -0.23662550545E+02 -0.21030112444E+02  0.11823052826E+03  0.10894723627E+03 0.  0.
        -11    1    3    3    0    0  0.27848547217E+02 -0.17305038730E+01  0.71858617804E+02  0.77085648330E+02  0.00000000000E+00 0.  1.
         11    1    3    3    0    0 -0.50050738140E+02  0.32184607931E+02  0.40161078023E+02  0.71790233068E+02  0.00000000000E+00 0. -1.
        -13    1    4    4    0    0 -0.58223048210E+02 -0.52291093193E+02 -0.16554907621E+02  0.79989666436E+02  0.00000000000E+00 0.  1.
         13    1    4    4    0    0  0.24954811176E+02  0.28628542648E+02 -0.44752048234E+01  0.38240861825E+02  0.00000000000E+00 0. -1.
         -1    1    1    2    0  502  0.55470427958E+02 -0.67915535127E+01 -0.81234670526E+02  0.98601040929E+02  0.00000000000E+00 0.  1.
<scales pt_clust_5="13000.00000" pt_clust_6="13000.00000" pt_clust_7="13000.00000" pt_clust_8="13000.00000" pt_clust_9="13000.00000"></scales>
<clustering>
<clus scale="   90.527">  5  6 -1 -1</clus>
<clus scale="   98.059">  1  5  2 -1</clus>
<clus scale="  108.947">  7  8 -1 -1</clus>
<clus scale="   52.150">  7  9 -1 -1</clus>
<clus scale="  191.201">  2  5  1 -1</clus>
</clustering>
</event>
<event>
 9    1  0.3312826E-006  0.6647956E+03  0.7546771E-02  0.1024540E+00
         21   -1    0    0  501  502  0.00000000000E+00  0.00000000000E+00  0.15778608167E+03  0.15778608167E+03  0.00000000000E+00 0. -1.
          1   -1    0    0  502    0 -0.00000000000E+00 -0.00000000000E+00 -0.11180653970E+04  0.11180653970E+04  0.00000000000E+00 0. -1.
         23    2    1    2    0    0  0.59015726999E+02  0.10635491284E+03 -0.30986866688E+03  0.34580462554E+03  0.93637731769E+02 0.  0.
         23    2    1    2    0    0  0.40499283665E+02 -0.11183926745E+03 -0.76395265837E+03  0.77896706134E+03  0.94962122455E+02 0.  0.
        -11    1    4    4    0    0  0.68739097735E+02 -0.52525446983E+02 -0.43519257626E+03  0.44370774680E+03  0.00000000000E+00 0. -1.
         11    1    4    4    0    0 -0.28239814070E+02 -0.59313820471E+02 -0.32876008211E+03  0.33525931454E+03  0.00000000000E+00 0.  1.
        -13    1    3    3    0    0  0.13918939025E+02  0.71060809742E+02 -0.75783657914E+02  0.10481668928E+03  0.00000000000E+00 0. -1.
         13    1    3    3    0    0  0.45096787974E+02  0.35294103097E+02 -0.23408500897E+03  0.24098793626E+03  0.00000000000E+00 0.  1.
          1    1    1    2  501    0 -0.99515010664E+02  0.54843546145E+01  0.11354200988E+03  0.15107979183E+03  0.00000000000E+00 0. -1.
<scales pt_clust_5="13000.00000" pt_clust_6="13000.00000" pt_clust_7="13000.00000" pt_clust_8="13000.00000" pt_clust_9="13000.00000"></scales>
<clustering>
<clus scale="   93.638">  7  8 -1 -1</clus>
<clus scale="   94.962">  5  6 -1 -1</clus>
<clus scale="   99.666">  5  9 -1 -1</clus>
<clus scale="  153.500">  2  7  1 -1</clus>
<clus scale="  664.796">  1  5  2 -1</clus>
</clustering>
</event>
<event>
 9    1  0.3312826E-006  0.1460725E+03  0.7546771E-02  0.1226185E+00
         21   -1    0    0  501  502  0.00000000000E+00  0.00000000000E+00  0.11038923069E+03  0.11038923069E+03  0.00000000000E+00 0.  1.
          3   -1    0    0  502    0 -0.00000000000E+00 -0.00000000000E+00 -0.17638047799E+03  0.17638047799E+03  0.00000000000E+00 0. -1.
         23    2    1    2    0    0 -0.25340419732E+01 -0.26729557811E+02 -0.99461791291E+02  0.13691160339E+03  0.90173436151E+02 0.  0.
         23    2    1    2    0    0 -0.17556841281E+02  0.35793455748E+02 -0.10826302477E+02  0.10038075246E+03  0.91485914154E+02 0.  0.
        -11    1    4    4    0    0  0.21339448349E+02  0.18218542868E+02 -0.39870262361E+02  0.48753719661E+02  0.00000000000E+00 0. -1.
         11    1    4    4    0    0 -0.38896289630E+02  0.17574912880E+02  0.29043959884E+02  0.51627032797E+02  0.00000000000E+00 0.  1.
        -13    1    3    3    0    0 -0.24627006086E+02  0.25783513221E+02 -0.26939733167E+02  0.44688121530E+02  0.00000000000E+00 0.  1.
         13    1    3    3    0    0  0.22092964112E+02 -0.52513071032E+02 -0.72522058124E+02  0.92223481863E+02  0.00000000000E+00 0. -1.
          3    1    1    2  501    0  0.20090883254E+02 -0.90638979369E+01  0.44296846468E+02  0.49477352826E+02  0.00000000000E+00 0. -1.
<scales pt_clust_5="13000.00000" pt_clust_6="13000.00000" pt_clust_7="13000.00000" pt_clust_8="13000.00000" pt_clust_9="13000.00000"></scales>
<clustering>
<clus scale="   90.173">  7  8 -1 -1</clus>
<clus scale="   91.486">  5  6 -1 -1</clus>
<clus scale="   22.041">  5  9 -1 -1</clus>
<clus scale="   94.086">  2  7  1 -1</clus>
<clus scale="  146.072">  1  5  2 -1</clus>
</clustering>
</event>
<event>
 9    1  0.3312826E-006  0.4145782E+03  0.7546771E-02  0.1088242E+00
          4   -1    0    0  502    0 -0.00000000000E+00  0.00000000000E+00  0.19545779281E+03  0.19545779281E+03  0.00000000000E+00 0. -1.
         21   -1    0    0  501  502  0.00000000000E+00 -0.00000000000E+00 -0.57959690113E+03  0.57959690113E+03  0.00000000000E+00 0. -1.
         23    2    1    2    0    0  0.49560089551E+02  0.12806791736E+02  0.94923733485E+02  0.14151201315E+03  0.91623786740E+02 0.  0.
         23    2    1    2    0    0 -0.17662730297E+03 -0.79957637242E+02 -0.11793233814E+03  0.24486472481E+03  0.91979721521E+02 0.  0.
        -11    1    3    3    0    0  0.21299847881E+02 -0.17555648013E+02  0.96131042766E+02  0.10001530723E+03  0.00000000000E+00 0. -1.
         11    1    3    3    0    0  0.28260241670E+02  0.30362439748E+02 -0.12073092804E+01  0.41496705923E+02  0.00000000000E+00 0.  1.
        -13    1    4    4    0    0 -0.14624114207E+03 -0.29316959623E+02 -0.56078982650E+02  0.15934493418E+03  0.00000000000E+00 0. -1.
         13    1    4    4    0    0 -0.30386160902E+02 -0.50640677619E+02 -0.61853355488E+02  0.85519790629E+02  0.00000000000E+00 0.  1.
          4    1    1    2  501    0  0.12706721342E+03  0.67150845507E+02 -0.36113050367E+03  0.38867795597E+03  0.00000000000E+00 0. -1.
<scales pt_clust_5="13000.00000" pt_clust_6="13000.00000" pt_clust_7="13000.00000" pt_clust_8="13000.00000" pt_clust_9="13000.00000"></scales>
<clustering>
<clus scale="   91.624">  5  6 -1 -1</clus>
<clus scale="   91.980">  7  8 -1 -1</clus>
<clus scale="  104.953">  1  5  2 -1</clus>
<clus scale="  152.615">  7  9 -1 -1</clus>
<clus scale="  414.578">  2  5  1 -1</clus>
</clustering>
</event>
<event>
 9    1  0.3312826E-006  0.4668743E+03  0.7546771E-02  0.1059757E+00
          2   -1    0    0  502    0 -0.00000000000E+00  0.00000000000E+00  0.14320481421E+04  0.14320481421E+04  0.00000000000E+00 0. -1.
         21   -1    0    0  501  502  0.00000000000E+00 -0.00000000000E+00 -0.78729178605E+02  0.78729178605E+02  0.00000000000E+00 0.  1.
         23    2    1    2    0    0 -0.80537403332E+02  0.10333391934E+03  0.62954543235E+03  0.64948776618E+03  0.91338572349E+02 0.  0.
         23    2    1    2    0    0  0.26439943022E+02 -0.27133744044E+03  0.40320677944E+03  0.49534589682E+03  0.92025938422E+02 0.  0.
        -13    1    3    3    0    0 -0.99043239211E+02  0.69029502351E+02  0.47352973500E+03  0.48867683121E+03  0.00000000000E+00 0. -1.
         13    1    3    3    0    0  0.18505835879E+02  0.34304416991E+02  0.15601569735E+03  0.16081093497E+03  0.00000000000E+00 0.  1.
        -13    1    4    4    0    0 -0.32345577761E+01 -0.25065974901E+03  0.36438947917E+03  0.44229002325E+03  0.00000000000E+00 0.  1.
         13    1    4    4    0    0  0.29674500798E+02 -0.20677691437E+02  0.38817300271E+02  0.53055873577E+02  0.00000000000E+00 0. -1.
          2    1    1    2  501    0  0.54097460311E+02  0.16800352110E+03  0.32056675172E+03  0.36594365772E+03  0.00000000000E+00 0. -1.
<scales pt_clust_5="13000.00000" pt_clust_6="13000.00000" pt_clust_7="13000.00000" pt_clust_8="13000.00000" pt_clust_9="13000.00000"></scales>
<clustering>
<clus scale="   91.339">  5  6 -1 -1</clus>
<clus scale="   92.026">  7  8 -1 -1</clus>
<clus scale="  159.709">  1  5  2 -1</clus>
<clus scale="  213.625">  7  9 -1 -1</clus>
<clus scale="  466.874">  2  5  1 -1</clus>
</clustering>
</event>
<event>
 9    1  0.3312826E-006  0.2168136E+03  0.7546771E-02  0.1155010E+00
          2   -1    0    0  502    0 -0.00000000000E+00  0.00000000000E+00  0.48613968924E+03  0.48613968924E+03  0.00000000000E+00 0. -1.
         21   -1    0    0  501  502  0.00000000000E+00 -0.00000000000E+00 -0.76238221962E+02  0.76238221962E+02  0.00000000000E+00 0. -1.
         23    2    1    2    0    0 -0.97567903040E+02  0.41546215562E+02  0.60682543503E+02  0.15132802555E+03  0.89287269529E+02 0.  0.
         23    2    1    2    0    0  0.34043820552E+02  0.34509557470E+02  0.22680851293E+03  0.25355671643E+03  0.10246470434E+03 0.  0.
        -13    1    4    4    0    0  0.24212625720E+02 -0.33448748621E+02  0.56955667565E+02  0.70349257966E+02  0.00000000000E+00 0.  1.
         13    1    4    4    0    0  0.98311948313E+01  0.67958306091E+02  0.16985284537E+03  0.18320745847E+03  0.00000000000E+00 0. -1.
        -13    1    3    3    0    0 -0.47330958250E+02  0.64678015153E+02  0.19812957406E+02  0.82559182010E+02  0.00000000000E+00 0. -1.
         13    1    3    3    0    0 -0.50236944790E+02 -0.23131799591E+02  0.40869586098E+02  0.68768843541E+02  0.00000000000E+00 0.  1.
          2    1    1    2  501    0  0.63524082489E+02 -0.76055773032E+02  0.12241041084E+03  0.15749316921E+03  0.00000000000E+00 0. -1.
<scales pt_clust_5="13000.00000" pt_clust_6="13000.00000" pt_clust_7="13000.00000" pt_clust_8="13000.00000" pt_clust_9="13000.00000"></scales>
<clustering>
<clus scale="   89.287">  7  8 -1 -1</clus>
<clus scale="  102.465">  5  6 -1 -1</clus>
<clus scale="   99.095">  5  9 -1 -1</clus>
<clus scale="  138.628">  1  7  2 -1</clus>
<clus scale="  216.814">  2  5  1 -1</clus>
</clustering>
</event>
<event>
 9    1  0.3312826E-006  0.3287847E+03  0.7546771E-02  0.1104345E+00
          2   -1    0    0  502    0 -0.00000000000E+00  0.00000000000E+00  0.21751209354E+03  0.21751209354E+03  0.00000000000E+00 0. -1.
         21   -1    0    0  501  502  0.00000000000E+00 -0.00000000000E+00 -0.26864062091E+03  0.26864062091E+03  0.00000000000E+00 0. -1.
         23    2    1    2    0    0 -0.46668290898E+02 -0.91408433870E+02  0.42068491430E+02  0.14441446510E+03  0.92478908955E+02 0.  0.
         23    2    1    2    0    0  0.10471181638E+03 -0.67306883327E+02 -0.25412155024E+02  0.15965477805E+03  0.96690689817E+02 0.  0.
        -13    1    4    4    0    0  0.71222125616E+02 -0.91610533482E+02 -0.22267932035E+02  0.11815642945E+03  0.00000000000E+00 0. -1.
         13    1    4    4    0    0  0.33489690767E+02  0.24303650156E+02 -0.31442229891E+01  0.41498348603E+02  0.00000000000E+00 0.  1.
        -13    1    3    3    0    0 -0.24329706889E+01 -0.48458489522E+02  0.62805866234E+02  0.79364484416E+02  0.00000000000E+00 0.  1.
         13    1    3    3    0    0 -0.44235320209E+02 -0.42949944348E+02 -0.20737374804E+02  0.65049980686E+02  0.00000000000E+00 0. -1.
          2    1    1    2  501    0 -0.58043525485E+02  0.15871531720E+03 -0.67784863777E+02  0.18208347130E+03  0.00000000000E+00 0. -1.
<scales pt_clust_5="13000.00000" pt_clust_6="13000.00000" pt_clust_7="13000.00000" pt_clust_8="13000.00000" pt_clust_9="13000.00000"></scales>
<clustering>
<clus scale="   92.479">  7  8 -1 -1</clus>
<clus scale="   96.691">  5  6 -1 -1</clus>
<clus scale="  138.151">  1  7  2 -1</clus>
<clus scale="  141.191">  5  9 -1 -1</clus>
<clus scale="  328.785">  2  5  1 -1</clus>
</clustering>
</event>
<event>
 9    1  0.3312826E-006  0.2059401E+03  0.7546771E-02  0.1176576E+00
         21   -1    0    0  501  502  0.00000000000E+00  0.00000000000E+00  0.77574574201E+02  0.77574574201E+02  0.00000000000E+00 0.  1.
          3   -1    0    0  502    0 -0.00000000000E+00 -0.00000000000E+00 -0.29962773574E+03  0.29962773574E+03  0.00000000000E+00 0. -1.
         23    2    1    2    0    0 -0.18589584095E+01 -0.32533100280E+02 -0.82672754240E+02  0.12852939159E+03  0.92860981417E+02 0.  0.
         23    2    1    2    0    0  0.45815839840E+01 -0.57605830071E+02 -0.10814606519E+03  0.15323695247E+03  0.91905220837E+02 0.  0.
        -11    1    4    4    0    0 -0.93885553934E+01 -0.73824266378E+02 -0.45953343445E+02  0.87463575576E+02  0.00000000000E+00 0.  1.
         11    1    4    4    0    0  0.13970139377E+02  0.16218436307E+02 -0.62192721744E+02  0.65773376897E+02  0.00000000000E+00 0. -1.
        -13    1    3    3    0    0 -0.37683779359E+02 -0.46466447578E+02 -0.46877735620E+02  0.76004737182E+02  0.00000000000E+00 0.  1.
         13    1    3    3    0    0  0.35824820950E+02  0.13933347298E+02 -0.35795018620E+02  0.52524654411E+02  0.00000000000E+00 0. -1.
          3    1    1    2  501    0 -0.27226255744E+01  0.90138930351E+02 -0.31234342106E+02  0.95435965871E+02  0.00000000000E+00 0. -1.
<scales pt_clust_5="13000.00000" pt_clust_6="13000.00000" pt_clust_7="13000.00000" pt_clust_8="13000.00000" pt_clust_9="13000.00000"></scales>
<clustering>
<clus scale="   91.905">  5  6 -1 -1</clus>
<clus scale="   90.180">  5  9 -1 -1</clus>
<clus scale="   92.861">  7  8 -1 -1</clus>
<clus scale="   98.413">  2  7  1 -1</clus>
<clus scale="  205.940">  1  5  2 -1</clus>
</clustering>
</event>
<event>
 9    1  0.3312826E-006  0.1777544E+03  0.7546771E-02  0.1196689E+00
          2   -1    0    0  502    0 -0.00000000000E+00  0.00000000000E+00  0.57785485511E+03  0.57785485511E+03  0.00000000000E+00 0.  1.
         21   -1    0    0  501  502  0.00000000000E+00 -0.00000000000E+00 -0.52667992338E+02  0.52667992338E+02  0.00000000000E+00 0.  1.
         23    2    1    2    0    0  0.13045828107E+02 -0.49881235054E+02  0.40326607512E+03  0.41497402964E+03  0.83196073789E+02 0.  0.
         23    2    1    2    0    0 -0.15892398105E+02  0.17255950152E+02  0.14670587351E+03  0.17447799291E+03  0.91485630317E+02 0.  0.
        -11    1    4    4    0    0 -0.28694745891E+02  0.44747054970E+02  0.49442160634E+02  0.72596243831E+02  0.00000000000E+00 0. -1.
         11    1    4    4    0    0  0.12802347786E+02 -0.27491104818E+02  0.97263712880E+02  0.10188174908E+03  0.00000000000E+00 0.  1.
        -13    1    3    3    0    0  0.45407599362E+02 -0.35511669790E+02  0.30783440254E+03  0.31318516593E+03  0.00000000000E+00 0.  1.
         13    1    3    3    0    0 -0.32361771255E+02 -0.14369565264E+02  0.95431672576E+02  0.10178886371E+03  0.00000000000E+00 0. -1.
          2    1    1    2  501    0  0.28465699978E+01  0.32625284902E+02 -0.24785085865E+02  0.41070824889E+02  0.00000000000E+00 0.  1.
<scales pt_clust_5="13000.00000" pt_clust_6="13000.00000" pt_clust_7="13000.00000" pt_clust_8="13000.00000" pt_clust_9="13000.00000"></scales>
<clustering>
<clus scale="   83.196">  7  8 -1 -1</clus>
<clus scale="   91.486">  5  6 -1 -1</clus>
<clus scale="   32.749">  5  9 -1 -1</clus>
<clus scale="   97.877">  1  7  2 -1</clus>
<clus scale="  177.754">  2  5  1 -1</clus>
</clustering>
</event>
<event>
 9    1  0.3312826E-006  0.1498229E+03  0.7546771E-02  0.1219228E+00
         21   -1    0    0  501  502  0.00000000000E+00  0.00000000000E+00  0.86176725993E+02  0.86176725993E+02  0.00000000000E+00 0.  1.
          1   -1    0    0  502    0 -0.00000000000E+00 -0.00000000000E+00 -0.23249679878E+03  0.23249679878E+03  0.00000000000E+00 0. -1.
         23    2    1    2    0    0 -0.12674328714E+02  0.40482886677E+02 -0.13488650130E+03  0.16841500529E+03  0.91486299800E+02 0.  0.
         23    2    1    2    0    0 -0.26200315449E+02 -0.52307842248E+02 -0.16581216438E+02  0.10930042160E+03  0.90824437975E+02 0.  0.
        -13    1    3    3    0    0  0.19290870973E+02  0.33800655041E+02 -0.12962048680E+03  0.13533695941E+03  0.00000000000E+00 0. -1.
         13    1    3    3    0    0 -0.31965199686E+02  0.66822316355E+01 -0.52660145050E+01  0.33078045882E+02  0.00000000000E+00 0.  1.
        -13    1    4    4    0    0 -0.15320405808E+02  0.17063205120E+02 -0.30050925857E+02  0.37801136860E+02  0.00000000000E+00 0. -1.
         13    1    4    4    0    0 -0.10879909642E+02 -0.69371047368E+02  0.13469709419E+02  0.71499284742E+02  0.00000000000E+00 0.  1.
          1    1    1    2  501    0  0.38874644163E+02  0.11824955572E+02  0.51476449579E+01  0.40958097877E+02  0.00000000000E+00 0. -1.
<scales pt_clust_5="13000.00000" pt_clust_6="13000.00000" pt_clust_7="13000.00000" pt_clust_8="13000.00000" pt_clust_9="13000.00000"></scales>
<clustering>
<clus scale="   90.824">  7  8 -1 -1</clus>
<clus scale="   40.633">  7  9 -1 -1</clus>
<clus scale="   91.486">  5  6 -1 -1</clus>
<clus scale="  100.843">  2  5  1 -1</clus>
<clus scale="  149.823">  1  5  2 -1</clus>
</clustering>
</event>
<event>
 9    1  0.3312826E-006  0.2187824E+03  0.7546771E-02  0.1151294E+00
         -1   -1    0    0    0  501 -0.00000000000E+00  0.00000000000E+00  0.25650350035E+03  0.25650350035E+03  0.00000000000E+00 0.  1.
         21   -1    0    0  501  502  0.00000000000E+00 -0.00000000000E+00 -0.16596068653E+03  0.16596068653E+03  0.00000000000E+00 0. -1.
         23    2    1    2    0    0 -0.49129581108E+02 -0.10377633661E+03  0.13434836368E+03  0.19933941621E+03  0.92214295268E+02 0.  0.
         23    2    1    2    0    0  0.45721532901E+02  0.13489629349E+03 -0.48717614885E+00  0.16967808687E+03  0.92211426931E+02 0.  0.
        -13    1    4    4    0    0 -0.54868634405E+01  0.56482800795E+02 -0.38530007367E+02  0.68592812479E+02  0.00000000000E+00 0.  1.
         13    1    4    4    0    0  0.51208396342E+02  0.78413492692E+02  0.38042831219E+02  0.10108527439E+03  0.00000000000E+00 0. -1.
        -13    1    3    3    0    0 -0.36903003159E+02  0.42799849571E+01  0.46663227366E+02  0.59645676303E+02  0.00000000000E+00 0. -1.
         13    1    3    3    0    0 -0.12226577948E+02 -0.10805632157E+03  0.87685136312E+02  0.13969373991E+03  0.00000000000E+00 0.  1.
         -1    1    1    2    0  502  0.34080482062E+01 -0.31119956875E+02 -0.43318373712E+02  0.53446683803E+02  0.00000000000E+00 0.  1.
<scales pt_clust_5="13000.00000" pt_clust_6="13000.00000" pt_clust_7="13000.00000" pt_clust_8="13000.00000" pt_clust_9="13000.00000"></scales>
<clustering>
<clus scale="   92.211">  5  6 -1 -1</clus>
<clus scale="   31.306">  5  9 -1 -1</clus>
<clus scale="   92.214">  7  8 -1 -1</clus>
<clus scale="  147.264">  1  7  2 -1</clus>
<clus scale="  218.782">  2  5  1 -1</clus>
</clustering>
</event>
<event>
 9    1  0.3312826E-006  0.2974653E+03  0.7546771E-02  0.1132379E+00
         21   -1    0    0  501  502  0.00000000000E+00  0.00000000000E+00  0.45579222049E+02  0.45579222049E+02  0.00000000000E+00 0. -1.
          1   -1    0    0  502    0 -0.00000000000E+00 -0.00000000000E+00 -0.86667719960E+03  0.86667719960E+03  0.00000000000E+00 0. -1.
         23    2    1    2    0    0  0.16499370379E+02  0.81770868882E+01 -0.12620586325E+03  0.15637240639E+03  0.90472733955E+02 0.  0.
         23    2    1    2    0    0  0.89311776831E+02 -0.74259988324E+02 -0.52376121049E+03  0.54410881610E+03  0.90760447361E+02 0.  0.
        -13    1    3    3    0    0  0.17355702801E+02 -0.39378312107E+02 -0.75116880080E+02  0.86570304130E+02  0.00000000000E+00 0.  1.
         13    1    3    3    0    0 -0.85633242196E+00  0.47555398996E+02 -0.51088983165E+02  0.69802102258E+02  0.00000000000E+00 0. -1.
        -13    1    4    4    0    0  0.81620991286E+02 -0.48163444414E+02 -0.49696991990E+03  0.50592569107E+03  0.00000000000E+00 0. -1.
         13    1    4    4    0    0  0.76907855445E+01 -0.26096543910E+02 -0.26791290588E+02  0.38183125039E+02  0.00000000000E+00 0.  1.
          1    1    1    2  501    0 -0.10581114721E+03  0.66082901436E+02 -0.17113090382E+03  0.21177519916E+03  0.00000000000E+00 0. -1.
<scales pt_clust_5="13000.00000" pt_clust_6="13000.00000" pt_clust_7="13000.00000" pt_clust_8="13000.00000" pt_clust_9="13000.00000"></scales>
<clustering>
<clus scale="   90.473">  5  6 -1 -1</clus>
<clus scale="   90.760">  7  8 -1 -1</clus>
<clus scale="   92.328">  2  5  1 -1</clus>
<clus scale="  122.271">  7  9 -1 -1</clus>
<clus scale="  297.465">  1  5  2 -1</clus>
</clustering>
</event>
<event>
 9    1  0.3312826E-006  0.1559323E+03  0.7546771E-02  0.1213467E+00
          1   -1    0    0  502    0 -0.00000000000E+00  0.00000000000E+00  0.16528965300E+03  0.16528965300E+03  0.00000000000E+00 0. -1.
         21   -1    0    0  501  502  0.00000000000E+00 -0.00000000000E+00 -0.10081146248E+03  0.10081146248E+03  0.00000000000E+00 0.  1.
         23    2    1    2    0    0  0.30901084575E+02 -0.30137724303E+02  0.12823664373E+02  0.10183591182E+03  0.91339734586E+02 0.  0.
         23    2    1    2    0    0  0.25044177972E+02  0.11359952833E+02  0.22161131147E+02  0.98292956081E+02  0.91728567539E+02 0.  0.
        -11    1    3    3    0    0  0.42463498523E+02  0.13031110921E+02 -0.17594455940E+02  0.47775762040E+02  0.00000000000E+00 0.  1.
         11    1    3    3    0    0 -0.11562413948E+02 -0.43168835224E+02  0.30418120313E+02  0.54060149781E+02  0.00000000000E+00 0. -1.
        -13    1    4    4    0    0 -0.62049242552E+01 -0.21745750077E+02  0.42724078869E+02  0.48339690179E+02  0.00000000000E+00 0. -1.
         13    1    4    4    0    0  0.31249102227E+02  0.33105702910E+02 -0.20562947722E+02  0.49953265901E+02  0.00000000000E+00 0.  1.
          1    1    1    2  501    0 -0.55945262547E+02  0.18777771470E+02  0.29493395002E+02  0.65972247586E+02  0.00000000000E+00 0. -1.
<scales pt_clust_5="13000.00000" pt_clust_6="13000.00000" pt_clust_7="13000.00000" pt_clust_8="13000.00000" pt_clust_9="13000.00000"></scales>
<clustering>
<clus scale="   91.340">  5  6 -1 -1</clus>
<clus scale="   91.729">  7  8 -1 -1</clus>
<clus scale="   59.013">  7  9 -1 -1</clus>
<clus scale="  101.025">  1  5  2 -1</clus>
<clus scale="  155.932">  2  5  1 -1</clus>
</clustering>
</event>
<event>
 9    1  0.3312826E-006  0.1858753E+03  0.7546771E-02  0.1182897E+00
         21   -1    0    0  501  502  0.00000000000E+00  0.00000000000E+00  0.11453455720E+03  0.11453455720E+03  0.00000000000E+00 0.  1.
          1   -1    0    0  502    0 -0.00000000000E+00 -0.00000000000E+00 -0.21946413152E+03  0.21946413152E+03  0.00000000000E+00 0. -1.
         23    2    1    2    0    0  0.71954080458E+02  0.56362809095E+01 -0.91149196613E+02  0.14761328750E+03  0.90952455970E+02 0.  0.
         23    2    1    2    0    0  0.13618917306E+02  0.16804546816E+02 -0.22919961075E+02  0.97448003684E+02  0.92211285123E+02 0.  0.
        -11    1    3    3    0    0  0.17761830170E+02  0.29394985972E+02 -0.80460657577E+02  0.87484085576E+02  0.00000000000E+00 0. -1.
         11    1    3    3    0    0  0.54192250288E+02 -0.23758705062E+02 -0.10688539035E+02  0.60129201926E+02  0.00000000000E+00 0.  1.
        -13    1    4    4    0    0  0.41110185778E+02  0.14801658050E+02  0.18700757203E+02  0.47527410783E+02  0.00000000000E+00 0.  1.
         13    1    4    4    0    0 -0.27491268472E+02  0.20028887657E+01 -0.41620718278E+02  0.49920592902E+02  0.00000000000E+00 0. -1.
          1    1    1    2  501    0 -0.85572997764E+02 -0.22440827725E+02  0.91395833743E+01  0.88937397531E+02  0.00000000000E+00 0. -1.
<scales pt_clust_5="13000.00000" pt_clust_6="13000.00000" pt_clust_7="13000.00000" pt_clust_8="13000.00000" pt_clust_9="13000.00000"></scales>
<clustering>
<clus scale="   90.952">  5  6 -1 -1</clus>
<clus scale="   92.211">  7  8 -1 -1</clus>
<clus scale="   88.467">  7  9 -1 -1</clus>
<clus scale="  116.110">  2  5  1 -1</clus>
<clus scale="  185.875">  1  5  2 -1</clus>
</clustering>
</event>
<event>
 9    1  0.3312826E-006  0.3133501E+03  0.7546771E-02  0.1116107E+00
          1   -1    0    0  502    0 -0.00000000000E+00  0.00000000000E+00  0.78812155948E+03  0.78812155948E+03  0.00000000000E+00 0. -1.
         21   -1    0    0  501  502  0.00000000000E+00 -0.00000000000E+00 -0.62560693534E+02  0.62560693534E+02  0.00000000000E+00 0. -1.
         23    2    1    2    0    0  0.38063672620E+02  0.67176363412E+02  0.11803284169E+03  0.16710448495E+03  0.89613895108E+02 0.  0.
         23    2    1    2    0    0 -0.15389664419E+03 -0.51671259698E+02  0.45345316572E+03  0.49019538113E+03  0.91201107495E+02 0.  0.
        -13    1    4    4    0    0 -0.29381312577E+02  0.17220717812E+02  0.16587561830E+03  0.16933557039E+03  0.00000000000E+00 0.  1.
         13    1    4    4    0    0 -0.12451533162E+03 -0.68891977510E+02  0.28757754742E+03  0.32085981075E+03  0.00000000000E+00 0. -1.
        -13    1    3    3    0    0 -0.16901410475E+02  0.60523650634E+02  0.65865117755E+02  0.91032871530E+02  0.00000000000E+00 0.  1.
         13    1    3    3    0    0  0.54965083095E+02  0.66527127779E+01  0.52167723940E+02  0.76071613418E+02  0.00000000000E+00 0. -1.
          1    1    1    2  501    0  0.11583297157E+03 -0.15505103714E+02  0.15407485852E+03  0.19338238693E+03  0.00000000000E+00 0. -1.
<scales pt_clust_5="13000.00000" pt_clust_6="13000.00000" pt_clust_7="13000.00000" pt_clust_8="13000.00000" pt_clust_9="13000.00000"></scales>
<clustering>
<clus scale="   89.614">  7  8 -1 -1</clus>
<clus scale="   91.201">  5  6 -1 -1</clus>
<clus scale="  116.866">  5  9 -1 -1</clus>
<clus scale="  118.289">  1  7  2 -1</clus>
<clus scale="  313.350">  2  5  1 -1</clus>
</clustering>
</event>
<event>
 9    1  0.3312826E-006  0.1433389E+03  0.7546771E-02  0.1227031E+00
         21   -1    0    0  501  502  0.00000000000E+00  0.00000000000E+00  0.77513260208E+02  0.77513260208E+02  0.00000000000E+00 0. -1.
          2   -1    0    0  502    0 -0.00000000000E+00 -0.00000000000E+00 -0.33583370444E+03  0.33583370444E+03  0.00000000000E+00 0. -1.
         23    2    1    2    0    0 -0.66877195258E+01 -0.29357360711E+02 -0.25148374075E+03  0.26984511823E+03  0.93089933652E+02 0.  0.
         23    2    1    2    0    0  0.49073258156E+01  0.52421854184E+01 -0.45439740979E+02  0.97950710486E+02  0.86475483634E+02 0.  0.
        -11    1    4    4    0    0  0.23941571191E+02  0.30917842154E+02 -0.52259208446E+02  0.65269722398E+02  0.00000000000E+00 0.  1.
         11    1    4    4    0    0 -0.19034245376E+02 -0.25675656736E+02  0.68194674666E+01  0.32680988087E+02  0.00000000000E+00 0. -1.
        -11    1    3    3    0    0  0.14570992918E+01  0.29102301048E+02 -0.35426240489E+02  0.45870312620E+02  0.00000000000E+00 0.  1.
         11    1    3    3    0    0 -0.81448188176E+01 -0.58459661759E+02 -0.21605750027E+03  0.22397480561E+03  0.00000000000E+00 0. -1.
          2    1    1    2  501    0  0.17803937103E+01  0.24115175293E+02  0.38603037498E+02  0.45551135937E+02  0.00000000000E+00 0. -1.
<scales pt_clust_5="13000.00000" pt_clust_6="13000.00000" pt_clust_7="13000.00000" pt_clust_8="13000.00000" pt_clust_9="13000.00000"></scales>
<clustering>
<clus scale="   86.475">  5  6 -1 -1</clus>
<clus scale="   24.181">  5  9 -1 -1</clus>
<clus scale="   93.090">  7  8 -1 -1</clus>
<clus scale="   97.838">  2  7  1 -1</clus>
<clus scale="  143.339">  1  5  2 -1</clus>
</clustering>
</event>
<event>
 9    1  0.3312826E-006  0.1534195E+03  0.7546771E-02  0.1217319E+00
         21   -1    0    0  501  502  0.00000000000E+00  0.00000000000E+00  0.70162028778E+02  0.70162028778E+02  0.00000000000E+00 0.  1.
          3   -1    0    0  502    0 -0.00000000000E+00 -0.00000000000E+00 -0.22495132353E+03  0.22495132353E+03  0.00000000000E+00 0. -1.
         23    2    1    2    0    0  0.46235975393E+01 -0.35663002309E+02 -0.63744057988E+02  0.11671276159E+03  0.90913895539E+02 0.  0.
         23    2    1    2    0    0  0.65332126272E+01  0.12376038831E+01 -0.12650515465E+02  0.92056425899E+02  0.90940285227E+02 0.  0.
        -13    1    3    3    0    0  0.26965081552E+01 -0.61058994287E+02 -0.16931657737E+02  0.63420446019E+02  0.00000000000E+00 0.  1.
         13    1    3    3    0    0  0.19270893841E+01  0.25395991978E+02 -0.46812400251E+02  0.53292315574E+02  0.00000000000E+00 0. -1.
        -13    1    4    4    0    0 -0.29937290204E+02  0.26288453712E+02 -0.23825514248E+02  0.46421754303E+02  0.00000000000E+00 0. -1.
         13    1    4    4    0    0  0.36470502831E+02 -0.25050849829E+02  0.11174998783E+02  0.45634671597E+02  0.00000000000E+00 0.  1.
          3    1    1    2  501    0 -0.11156810167E+02  0.34425398426E+02 -0.78394721295E+02  0.86344164810E+02  0.00000000000E+00 0. -1.
<scales pt_clust_5="13000.00000" pt_clust_6="13000.00000" pt_clust_7="13000.00000" pt_clust_8="13000.00000" pt_clust_9="13000.00000"></scales>
<clustering>
<clus scale="   90.914">  5  6 -1 -1</clus>
<clus scale="   90.940">  7  8 -1 -1</clus>
<clus scale="   36.188">  7  9 -1 -1</clus>
<clus scale="   97.768">  2  5  1 -1</clus>
<clus scale="  153.419">  1  5  2 -1</clus>
</clustering>
</event>
<event>
 9    1  0.3312826E-006  0.6299725E+03  0.7546771E-02  0.1016484E+00
         21   -1    0    0  501  502  0.00000000000E+00  0.00000000000E+00  0.24946221775E+04  0.24946221775E+04  0.00000000000E+00 0. -1.
          1   -1    0    0  502    0 -0.00000000000E+00 -0.00000000000E+00 -0.74317383183E+02  0.74317383183E+02  0.00000000000E+00 0. -1.
         23    2    1    2    0    0 -0.99773370808E+02  0.18668898936E+03  0.70461620960E+03  0.74124904547E+03  0.90325192040E+02 0.  0.
         23    2    1    2    0    0  0.20180171188E+03 -0.33593562923E+03  0.81071554213E+03  0.90483594936E+03  0.88835393305E+02 0.  0.
        -13    1    4    4    0    0  0.23022647363E+02 -0.10709967420E+03  0.26294768182E+03  0.28485411333E+03  0.00000000000E+00 0.  1.
         13    1    4    4    0    0  0.17877906452E+03 -0.22883595502E+03  0.54776786031E+03  0.61998183603E+03  0.00000000000E+00 0. -1.
        -13    1    3    3    0    0 -0.69350072487E+01  0.10570277111E+03  0.29130534020E+03  0.30996769409E+03  0.00000000000E+00 0.  1.
         13    1    3    3    0    0 -0.92838363559E+02  0.80986218243E+02  0.41331086939E+03  0.43128135139E+03  0.00000000000E+00 0. -1.
          1    1    1    2  501    0 -0.10202834107E+03  0.14924663987E+03  0.90497304257E+03  0.92285456583E+03  0.00000000000E+00 0. -1.
<scales pt_clust_5="13000.00000" pt_clust_6="13000.00000" pt_clust_7="13000.00000" pt_clust_8="13000.00000" pt_clust_9="13000.00000"></scales>
<clustering>
<clus scale="   88.835">  5  6 -1 -1</clus>
<clus scale="   90.325">  7  8 -1 -1</clus>
<clus scale="  180.788">  5  9 -1 -1</clus>
<clus scale="  230.144">  2  7  1 -1</clus>
<clus scale="  629.972">  1  5  2 -1</clus>
</clustering>
</event>
<event>
 9    1  0.3312826E-006  0.2749546E+03  0.7546771E-02  0.1139880E+00
         21   -1    0    0  501  502  0.00000000000E+00  0.00000000000E+00  0.27416495618E+03  0.27416495618E+03  0.00000000000E+00 0.  1.
         -1   -1    0    0    0  501 -0.00000000000E+00 -0.00000000000E+00 -0.12805024686E+03  0.12805024686E+03  0.00000000000E+00 0.  1.
         23    2    1    2    0    0  0.33003184904E+02  0.17507465774E+02  0.18888780846E+02  0.99252384831E+02  0.89991823413E+02 0.  0.
         23    2    1    2    0    0 -0.11072837491E+02 -0.54603194547E+02 -0.52234195141E+02  0.11840125884E+03  0.90478341983E+02 0.  0.
        -13    1    3    3    0    0  0.37704238603E+02 -0.20201618392E+02 -0.17892276499E+02  0.46366459350E+02  0.00000000000E+00 0.  1.
         13    1    3    3    0    0 -0.47010536998E+01  0.37709084166E+02  0.36781057346E+02  0.52885925481E+02  0.00000000000E+00 0. -1.
        -13    1    4    4    0    0 -0.34704717327E+00 -0.72990849400E+02 -0.13538333419E+02  0.74236588080E+02  0.00000000000E+00 0.  1.
         13    1    4    4    0    0 -0.10725790318E+02  0.18387654853E+02 -0.38695861722E+02  0.44164670760E+02  0.00000000000E+00 0. -1.
         -1    1    1    2    0  502 -0.21930347412E+02  0.37095728773E+02  0.17946012361E+03  0.18456155937E+03  0.00000000000E+00 0.  1.
<scales pt_clust_5="13000.00000" pt_clust_6="13000.00000" pt_clust_7="13000.00000" pt_clust_8="13000.00000" pt_clust_9="13000.00000"></scales>
<clustering>
<clus scale="   89.992">  5  6 -1 -1</clus>
<clus scale="   90.478">  7  8 -1 -1</clus>
<clus scale="   43.093">  7  9 -1 -1</clus>
<clus scale="   97.438">  2  5  1 -1</clus>
<clus scale="  274.955">  1  5  2 -1</clus>
</clustering>
</event>
<event>
 9    1  0.3312826E-006  0.1821517E+03  0.7546771E-02  0.1181184E+00
         21   -1    0    0  501  502  0.00000000000E+00  0.00000000000E+00  0.18124902269E+03  0.18124902269E+03  0.00000000000E+00 0.  1.
         -4   -1    0    0    0  501 -0.00000000000E+00 -0.00000000000E+00 -0.15232873974E+03  0.15232873974E+03  0.00000000000E+00 0.  1.
         23    2    1    2    0    0  0.10364282469E+02 -0.86797598496E+02 -0.46575147791E+02  0.13640070066E+03  0.93779876805E+02 0.  0.
         23    2    1    2    0    0 -0.48462957337E+02  0.92491933189E+02  0.38757747569E+02  0.14394556884E+03  0.91185239235E+02 0.  0.
        -11    1    4    4    0    0 -0.20787200622E+02  0.99491771117E+02  0.49989650617E+02  0.11326820118E+03  0.00000000000E+00 0.  1.
         11    1    4    4    0    0 -0.27675756715E+02 -0.69998379277E+01 -0.11231903048E+02  0.30677367664E+02  0.00000000000E+00 0. -1.
        -13    1    3    3    0    0  0.97731915533E+01 -0.64932662920E+02 -0.75549415790E+02  0.10009735368E+03  0.00000000000E+00 0.  1.
         13    1    3    3    0    0  0.59109091609E+00 -0.21864935576E+02  0.28974267999E+02  0.36303346985E+02  0.00000000000E+00 0. -1.
         -4    1    1    2    0  502  0.38098674867E+02 -0.56943346932E+01  0.36737683170E+02  0.53231492924E+02  0.00000000000E+00 0.  1.
<scales pt_clust_5="13000.00000" pt_clust_6="13000.00000" pt_clust_7="13000.00000" pt_clust_8="13000.00000" pt_clust_9="13000.00000"></scales>
<clustering>
<clus scale="   91.185">  5  6 -1 -1</clus>
<clus scale="   38.522">  5  9 -1 -1</clus>
<clus scale="   93.780">  7  8 -1 -1</clus>
<clus scale="  128.203">  2  7  1 -1</clus>
<clus scale="  182.152">  1  5  2 -1</clus>
</clustering>
</event>
<event>
 9    1  0.3312826E-006  0.2077388E+03  0.7546771E-02  0.1172421E+00
         -3   -1    0    0    0  501 -0.00000000000E+00  0.00000000000E+00  0.86683958367E+03  0.86683958367E+03  0.00000000000E+00 0.  1.
         21   -1    0    0  501  502  0.00000000000E+00 -0.00000000000E+00 -0.32029072351E+02  0.32029072351E+02  0.00000000000E+00 0.  1.
         23    2    1    2    0    0  0.22563213445E+02  0.42390347388E+02  0.44340403462E+03  0.45574964661E+03  0.93779327776E+02 0.  0.
         23    2    1    2    0    0 -0.50418374219E+01  0.18265015648E+02  0.36196965508E+03  0.37345841689E+03  0.89945133413E+02 0.  0.
        -13    1    4    4    0    0  0.14574252819E+02 -0.30776991960E+02  0.86329346319E+02  0.92802953160E+02  0.00000000000E+00 0. -1.
         13    1    4    4    0    0 -0.19616090241E+02  0.49042007609E+02  0.27564030876E+03  0.28065546373E+03  0.00000000000E+00 0.  1.
        -13    1    3    3    0    0  0.12137704208E+02  0.72383908118E+02  0.32239179278E+03  0.33064062375E+03  0.00000000000E+00 0.  1.
         13    1    3    3    0    0  0.10425509238E+02 -0.29993560730E+02  0.12101224184E+03  0.12510902287E+03  0.00000000000E+00 0. -1.
         -3    1    1    2    0  502 -0.17521376023E+02 -0.60655363037E+02  0.29436821616E+02  0.69660592516E+02  0.00000000000E+00 0.  1.
<scales pt_clust_5="13000.00000" pt_clust_6="13000.00000" pt_clust_7="13000.00000" pt_clust_8="13000.00000" pt_clust_9="13000.00000"></scales>
<clustering>
<clus scale="   89.945">  5  6 -1 -1</clus>
<clus scale="   63.135">  5  9 -1 -1</clus>
<clus scale="   93.779">  7  8 -1 -1</clus>
<clus scale="  105.359">  1  7  2 -1</clus>
<clus scale="  207.739">  2  5  1 -1</clus>
</clustering>
</event>
<event>
 9    1  0.3312826E-006  0.4737228E+03  0.7546771E-02  0.1062710E+00
          3   -1    0    0  502    0 -0.00000000000E+00  0.00000000000E+00  0.18942442991E+03  0.18942442991E+03  0.00000000000E+00 0. -1.
         21   -1    0    0  501  502  0.00000000000E+00 -0.00000000000E+00 -0.51310116372E+03  0.51310116372E+03  0.00000000000E+00 0. -1.
         23    2    1    2    0    0  0.78960936392E+02 -0.72888901679E+02 -0.12697995286E+03  0.18958997764E+03  0.90955097321E+02 0.  0.
         23    2    1    2    0    0 -0.30130046196E+02  0.11916031169E+00  0.13750757867E+03  0.16743243933E+03  0.90650171898E+02 0.  0.
        -13    1    3    3    0    0  0.63573974242E+02  0.16403151564E+01 -0.69615013709E+02  0.94289930366E+02  0.00000000000E+00 0.  1.
         13    1    3    3    0    0  0.15386962150E+02 -0.74529216835E+02 -0.57364939153E+02  0.95300047273E+02  0.00000000000E+00 0. -1.
        -13    1    4    4    0    0 -0.35985005852E+02 -0.36443044847E+02  0.46481016340E+02  0.69162858847E+02  0.00000000000E+00 0.  1.
         13    1    4    4    0    0  0.58549596561E+01  0.36562205158E+02  0.91026562330E+02  0.98269580482E+02  0.00000000000E+00 0. -1.
          3    1    1    2  501    0 -0.48830890196E+02  0.72769741367E+02 -0.33420435961E+03  0.34550317666E+03  0.00000000000E+00 0. -1.
<scales pt_clust_5="13000.00000" pt_clust_6="13000.00000" pt_clust_7="13000.00000" pt_clust_8="13000.00000" pt_clust_9="13000.00000"></scales>
<clustering>
<clus scale="   90.650">  7  8 -1 -1</clus>
<clus scale="   87.635">  7  9 -1 -1</clus>
<clus scale="   90.955">  5  6 -1 -1</clus>
<clus scale="  140.785">  1  5  2 -1</clus>
<clus scale="  473.723">  2  5  1 -1</clus>
</clustering>
</event>
<event>
 9    1  0.3312826E-006  0.2225505E+03  0.7546771E-02  0.1142713E+00
          2   -1    0    0  502    0 -0.00000000000E+00  0.00000000000E+00  0.25474874878E+03  0.25474874878E+03  0.00000000000E+00 0. -1.
         21   -1    0    0  501  502  0.00000000000E+00 -0.00000000000E+00 -0.65351346469E+03  0.65351346469E+03  0.00000000000E+00 0. -1.
         23    2    1    2    0    0 -0.14828982826E+02  0.14520572893E+03  0.20348548442E+03  0.26620766072E+03  0.90308215631E+02 0.  0.
         23    2    1    2    0    0  0.30972802759E+02 -0.46345694801E+02 -0.22152228632E+03  0.24836981368E+03  0.97510015253E+02 0.  0.
        -11    1    4    4    0    0  0.43280479866E+02 -0.65012507012E+01 -0.19286972625E+03  0.19777309600E+03  0.00000000000E+00 0. -1.
         11    1    4    4    0    0 -0.12307677107E+02 -0.39844444099E+02 -0.28652560066E+02  0.50596717677E+02  0.00000000000E+00 0.  1.
        -11    1    3    3    0    0  0.34419368380E+02  0.33504215036E+02  0.42247102526E+02  0.63969078598E+02  0.00000000000E+00 0.  1.
         11    1    3    3    0    0 -0.49248351206E+02  0.11170151389E+03  0.16123838189E+03  0.20223858212E+03  0.00000000000E+00 0. -1.
          2    1    1    2  501    0 -0.16143819933E+02 -0.98860034130E+02 -0.38072791401E+03  0.39368473907E+03  0.00000000000E+00 0. -1.
<scales pt_clust_5="13000.00000" pt_clust_6="13000.00000" pt_clust_7="13000.00000" pt_clust_8="13000.00000" pt_clust_9="13000.00000"></scales>
<clustering>
<clus scale="   90.308">  7  8 -1 -1</clus>
<clus scale="   97.510">  5  6 -1 -1</clus>
<clus scale="  100.170">  5  9 -1 -1</clus>
<clus scale="  171.640">  1  7  2 -1</clus>
<clus scale="  222.551">  2  5  1 -1</clus>
</clustering>
</event>
<event>
 9    1  0.3312826E-006  0.2497881E+03  0.7546771E-02  0.1153057E+00
          1   -1    0    0  502    0 -0.00000000000E+00  0.00000000000E+00  0.20644811511E+03  0.20644811511E+03  0.00000000000E+00 0. -1.
         21   -1    0    0  501  502  0.00000000000E+00 -0.00000000000E+00 -0.14502425939E+03  0.14502425939E+03  0.00000000000E+00 0.  1.
         23    2    1    2    0    0 -0.21273920573E+02  0.21029257172E+02  0.31175660240E+01  0.94969491512E+02  0.90081495027E+02 0.  0.
         23    2    1    2    0    0 -0.59231846510E+02  0.69152729407E+02  0.35766572686E+02  0.13353130871E+03  0.90889224109E+02 0.  0.
        -11    1    4    4    0    0 -0.30403182737E+02  0.45342201266E+02  0.65853407675E+02  0.85539114086E+02  0.00000000000E+00 0. -1.
         11    1    4    4    0    0 -0.28828663773E+02  0.23810528141E+02 -0.30086834989E+02  0.47992194626E+02  0.00000000000E+00 0.  1.
        -13    1    3    3    0    0 -0.43195361343E+02 -0.20311498345E+02 -0.27395729572E+01  0.47811101917E+02  0.00000000000E+00 0.  1.
         13    1    3    3    0    0  0.21921440769E+02  0.41340755517E+02  0.58571389812E+01  0.47158389594E+02  0.00000000000E+00 0. -1.
          1    1    1    2  501    0  0.80505767084E+02 -0.90181986579E+02  0.22539717016E+02  0.12297157428E+03  0.00000000000E+00 0. -1.
<scales pt_clust_5="13000.00000" pt_clust_6="13000.00000" pt_clust_7="13000.00000" pt_clust_8="13000.00000" pt_clust_9="13000.00000"></scales>
<clustering>
<clus scale="   90.081">  7  8 -1 -1</clus>
<clus scale="   90.889">  5  6 -1 -1</clus>
<clus scale="   94.918">  1  7  2 -1</clus>
<clus scale="  107.092">  5  9 -1 -1</clus>
<clus scale="  249.788">  2  5  1 -1</clus>
</clustering>
</event>
<event>
 9    1  0.3312826E-006  0.2677808E+03  0.7546771E-02  0.1110568E+00
          2   -1    0    0  502    0 -0.00000000000E+00  0.00000000000E+00  0.73137141283E+03  0.73137141283E+03  0.00000000000E+00 0. -1.
         21   -1    0    0  501  502  0.00000000000E+00 -0.00000000000E+00 -0.88647095683E+02  0.88647095683E+02  0.00000000000E+00 0. -1.
         23    2    1    2    0    0  0.20059885726E+03  0.16902766651E+00  0.41370736399E+03  0.46766168453E+03  0.85520395534E+02 0.  0.
         23    2    1    2    0    0 -0.87840592534E+02 -0.42214055535E+02  0.61903461987E+02  0.14642205382E+03  0.90052113012E+02 0.  0.
        -13    1    4    4    0    0 -0.11726499899E+02 -0.41257128147E+02  0.55345612326E+02  0.70019984479E+02  0.00000000000E+00 0. -1.
         13    1    4    4    0    0 -0.76114092634E+02 -0.95692738824E+00  0.65578496619E+01  0.76402069342E+02  0.00000000000E+00 0.  1.
        -13    1    3    3    0    0  0.28067005895E+02  0.26634928218E+02  0.42572573804E+02  0.57529125331E+02  0.00000000000E+00 0.  1.
         13    1    3    3    0    0  0.17253185136E+03 -0.26465900551E+02  0.37113479019E+03  0.41013255920E+03  0.00000000000E+00 0. -1.
          2    1    1    2  501    0 -0.11275826472E+03  0.42045027869E+02  0.16711349116E+03  0.20593477016E+03  0.00000000000E+00 0. -1.
<scales pt_clust_5="13000.00000" pt_clust_6="13000.00000" pt_clust_7="13000.00000" pt_clust_8="13000.00000" pt_clust_9="13000.00000"></scales>
<clustering>
<clus scale="   85.520">  7  8 -1 -1</clus>
<clus scale="   90.052">  5  6 -1 -1</clus>
<clus scale="  120.342">  5  9 -1 -1</clus>
<clus scale="  218.068">  1  7  2 -1</clus>
<clus scale="  267.781">  2  5  1 -1</clus>
</clustering>
</event>
<event>
 9    1  0.3312826E-006  0.1577571E+03  0.7546771E-02  0.1211589E+00
         -1   -1    0    0    0  501 -0.00000000000E+00  0.00000000000E+00  0.48489280319E+03  0.48489280319E+03  0.00000000000E+00 0.  1.
         21   -1    0    0  501  502  0.00000000000E+00 -0.00000000000E+00 -0.37745693054E+02  0.37745693054E+02  0.00000000000E+00 0. -1.
         23    2    1    2    0    0 -0.61658084499E+01  0.44369937283E+02  0.25209876303E+03  0.27177764733E+03  0.91118575153E+02 0.  0.
         23    2    1    2    0    0  0.37260682115E+02  0.26051416860E+01  0.13959632984E+03  0.17181355022E+03  0.92938773069E+02 0.  0.
        -13    1    3    3    0    0  0.29908081731E+02  0.56118359512E+02  0.15924463976E+03  0.17147191875E+03  0.00000000000E+00 0.  1.
         13    1    3    3    0    0 -0.36073890181E+02 -0.11748422229E+02  0.92854123271E+02  0.10030572858E+03  0.00000000000E+00 0. -1.
        -13    1    4    4    0    0 -0.20646713842E+02  0.26454902178E+02  0.27405667762E+02  0.43326888501E+02  0.00000000000E+00 0.  1.
         13    1    4    4    0    0  0.57907395957E+02 -0.23849760492E+02  0.11219066208E+03  0.12848666172E+03  0.00000000000E+00 0. -1.
         -1    1    1    2    0  502 -0.31094873665E+02 -0.46975078969E+02  0.55452017269E+02  0.79047298698E+02  0.00000000000E+00 0.  1.
<scales pt_clust_5="13000.00000" pt_clust_6="13000.00000" pt_clust_7="13000.00000" pt_clust_8="13000.00000" pt_clust_9="13000.00000"></scales>
<clustering>
<clus scale="   91.119">  5  6 -1 -1</clus>
<clus scale="   92.939">  7  8 -1 -1</clus>
<clus scale="   56.334">  7  9 -1 -1</clus>
<clus scale="  101.535">  1  5  2 -1</clus>
<clus scale="  157.757">  2  5  1 -1</clus>
</clustering>
</event>
<event>
 9    1  0.3312826E-006  0.2599665E+03  0.7546771E-02  0.1141956E+00
          1   -1    0    0  502    0 -0.00000000000E+00  0.00000000000E+00  0.41536397295E+02  0.41536397295E+02  0.00000000000E+00 0. -1.
         21   -1    0    0  501  502  0.00000000000E+00 -0.00000000000E+00 -0.87636488435E+03  0.87636488435E+03  0.00000000000E+00 0. -1.
         23    2    1    2    0    0  0.51292249688E+02 -0.25816460878E+02 -0.15337850694E+03  0.18854769037E+03  0.93423126800E+02 0.  0.
         23    2    1    2    0    0  0.52220178066E+02  0.48293196417E+02 -0.15846309745E+03  0.19574764512E+03  0.90262990744E+02 0.  0.
        -11    1    4    4    0    0  0.16346387528E+02  0.50642398120E+02 -0.27422976155E+02  0.59865486665E+02  0.00000000000E+00 0. -1.
         11    1    4    4    0    0  0.35873790539E+02 -0.23492017024E+01 -0.13104012130E+03  0.13588215845E+03  0.00000000000E+00 0.  1.
        -11    1    3    3    0    0 -0.22280585984E+02  0.11254221266E+02 -0.53789795832E+02  0.59299444717E+02  0.00000000000E+00 0.  1.
         11    1    3    3    0    0  0.73572835672E+02 -0.37070682144E+02 -0.99588711111E+02  0.12924824565E+03  0.00000000000E+00 0. -1.
          1    1    1    2  501    0 -0.10351242775E+03 -0.22476735540E+02 -0.52298688265E+03  0.53360594615E+03  0.00000000000E+00 0. -1.
<scales pt_clust_5="13000.00000" pt_clust_6="13000.00000" pt_clust_7="13000.00000" pt_clust_8="13000.00000" pt_clust_9="13000.00000"></scales>
<clustering>
<clus scale="   90.263">  5  6 -1 -1</clus>
<clus scale="   93.423">  7  8 -1 -1</clus>
<clus scale="  105.925">  5  9 -1 -1</clus>
<clus scale="  109.660">  1  7  2 -1</clus>
<clus scale="  259.967">  2  5  1 -1</clus>
</clustering>
</event>
<event>
 9    1  0.3312826E-006  0.1944891E+03  0.7546771E-02  0.1184155E+00
         -1   -1    0    0    0  501 -0.00000000000E+00  0.00000000000E+00  0.31650051543E+03  0.31650051543E+03  0.00000000000E+00 0.  1.
         21   -1    0    0  501  502  0.00000000000E+00 -0.00000000000E+00 -0.11540703490E+03  0.11540703490E+03  0.00000000000E+00 0.  1.
         23    2    1    2    0    0 -0.38104146307E+02  0.27599055686E+02 -0.53023155994E+02  0.11190558751E+03  0.86589673772E+02 0.  0.
         23    2    1    2    0    0 -0.79100830434E+00  0.31947114127E+02  0.22034811684E+03  0.24126891822E+03  0.92930912553E+02 0.  0.
        -11    1    3    3    0    0  0.53491467906E+01 -0.27464742246E+02 -0.10544864016E+02  0.29901832638E+02  0.00000000000E+00 0. -1.
         11    1    3    3    0    0 -0.43453293097E+02  0.55063797932E+02 -0.42478291978E+02  0.82003754872E+02  0.00000000000E+00 0.  1.
        -11    1    4    4    0    0  0.20881402275E+02 -0.27688512695E+02  0.84134558849E+02  0.91001707066E+02  0.00000000000E+00 0. -1.
         11    1    4    4    0    0 -0.21672410580E+02  0.59635626822E+02  0.13621355799E+03  0.15026721115E+03  0.00000000000E+00 0.  1.
         -1    1    1    2    0  502  0.38895154611E+02 -0.59546169813E+02  0.33768519681E+02  0.78733044607E+02  0.00000000000E+00 0.  1.
<scales pt_clust_5="13000.00000" pt_clust_6="13000.00000" pt_clust_7="13000.00000" pt_clust_8="13000.00000" pt_clust_9="13000.00000"></scales>
<clustering>
<clus scale="   86.590">  5  6 -1 -1</clus>
<clus scale="   92.931">  7  8 -1 -1</clus>
<clus scale="   71.124">  7  9 -1 -1</clus>
<clus scale="   98.547">  1  5  2 -1</clus>
<clus scale="  194.489">  2  5  1 -1</clus>
</clustering>
</event>
<event>
 9    1  0.3312826E-006  0.1804588E+03  0.7546771E-02  0.1192632E+00
         21   -1    0    0  501  502  0.00000000000E+00  0.00000000000E+00  0.43899369059E+02  0.43899369059E+02  0.00000000000E+00 0.  1.
         -1   -1    0    0    0  501 -0.00000000000E+00 -0.00000000000E+00 -0.45725522444E+03  0.45725522444E+03  0.00000000000E+00 0.  1.
         23    2    1    2    0    0 -0.45585264400E+02 -0.12120909788E+02 -0.16617039288E+03  0.19510549763E+03  0.90711757519E+02 0.  0.
         23    2    1    2    0    0  0.15095385154E+02 -0.35761174921E+02 -0.22258657768E+03  0.24418285380E+03  0.92594542196E+02 0.  0.
        -11    1    3    3    0    0 -0.35545289031E+02 -0.42786042573E+02 -0.14792423540E+03  0.15803699703E+03  0.00000000000E+00 0.  1.
         11    1    3    3    0    0 -0.10039975370E+02  0.30665132785E+02 -0.18246157477E+02  0.37068500601E+02  0.00000000000E+00 0. -1.
        -13    1    4    4    0    0 -0.22164308464E+02  0.18076618445E+02 -0.11267118164E+03  0.11624463806E+03  0.00000000000E+00 0. -1.
         13    1    4    4    0    0  0.37259693617E+02 -0.53837793366E+02 -0.10991539603E+03  0.12793821575E+03  0.00000000000E+00 0.  1.
         -1    1    1    2    0  502  0.30489879247E+02  0.47882084709E+02 -0.24598884826E+02  0.61866242065E+02  0.00000000000E+00 0.  1.
<scales pt_clust_5="13000.00000" pt_clust_6="13000.00000" pt_clust_7="13000.00000" pt_clust_8="13000.00000" pt_clust_9="13000.00000"></scales>
<clustering>
<clus scale="   90.712">  5  6 -1 -1</clus>
<clus scale="   92.595">  7  8 -1 -1</clus>
<clus scale="   56.766">  7  9 -1 -1</clus>
<clus scale="  102.243">  2  5  1 -1</clus>
<clus scale="  180.459">  1  5  2 -1</clus>
</clustering>
</event>
<event>
 9    1  0.3312826E-006  0.1505560E+03  0.7546771E-02  0.1221713E+00
         21   -1    0    0  501  502  0.00000000000E+00  0.00000000000E+00  0.15973600171E+03  0.15973600171E+03  0.00000000000E+00 0. -1.
          2   -1    0    0  502    0 -0.00000000000E+00 -0.00000000000E+00 -0.94976844657E+02  0.94976844657E+02  0.00000000000E+00 0. -1.
         23    2    1    2    0    0 -0.91851685557E+01 -0.19127821496E+02  0.38504813629E+02  0.10188483221E+03  0.91911139071E+02 0.  0.
         23    2    1    2    0    0  0.34189166781E+02  0.25009607447E+02 -0.18425224793E+02  0.10129104539E+03  0.90144369642E+02 0.  0.
        -13    1    4    4    0    0  0.21128619197E+02  0.46017186727E+02 -0.42994141488E+02  0.66426622868E+02  0.00000000000E+00 0. -1.
         13    1    4    4    0    0  0.13060547585E+02 -0.21007579279E+02  0.24568916695E+02  0.34864422524E+02  0.00000000000E+00 0.  1.
        -13    1    3    3    0    0  0.17258963926E+02  0.29687294564E+02  0.32091993656E-01  0.34339602855E+02  0.00000000000E+00 0. -1.
         13    1    3    3    0    0 -0.26444132482E+02 -0.48815116060E+02  0.38472721635E+02  0.67545229356E+02  0.00000000000E+00 0.  1.
          2    1    1    2  501    0 -0.25003998226E+02 -0.58817859513E+01  0.44679568221E+02  0.51536968767E+02  0.00000000000E+00 0. -1.
<scales pt_clust_5="13000.00000" pt_clust_6="13000.00000" pt_clust_7="13000.00000" pt_clust_8="13000.00000" pt_clust_9="13000.00000"></scales>
<clustering>
<clus scale="   90.144">  5  6 -1 -1</clus>
<clus scale="   25.686">  5  9 -1 -1</clus>
<clus scale="   91.911">  7  8 -1 -1</clus>
<clus scale="   94.329">  2  7  1 -1</clus>
<clus scale="  150.556">  1  5  2 -1</clus>
</clustering>
</event>
<event>
 9    1  0.3312826E-006  0.3572497E+03  0.7546771E-02  0.1091633E+00
          2   -1    0    0  502    0 -0.00000000000E+00  0.00000000000E+00  0.10028172073E+04  0.10028172073E+04  0.00000000000E+00 0. -1.
         21   -1    0    0  501  502  0.00000000000E+00 -0.00000000000E+00 -0.85947769666E+02  0.85947769666E+02  0.00000000000E+00 0. -1.
         23    2    1    2    0    0  0.72446131532E+02 -0.94297827649E+02  0.62031962684E+02  0.16227996484E+03  0.91358088418E+02 0.  0.
         23    2    1    2    0    0 -0.10836306638E+03  0.19725772311E+03  0.65707865526E+03  0.70065472841E+03  0.92257930638E+02 0.  0.
        -13    1    3    3    0    0 -0.53551248149E+01 -0.63707432522E+02  0.41421240052E+02  0.76177644016E+02  0.00000000000E+00 0.  1.
         13    1    3    3    0    0  0.77801256347E+02 -0.30590395127E+02  0.20610722632E+02  0.86102320820E+02  0.00000000000E+00 0. -1.
        -13    1    4    4    0    0 -0.82622473877E+02  0.93726626642E+02  0.24538714685E+03  0.27536522215E+03  0.00000000000E+00 0.  1.
         13    1    4    4    0    0 -0.25740592501E+02  0.10353109647E+03  0.41169150841E+03  0.42528950626E+03  0.00000000000E+00 0. -1.
          2    1    1    2  501    0  0.35916934846E+02 -0.10295989546E+03  0.19775881971E+03  0.22583028374E+03  0.00000000000E+00 0. -1.
<scales pt_clust_5="13000.00000" pt_clust_6="13000.00000" pt_clust_7="13000.00000" pt_clust_8="13000.00000" pt_clust_9="13000.00000"></scales>
<clustering>
<clus scale="   91.358">  5  6 -1 -1</clus>
<clus scale="   92.258">  7  8 -1 -1</clus>
<clus scale="  109.045">  7  9 -1 -1</clus>
<clus scale="  149.956">  1  5  2 -1</clus>
<clus scale="  357.250">  2  5  1 -1</clus>
</clustering>
</event>
<event>
 9    1  0.3312826E-006  0.3713856E+03  0.7546771E-02  0.1087589E+00
         -1   -1    0    0    0  501 -0.00000000000E+00  0.00000000000E+00  0.92437253963E+02  0.92437253963E+02  0.00000000000E+00 0.  1.
         21   -1    0    0  501  502  0.00000000000E+00 -0.00000000000E+00 -0.75929604712E+03  0.75929604712E+03  0.00000000000E+00 0.  1.
         23    2    1    2    0    0 -0.95511016044E+02  0.66145337941E+02 -0.12139775907E+03  0.19184316625E+03  0.92567945916E+02 0.  0.
         23    2    1    2    0    0  0.13200082065E+03  0.92892095844E+02 -0.18224909418E+03  0.26171011968E+03  0.96043200116E+02 0.  0.
        -13    1    3    3    0    0 -0.85733922205E+02  0.88241833000E+02 -0.91092317532E+02  0.15308408415E+03  0.00000000000E+00 0.  1.
         13    1    3    3    0    0 -0.97770938397E+01 -0.22096495059E+02 -0.30305441542E+02  0.38759082096E+02  0.00000000000E+00 0. -1.
        -13    1    4    4    0    0  0.65307089281E+02  0.85223755352E+02 -0.15653856384E+03  0.18982209132E+03  0.00000000000E+00 0.  1.
         13    1    4    4    0    0  0.66693731370E+02  0.76683404916E+01 -0.25710530348E+02  0.71888028355E+02  0.00000000000E+00 0. -1.
         -1    1    1    2    0  502 -0.36489804606E+02 -0.15903743379E+03 -0.36321193989E+03  0.39818001515E+03  0.00000000000E+00 0.  1.
<scales pt_clust_5="13000.00000" pt_clust_6="13000.00000" pt_clust_7="13000.00000" pt_clust_8="13000.00000" pt_clust_9="13000.00000"></scales>
<clustering>
<clus scale="   92.568">  5  6 -1 -1</clus>
<clus scale="   96.043">  7  8 -1 -1</clus>
<clus scale="  148.548">  1  5  2 -1</clus>
<clus scale="  153.576">  7  9 -1 -1</clus>
<clus scale="  371.386">  2  5  1 -1</clus>
</clustering>
</event>
<event>
 9    1  0.3312826E-006  0.2853697E+03  0.7546771E-02  0.1103512E+00
         21   -1    0    0  501  502  0.00000000000E+00  0.00000000000E+00  0.35346941468E+03  0.35346941468E+03  0.00000000000E+00 0. -1.
          1   -1    0    0  502    0 -0.00000000000E+00 -0.00000000000E+00 -0.60149314214E+03  0.60149314214E+03  0.00000000000E+00 0. -1.
         23    2    1    2    0    0 -0.18621261729E+03  0.55770107060E+02 -0.51858594055E+03  0.56171989561E+03  0.93874489108E+02 0.  0.
         23    2    1    2    0    0  0.19379301085E+03  0.15279361565E+02  0.18513421767E+03  0.28187196597E+03  0.85953107588E+02 0.  0.
        -11    1    3    3    0    0 -0.15205098386E+03  0.33289367383E+02 -0.28643898645E+03  0.32599843041E+03  0.00000000000E+00 0. -1.
         11    1    3    3    0    0 -0.34161633430E+02  0.22480739677E+02 -0.23214695410E+03  0.23572146519E+03  0.00000000000E+00 0.  1.
        -13    1    4    4    0    0  0.31902347467E+02 -0.61989936730E+01  0.83296732105E+02  0.89412151723E+02  0.00000000000E+00 0.  1.
         13    1    4    4    0    0  0.16189066338E+03  0.21478355238E+02  0.10183748557E+03  0.19245981425E+03  0.00000000000E+00 0. -1.
          1    1    1    2  501    0 -0.75803935554E+01 -0.71049468625E+02  0.85427995418E+02  0.11137069525E+03  0.00000000000E+00 0. -1.
<scales pt_clust_5="13000.00000" pt_clust_6="13000.00000" pt_clust_7="13000.00000" pt_clust_8="13000.00000" pt_clust_9="13000.00000"></scales>
<clustering>
<clus scale="   85.953">  7  8 -1 -1</clus>
<clus scale="   71.453">  7  9 -1 -1</clus>
<clus scale="   93.874">  5  6 -1 -1</clus>
<clus scale="  215.865">  2  5  1 -1</clus>
<clus scale="  285.370">  1  5  2 -1</clus>
</clustering>
</event>
<event>
 9    1  0.3312826E-006  0.3476105E+03  0.7546771E-02  0.1103873E+00
         21   -1    0    0  501  502  0.00000000000E+00  0.00000000000E+00  0.36905678834E+03  0.36905678834E+03  0.00000000000E+00 0.  1.
          1   -1    0    0  502    0 -0.00000000000E+00 -0.00000000000E+00 -0.24797234880E+03  0.24797234880E+03  0.00000000000E+00 0. -1.
         23    2    1    2    0    0  0.11676305209E+01  0.75271811178E+02 -0.13925312603E+03  0.18273811577E+03  0.91293904109E+02 0.  0.
         23    2    1    2    0    0  0.42947015244E+02 -0.18045581759E+03  0.81237496049E+02  0.22195493853E+03  0.90860969354E+02 0.  0.
        -11    1    4    4    0    0  0.52603126053E+02 -0.16127949323E+03  0.96912118216E+02  0.19537175452E+03  0.00000000000E+00 0.  1.
         11    1    4    4    0    0 -0.96561108092E+01 -0.19176324358E+02 -0.15674622166E+02  0.26583184006E+02  0.00000000000E+00 0. -1.
        -13    1    3    3    0    0  0.38272105681E+02  0.47918925005E+02 -0.39767852748E+02  0.73092130624E+02  0.00000000000E+00 0.  1.
         13    1    3    3    0    0 -0.37104475160E+02  0.27352886173E+02 -0.99485273285E+02  0.10964598515E+03  0.00000000000E+00 0. -1.
          1    1    1    2  501    0 -0.44114645765E+02  0.10518400641E+03  0.17910006952E+03  0.21233608284E+03  0.00000000000E+00 0. -1.
<scales pt_clust_5="13000.00000" pt_clust_6="13000.00000" pt_clust_7="13000.00000" pt_clust_8="13000.00000" pt_clust_9="13000.00000"></scales>
<clustering>
<clus scale="   90.861">  5  6 -1 -1</clus>
<clus scale="   91.294">  7  8 -1 -1</clus>
<clus scale="  114.060">  5  9 -1 -1</clus>
<clus scale="  118.329">  2  7  1 -1</clus>
<clus scale="  347.610">  1  5  2 -1</clus>
</clustering>
</event>
<event>
 9    1  0.3312826E-006  0.4865683E+03  0.7546771E-02  0.1057949E+00
         21   -1    0    0  501  502  0.00000000000E+00  0.00000000000E+00  0.15688229097E+03  0.15688229097E+03  0.00000000000E+00 0. -1.
          2   -1    0    0  502    0 -0.00000000000E+00 -0.00000000000E+00 -0.71709901853E+03  0.71709901853E+03  0.00000000000E+00 0. -1.
         23    2    1    2    0    0 -0.21589354528E+02  0.11412510818E+03 -0.26813779218E+03  0.30647901510E+03  0.92416830461E+02 0.  0.
         23    2    1    2    0    0  0.13344906766E+03 -0.25363612472E+03 -0.13514777354E+03  0.32958779565E+03  0.90682175354E+02 0.  0.
        -11    1    3    3    0    0 -0.32244900294E+01  0.49738108498E+02 -0.21583989501E+03  0.22152006015E+03  0.00000000000E+00 0. -1.
         11    1    3    3    0    0 -0.18364864499E+02  0.64386999683E+02 -0.52297897170E+02  0.84958954941E+02  0.00000000000E+00 0.  1.
        -13    1    4    4    0    0  0.13153982626E+03 -0.20569324367E+03 -0.81003657112E+02  0.25724313179E+03  0.00000000000E+00 0. -1.
         13    1    4    4    0    0  0.19092413924E+01 -0.47942881052E+02 -0.54144116425E+02  0.72344663865E+02  0.00000000000E+00 0.  1.
          2    1    1    2  501    0 -0.11185971313E+03  0.13951101654E+03 -0.15693116185E+03  0.23791449875E+03  0.00000000000E+00 0. -1.
<scales pt_clust_5="13000.00000" pt_clust_6="13000.00000" pt_clust_7="13000.00000" pt_clust_8="13000.00000" pt_clust_9="13000.00000"></scales>
<clustering>
<clus scale="   90.682">  7  8 -1 -1</clus>
<clus scale="   92.417">  5  6 -1 -1</clus>
<clus scale="  148.430">  2  5  1 -1</clus>
<clus scale="  227.307">  7  9 -1 -1</clus>
<clus scale="  486.568">  1  5  2 -1</clus>
</clustering>
</event>
<event>
 9    1  0.3312826E-006  0.2464533E+03  0.7546771E-02  0.1126439E+00
         -1   -1    0    0    0  501 -0.00000000000E+00  0.00000000000E+00  0.39571114580E+03  0.39571114580E+03  0.00000000000E+00 0.  1.
         21   -1    0    0  501  502  0.00000000000E+00 -0.00000000000E+00 -0.16029214060E+03  0.16029214060E+03  0.00000000000E+00 0. -1.
         23    2    1    2    0    0  0.11417378193E+03  0.10126506128E+03 -0.33936834880E+02  0.19091182681E+03  0.10956893601E+03 0.  0.
         23    2    1    2    0    0 -0.42952577513E+02  0.26847106666E+01  0.19351487695E+03  0.21802050143E+03  0.90734777545E+02 0.  0.
        -11    1    3    3    0    0  0.91856776950E+02  0.66777636823E+02 -0.72364916668E+02  0.13466106124E+03  0.00000000000E+00 0. -1.
         11    1    3    3    0    0  0.22317004979E+02  0.34487424457E+02  0.38428081788E+02  0.56250765567E+02  0.00000000000E+00 0.  1.
        -13    1    4    4    0    0 -0.55427282635E+01 -0.37067539222E+02  0.12454752276E+03  0.13006463672E+03  0.00000000000E+00 0. -1.
         13    1    4    4    0    0 -0.37409849249E+02  0.39752249889E+02  0.68967354194E+02  0.87955864708E+02  0.00000000000E+00 0.  1.
         -1    1    1    2    0  502 -0.71221204416E+02 -0.10394977195E+03  0.75840963128E+02  0.14707095816E+03  0.00000000000E+00 0.  1.
<scales pt_clust_5="13000.00000" pt_clust_6="13000.00000" pt_clust_7="13000.00000" pt_clust_8="13000.00000" pt_clust_9="13000.00000"></scales>
<clustering>
<clus scale="   90.735">  7  8 -1 -1</clus>
<clus scale="  109.569">  5  6 -1 -1</clus>
<clus scale="  126.008">  7  9 -1 -1</clus>
<clus scale="  187.871">  1  5  2 -1</clus>
<clus scale="  246.453">  2  5  1 -1</clus>
</clustering>
</event>
<event>
 9    1  0.3312826E-006  0.1637031E+03  0.7546771E-02  0.1202427E+00
          3   -1    0    0  502    0 -0.00000000000E+00  0.00000000000E+00  0.37441005184E+03  0.37441005184E+03  0.00000000000E+00 0. -1.
         21   -1    0    0  501  502  0.00000000000E+00 -0.00000000000E+00 -0.51873051530E+02  0.51873051530E+02  0.00000000000E+00 0.  1.
         23    2    1    2    0    0  0.60757790377E+02 -0.94773863754E+01  0.93972743329E+02  0.14514196871E+03  0.91945552632E+02 0.  0.
         23    2    1    2    0    0 -0.11053317186E+02 -0.17626242592E+02  0.84508040837E+02  0.12635956351E+03  0.91609333994E+02 0.  0.
        -11    1    4    4    0    0 -0.17729395831E+02  0.34103252064E+02  0.52837337899E+02  0.65338714053E+02  0.00000000000E+00 0. -1.
         11    1    4    4    0    0  0.66760786452E+01 -0.51729494656E+02  0.31670702938E+02  0.61020849453E+02  0.00000000000E+00 0.  1.
        -11    1    3    3    0    0 -0.87675114990E+01  0.28357730180E+02  0.14719274401E+02  0.33131362148E+02  0.00000000000E+00 0. -1.
         11    1    3    3    0    0  0.69525301876E+02 -0.37835116556E+02  0.79253468928E+02  0.11201060656E+03  0.00000000000E+00 0.  1.
          3    1    1    2  501    0 -0.49704473191E+02  0.27103628967E+02  0.14405621614E+03  0.15478157115E+03  0.00000000000E+00 0. -1.
<scales pt_clust_5="13000.00000" pt_clust_6="13000.00000" pt_clust_7="13000.00000" pt_clust_8="13000.00000" pt_clust_9="13000.00000"></scales>
<clustering>
<clus scale="   91.609">  5  6 -1 -1</clus>
<clus scale="   56.614">  5  9 -1 -1</clus>
<clus scale="   91.946">  7  8 -1 -1</clus>
<clus scale="  110.613">  1  7  2 -1</clus>
<clus scale="  163.703">  2  5  1 -1</clus>
</clustering>
</event>
<event>
 9    1  0.3312826E-006  0.5392756E+03  0.7546771E-02  0.1059040E+00
          1   -1    0    0  502    0 -0.00000000000E+00  0.00000000000E+00  0.64416148969E+03  0.64416148969E+03  0.00000000000E+00 0. -1.
         21   -1    0    0  501  502  0.00000000000E+00 -0.00000000000E+00 -0.17716997830E+03  0.17716997830E+03  0.00000000000E+00 0. -1.
         23    2    1    2    0    0  0.29411473594E+02  0.45312025668E+02  0.18423912977E+03  0.21242496990E+03  0.90896074992E+02 0.  0.
         23    2    1    2    0    0  0.73886524987E+02 -0.62894465854E+02  0.41755297599E+03  0.43817038897E+03  0.90707604993E+02 0.  0.
        -11    1    3    3    0    0  0.61398496474E+02  0.29705792453E+02  0.10075510078E+03  0.12167086671E+03  0.00000000000E+00 0. -1.
         11    1    3    3    0    0 -0.31987022880E+02  0.15606233215E+02  0.83484028992E+02  0.90754103183E+02  0.00000000000E+00 0.  1.
        -13    1    4    4    0    0 -0.84147746123E+01 -0.46434126742E+02  0.11814722778E+03  0.12722304819E+03  0.00000000000E+00 0.  1.
         13    1    4    4    0    0  0.82301299600E+02 -0.16460339112E+02  0.29940574820E+03  0.31094734078E+03  0.00000000000E+00 0. -1.
          1    1    1    2  501    0 -0.10329799858E+03  0.17582440186E+02 -0.13480059437E+03  0.17073610912E+03  0.00000000000E+00 0. -1.
<scales pt_clust_5="13000.00000" pt_clust_6="13000.00000" pt_clust_7="13000.00000" pt_clust_8="13000.00000" pt_clust_9="13000.00000"></scales>
<clustering>
<clus scale="   90.708">  7  8 -1 -1</clus>
<clus scale="   90.896">  5  6 -1 -1</clus>
<clus scale="  104.784">  7  9 -1 -1</clus>
<clus scale="  105.737">  1  5  2 -1</clus>
<clus scale="  539.276">  2  5  1 -1</clus>
</clustering>
</event>
<event>
 9    1  0.3312826E-006  0.1380385E+03  0.7546771E-02  0.1236371E+00
         21   -1    0    0  501  502  0.00000000000E+00  0.00000000000E+00  0.61657232668E+02  0.61657232668E+02  0.00000000000E+00 0.  1.
         -3   -1    0    0    0  501 -0.00000000000E+00 -0.00000000000E+00 -0.33101088690E+03  0.33101088690E+03  0.00000000000E+00 0.  1.
         23    2    1    2    0    0  0.39098881583E+01 -0.12276424097E+02 -0.23301068871E+03  0.24992553942E+03  0.89458350025E+02 0.  0.
         23    2    1    2    0    0  0.32124778507E+02  0.22782656375E+01 -0.30391911510E+02  0.10487603266E+03  0.95069038352E+02 0.  0.
        -11    1    4    4    0    0  0.38469209815E+02 -0.35189999723E+02  0.57243495466E+01  0.52449827092E+02  0.00000000000E+00 0.  1.
         11    1    4    4    0    0 -0.63444313080E+01  0.37468265360E+02 -0.36116261057E+02  0.52426205570E+02  0.00000000000E+00 0. -1.
        -13    1    3    3    0    0 -0.14095480020E+02 -0.47409673758E+02 -0.15126748712E+03  0.15914839736E+03  0.00000000000E+00 0.  1.
         13    1    3    3    0    0  0.18005368178E+02  0.35133249661E+02 -0.81743201587E+02  0.90777142060E+02  0.00000000000E+00 0. -1.
         -3    1    1    2    0  502 -0.36034666665E+02  0.99981584597E+01 -0.59510540099E+01  0.37866547480E+02  0.00000000000E+00 0.  1.
<scales pt_clust_5="13000.00000" pt_clust_6="13000.00000" pt_clust_7="13000.00000" pt_clust_8="13000.00000" pt_clust_9="13000.00000"></scales>
<clustering>
<clus scale="   89.458">  7  8 -1 -1</clus>
<clus scale="   90.381">  2  7  1 -1</clus>
<clus scale="   95.069">  5  6 -1 -1</clus>
<clus scale="   35.769">  5  9 -1 -1</clus>
<clus scale="  138.039">  1  5  2 -1</clus>
</clustering>
</event>
<event>
 9    1  0.3312826E-006  0.2069954E+03  0.7546771E-02  0.1173020E+00
         21   -1    0    0  501  502  0.00000000000E+00  0.00000000000E+00  0.43688609166E+02  0.43688609166E+02  0.00000000000E+00 0.  1.
          1   -1    0    0  502    0 -0.00000000000E+00 -0.00000000000E+00 -0.70512951829E+03  0.70512951829E+03  0.00000000000E+00 0. -1.
         23    2    1    2    0    0  0.31499191933E+02  0.41953589575E+02 -0.40943488171E+03  0.42269828509E+03  0.91019860956E+02 0.  0.
         23    2    1    2    0    0 -0.52073050781E+02  0.26508575311E+02 -0.68302061903E+02  0.12899678782E+03  0.92524009991E+02 0.  0.
        -11    1    3    3    0    0  0.34459457124E+02  0.69369022586E+02 -0.30598576476E+03  0.31563713931E+03  0.00000000000E+00 0.  1.
         11    1    3    3    0    0 -0.29602651901E+01 -0.27415433012E+02 -0.10344911695E+03  0.10706114578E+03  0.00000000000E+00 0. -1.
        -13    1    4    4    0    0 -0.47575223437E+02  0.53820509311E+02 -0.71230602944E+02  0.10116248269E+03  0.00000000000E+00 0.  1.
         13    1    4    4    0    0 -0.44978273445E+01 -0.27311934000E+02  0.29285410403E+01  0.27834305133E+02  0.00000000000E+00 0. -1.
          1    1    1    2  501    0  0.20573858848E+02 -0.68462164886E+02 -0.18370396551E+03  0.19712305455E+03  0.00000000000E+00 0. -1.
<scales pt_clust_5="13000.00000" pt_clust_6="13000.00000" pt_clust_7="13000.00000" pt_clust_8="13000.00000" pt_clust_9="13000.00000"></scales>
<clustering>
<clus scale="   91.020">  5  6 -1 -1</clus>
<clus scale="   92.524">  7  8 -1 -1</clus>
<clus scale="   71.487">  7  9 -1 -1</clus>
<clus scale="  105.057">  2  5  1 -1</clus>
<clus scale="  206.995">  1  5  2 -1</clus>
</clustering>
</event>
<event>
 9    1  0.3312826E-006  0.1556773E+03  0.7546771E-02  0.1205332E+00
          2   -1    0    0  502    0 -0.00000000000E+00  0.00000000000E+00  0.36417903370E+03  0.36417903370E+03  0.00000000000E+00 0. -1.
         21   -1    0    0  501  502  0.00000000000E+00 -0.00000000000E+00 -0.65426053221E+02  0.65426053221E+02  0.00000000000E+00 0. -1.
         23    2    1    2    0    0  0.57603948740E+02 -0.53837372869E+02  0.22922017410E+03  0.25910511914E+03  0.91525389494E+02 0.  0.
         23    2    1    2    0    0 -0.17658860640E+02  0.54417091640E+02  0.75499514639E+02  0.13010754591E+03  0.89189357950E+02 0.  0.
        -11    1    3    3    0    0  0.84330994452E+01  0.25831440163E+02  0.52945801146E+02  0.59511665463E+02  0.00000000000E+00 0.  1.
         11    1    3    3    0    0  0.49170849295E+02 -0.79668813032E+02  0.17627437295E+03  0.19959345368E+03  0.00000000000E+00 0. -1.
        -13    1    4    4    0    0 -0.46076135234E+02  0.60178944958E+02  0.45575890913E+02  0.88440248116E+02  0.00000000000E+00 0. -1.
         13    1    4    4    0    0  0.28417274594E+02 -0.57618533171E+01  0.29923623725E+02  0.41667297799E+02  0.00000000000E+00 0.  1.
          2    1    1    2  501    0 -0.39945088100E+02 -0.57971877165E+00 -0.59667082558E+01  0.40392421871E+02  0.00000000000E+00 0. -1.
<scales pt_clust_5="13000.00000" pt_clust_6="13000.00000" pt_clust_7="13000.00000" pt_clust_8="13000.00000" pt_clust_9="13000.00000"></scales>
<clustering>
<clus scale="   89.189">  7  8 -1 -1</clus>
<clus scale="   39.949">  7  9 -1 -1</clus>
<clus scale="   91.525">  5  6 -1 -1</clus>
<clus scale="  120.804">  1  5  2 -1</clus>
<clus scale="  155.677">  2  5  1 -1</clus>
</clustering>
</event>
<event>
 9    1  0.3312826E-006  0.2516532E+03  0.7546771E-02  0.1149590E+00
          4   -1    0    0  502    0 -0.00000000000E+00  0.00000000000E+00  0.36378337759E+03  0.36378337759E+03  0.00000000000E+00 0. -1.
         21   -1    0    0  501  502  0.00000000000E+00 -0.00000000000E+00 -0.13290196810E+03  0.13290196810E+03  0.00000000000E+00 0.  1.
         23    2    1    2    0    0 -0.82966018602E+01  0.20808027536E+02  0.22323381971E+03  0.24491598083E+03  0.98227754694E+02 0.  0.
         23    2    1    2    0    0  0.33532900745E+02 -0.10356357305E+03  0.58396308224E+02  0.15146590770E+03  0.87646581708E+02 0.  0.
        -11    1    3    3    0    0  0.44130363536E+02 -0.52476484506E+00  0.99916706245E+02  0.10922963220E+03  0.00000000000E+00 0.  1.
         11    1    3    3    0    0 -0.52426965396E+02  0.21332792381E+02  0.12331711346E+03  0.13568634863E+03  0.00000000000E+00 0. -1.
        -13    1    4    4    0    0 -0.17529526029E+02 -0.68804533673E+02  0.54619449144E+02  0.89580312355E+02  0.00000000000E+00 0. -1.
         13    1    4    4    0    0  0.51062426774E+02 -0.34759039381E+02  0.37768590805E+01  0.61885595345E+02  0.00000000000E+00 0.  1.
          4    1    1    2  501    0 -0.25236298885E+02  0.82755545519E+02 -0.50748718443E+02  0.10030345716E+03  0.00000000000E+00 0. -1.
<scales pt_clust_5="13000.00000" pt_clust_6="13000.00000" pt_clust_7="13000.00000" pt_clust_8="13000.00000" pt_clust_9="13000.00000"></scales>
<clustering>
<clus scale="   87.647">  7  8 -1 -1</clus>
<clus scale="   86.518">  7  9 -1 -1</clus>
<clus scale="   98.228">  5  6 -1 -1</clus>
<clus scale="  100.750">  1  5  2 -1</clus>
<clus scale="  251.653">  2  5  1 -1</clus>
</clustering>
</event>
<event>
 9    1  0.3312826E-006  0.1868710E+03  0.7546771E-02  0.1182534E+00
         -2   -1    0    0    0  501 -0.00000000000E+00  0.00000000000E+00  0.27202864652E+03  0.27202864652E+03  0.00000000000E+00 0.  1.
         21   -1    0    0  501  502  0.00000000000E+00 -0.00000000000E+00 -0.95973564400E+02  0.95973564400E+02  0.00000000000E+00 0.  1.
         23    2    1    2    0    0 -0.10814855360E+02  0.69170801668E+02  0.13353069442E+03  0.17635383361E+03  0.91480420727E+02 0.  0.
         23    2    1    2    0    0 -0.31264630827E+02  0.91068018711E+01  0.92586370954E+01  0.96755403195E+02  0.90639255875E+02 0.  0.
        -13    1    4    4    0    0  0.22560356318E+02 -0.10725878463E+02  0.26930556806E+02  0.36732397633E+02  0.00000000000E+00 0. -1.
         13    1    4    4    0    0 -0.53824987145E+02  0.19832680334E+02 -0.17671919710E+02  0.60023005562E+02  0.00000000000E+00 0.  1.
        -13    1    3    3    0    0 -0.19323353411E+02  0.36627638523E+02  0.13644469995E+03  0.14259078524E+03  0.00000000000E+00 0.  1.
         13    1    3    3    0    0  0.85084980509E+01  0.32543163145E+02 -0.29140055363E+01  0.33763048364E+02  0.00000000000E+00 0. -1.
         -2    1    1    2    0  502  0.42079486187E+02 -0.78277603539E+02  0.33265750606E+02  0.94892974118E+02  0.00000000000E+00 0.  1.
<scales pt_clust_5="13000.00000" pt_clust_6="13000.00000" pt_clust_7="13000.00000" pt_clust_8="13000.00000" pt_clust_9="13000.00000"></scales>
<clustering>
<clus scale="   90.639">  5  6 -1 -1</clus>
<clus scale="   88.871">  5  9 -1 -1</clus>
<clus scale="   91.480">  7  8 -1 -1</clus>
<clus scale="  115.196">  1  7  2 -1</clus>
<clus scale="  186.871">  2  5  1 -1</clus>
</clustering>
</event>
<event>
 9    1  0.3312826E-006  0.2053674E+03  0.7546771E-02  0.1175694E+00
         21   -1    0    0  501  502  0.00000000000E+00  0.00000000000E+00  0.36649344646E+03  0.36649344646E+03  0.00000000000E+00 0. -1.
          4   -1    0    0  502    0 -0.00000000000E+00 -0.00000000000E+00 -0.76595332262E+02  0.76595332262E+02  0.00000000000E+00 0. -1.
         23    2    1    2    0    0 -0.34447419074E+02 -0.77195431593E+01  0.18774777944E+02  0.10296582203E+03  0.94885468811E+02 0.  0.
         23    2    1    2    0    0 -0.28754336623E+02 -0.42435451497E+02  0.86621619872E+02  0.13875049393E+03  0.95502958689E+02 0.  0.
        -11    1    4    4    0    0 -0.13451165579E+02  0.30743305188E+02  0.24533382912E+02  0.41568877137E+02  0.00000000000E+00 0.  1.
         11    1    4    4    0    0 -0.15303171044E+02 -0.73178756684E+02  0.62088236959E+02  0.97181616794E+02  0.00000000000E+00 0. -1.
        -13    1    3    3    0    0  0.19591807251E+02 -0.31043161966E+02  0.24029424567E+02  0.43874024904E+02  0.00000000000E+00 0.  1.
         13    1    3    3    0    0 -0.54039226325E+02  0.23323618807E+02 -0.52546466234E+01  0.59091797123E+02  0.00000000000E+00 0. -1.
          4    1    1    2  501    0  0.63201755697E+02  0.50154994656E+02  0.18450171638E+03  0.20137246277E+03  0.00000000000E+00 0. -1.
<scales pt_clust_5="13000.00000" pt_clust_6="13000.00000" pt_clust_7="13000.00000" pt_clust_8="13000.00000" pt_clust_9="13000.00000"></scales>
<clustering>
<clus scale="   94.885">  7  8 -1 -1</clus>
<clus scale="   95.503">  5  6 -1 -1</clus>
<clus scale="   80.685">  5  9 -1 -1</clus>
<clus scale="  101.240">  2  7  1 -1</clus>
<clus scale="  205.367">  1  5  2 -1</clus>
</clustering>
</event>
<event>
 9    1  0.3312826E-006  0.4024978E+03  0.7546771E-02  0.1087049E+00
         21   -1    0    0  501  502  0.00000000000E+00  0.00000000000E+00  0.60306827480E+02  0.60306827480E+02  0.00000000000E+00 0.  1.
          1   -1    0    0  502    0 -0.00000000000E+00 -0.00000000000E+00 -0.13230835065E+04  0.13230835065E+04  0.00000000000E+00 0. -1.
         23    2    1    2    0    0 -0.46526794677E+02  0.58865144251E+02 -0.10713916662E+03  0.15966547956E+03  0.91566459527E+02 0.  0.
         23    2    1    2    0    0 -0.14039611379E+03  0.60329197756E+02 -0.51421742786E+03  0.54507384711E+03  0.96619122401E+02 0.  0.
        -11    1    4    4    0    0 -0.58976054099E+02  0.25639488058E+01 -0.33287417132E+03  0.33806798535E+03  0.00000000000E+00 0. -1.
         11    1    4    4    0    0 -0.81420059687E+02  0.57765248950E+02 -0.18134325655E+03  0.20700586175E+03  0.00000000000E+00 0.  1.
        -13    1    3    3    0    0 -0.70124586130E+02  0.25889609875E+02 -0.51319005596E+02  0.90671769668E+02  0.00000000000E+00 0.  1.
         13    1    3    3    0    0  0.23597791453E+02  0.32975534375E+02 -0.55820161020E+02  0.68993709895E+02  0.00000000000E+00 0. -1.
          1    1    1    2  501    0  0.18692290846E+03 -0.11919434201E+03 -0.64142008459E+03  0.67865100736E+03  0.00000000000E+00 0. -1.
<scales pt_clust_5="13000.00000" pt_clust_6="13000.00000" pt_clust_7="13000.00000" pt_clust_8="13000.00000" pt_clust_9="13000.00000"></scales>
<clustering>
<clus scale="   91.566">  7  8 -1 -1</clus>
<clus scale="   96.619">  5  6 -1 -1</clus>
<clus scale="  118.382">  2  7  1 -1</clus>
<clus scale="  182.879">  5  9 -1 -1</clus>
<clus scale="  402.498">  1  5  2 -1</clus>
</clustering>
</event>
<event>
 9    1  0.3312826E-006  0.2613767E+03  0.7546771E-02  0.1145424E+00
          1   -1    0    0  502    0 -0.00000000000E+00  0.00000000000E+00  0.46713637203E+03  0.46713637203E+03  0.00000000000E+00 0. -1.
         21   -1    0    0  501  502  0.00000000000E+00 -0.00000000000E+00 -0.91137915385E+02  0.91137915385E+02  0.00000000000E+00 0.  1.
         23    2    1    2    0    0 -0.35875279914E+02 -0.19578414743E+02  0.24820696860E+03  0.26733023647E+03  0.90489811780E+02 0.  0.
         23    2    1    2    0    0  0.69844082479E+02 -0.49390723045E+02 -0.17456518394E+02  0.12660414438E+03  0.91685549352E+02 0.  0.
        -13    1    3    3    0    0  0.23047019195E+02  0.18099639531E+02  0.69564769061E+02  0.75485224643E+02  0.00000000000E+00 0.  1.
         13    1    3    3    0    0 -0.58922299109E+02 -0.37678054274E+02  0.17864219954E+03  0.19184501183E+03  0.00000000000E+00 0. -1.
        -13    1    4    4    0    0  0.91458803004E+02 -0.44819128406E+02 -0.21627044154E+02  0.10412106394E+03  0.00000000000E+00 0.  1.
         13    1    4    4    0    0 -0.21614720524E+02 -0.45715946387E+01  0.41705257597E+01  0.22483080438E+02  0.00000000000E+00 0. -1.
          1    1    1    2  501    0 -0.33968802565E+02  0.68969137788E+02  0.14524800644E+03  0.16433990656E+03  0.00000000000E+00 0. -1.
<scales pt_clust_5="13000.00000" pt_clust_6="13000.00000" pt_clust_7="13000.00000" pt_clust_8="13000.00000" pt_clust_9="13000.00000"></scales>
<clustering>
<clus scale="   90.490">  5  6 -1 -1</clus>
<clus scale="   91.686">  7  8 -1 -1</clus>
<clus scale="   76.881">  7  9 -1 -1</clus>
<clus scale="   99.291">  1  5  2 -1</clus>
<clus scale="  261.377">  2  5  1 -1</clus>
</clustering>
</event>
<event>
 9    1  0.3312826E-006  0.1906079E+03  0.7546771E-02  0.1171320E+00
         -1   -1    0    0    0  501 -0.00000000000E+00  0.00000000000E+00  0.92241852473E+02  0.92241852473E+02  0.00000000000E+00 0.  1.
         21   -1    0    0  501  502  0.00000000000E+00 -0.00000000000E+00 -0.52409046668E+03  0.52409046668E+03  0.00000000000E+00 0.  1.
         23    2    1    2    0    0 -0.82218612945E+02  0.67858687482E+02  0.47474218108E+01  0.13994226394E+03  0.90535061949E+02 0.  0.
         23    2    1    2    0    0  0.89553912628E+01 -0.59007062784E+02 -0.32254104802E+03  0.34054311488E+03  0.91514222614E+02 0.  0.
        -13    1    4    4    0    0  0.16765687431E+02 -0.79240093298E+02 -0.29239850999E+03  0.30340891435E+03  0.00000000000E+00 0.  1.
         13    1    4    4    0    0 -0.78102961680E+01  0.20233030514E+02 -0.30142538029E+02  0.37134200528E+02  0.00000000000E+00 0. -1.
        -13    1    3    3    0    0 -0.42226351761E+02  0.35563811158E+02 -0.42850589767E+02  0.69885781747E+02  0.00000000000E+00 0. -1.
         13    1    3    3    0    0 -0.39992261184E+02  0.32294876324E+02  0.47598011577E+02  0.70056482195E+02  0.00000000000E+00 0.  1.
         -1    1    1    2    0  502  0.73263221682E+02 -0.88516246985E+01 -0.11405498800E+03  0.13584694033E+03  0.00000000000E+00 0.  1.
<scales pt_clust_5="13000.00000" pt_clust_6="13000.00000" pt_clust_7="13000.00000" pt_clust_8="13000.00000" pt_clust_9="13000.00000"></scales>
<clustering>
<clus scale="   90.535">  7  8 -1 -1</clus>
<clus scale="   91.514">  5  6 -1 -1</clus>
<clus scale="   73.796">  5  9 -1 -1</clus>
<clus scale="  139.862">  1  7  2 -1</clus>
<clus scale="  190.608">  2  5  1 -1</clus>
</clustering>
</event>
<event>
 9    1  0.3312826E-006  0.2796187E+03  0.7546771E-02  0.1113335E+00
          1   -1    0    0  502    0 -0.00000000000E+00  0.00000000000E+00  0.29663471585E+03  0.29663471585E+03  0.00000000000E+00 0. -1.
         21   -1    0    0  501  502  0.00000000000E+00 -0.00000000000E+00 -0.43975855453E+03  0.43975855453E+03  0.00000000000E+00 0. -1.
         23    2    1    2    0    0 -0.15341618256E+03 -0.94410900974E+01 -0.34707110551E+03  0.39029922673E+03  0.90826619736E+02 0.  0.
         23    2    1    2    0    0  0.74611678117E+02 -0.34071022861E+02  0.22215444570E+03  0.25425203118E+03  0.92540588414E+02 0.  0.
        -13    1    3    3    0    0 -0.61944076692E+02 -0.46187411408E+02 -0.11962209487E+03  0.14240713182E+03  0.00000000000E+00 0.  1.
         13    1    3    3    0    0 -0.91472105864E+02  0.36746321311E+02 -0.22744901064E+03  0.24789209492E+03  0.00000000000E+00 0. -1.
        -13    1    4    4    0    0  0.18284978582E+02 -0.33833640486E+02  0.17986646707E+02  0.42456744223E+02  0.00000000000E+00 0.  1.
         13    1    4    4    0    0  0.56326699534E+02 -0.23738237505E+00  0.20416779899E+03  0.21179528695E+03  0.00000000000E+00 0. -1.
          1    1    1    2  501    0  0.78804504439E+02  0.43512112958E+02 -0.18207178865E+02  0.91842012479E+02  0.00000000000E+00 0. -1.
<scales pt_clust_5="13000.00000" pt_clust_6="13000.00000" pt_clust_7="13000.00000" pt_clust_8="13000.00000" pt_clust_9="13000.00000"></scales>
<clustering>
<clus scale="   90.827">  5  6 -1 -1</clus>
<clus scale="   92.541">  7  8 -1 -1</clus>
<clus scale="   90.019">  7  9 -1 -1</clus>
<clus scale="  178.536">  1  5  2 -1</clus>
<clus scale="  279.619">  2  5  1 -1</clus>
</clustering>
</event>
<event>
 9    1  0.3312826E-006  0.2824643E+03  0.7546771E-02  0.1139324E+00
         21   -1    0    0  501  502  0.00000000000E+00  0.00000000000E+00  0.56647658000E+03  0.56647658000E+03  0.00000000000E+00 0. -1.
          2   -1    0    0  502    0 -0.00000000000E+00 -0.00000000000E+00 -0.10486271366E+03  0.10486271366E+03  0.00000000000E+00 0. -1.
         23    2    1    2    0    0 -0.11833494008E+02 -0.30035825469E+00 -0.36968939645E+02  0.98302748199E+02  0.90313930318E+02 0.  0.
         23    2    1    2    0    0 -0.11732556944E+03  0.30116752300E+02  0.25346867105E+03  0.29437542479E+03  0.87967127384E+02 0.  0.
        -13    1    3    3    0    0  0.17129688586E+02 -0.33130165108E+02  0.50309627366E+01  0.37634354747E+02  0.00000000000E+00 0.  1.
         13    1    3    3    0    0 -0.28963182594E+02  0.32829806853E+02 -0.41999902382E+02  0.60668393452E+02  0.00000000000E+00 0. -1.
        -13    1    4    4    0    0  0.10460132458E+00  0.31515250125E+02  0.66386738750E+02  0.73487556863E+02  0.00000000000E+00 0.  1.
         13    1    4    4    0    0 -0.11743017077E+03 -0.13984978240E+01  0.18708193230E+03  0.22088786793E+03  0.00000000000E+00 0. -1.
          2    1    1    2  501    0  0.12915906345E+03 -0.29816394046E+02  0.24511413494E+03  0.27866112067E+03  0.00000000000E+00 0. -1.
<scales pt_clust_5="13000.00000" pt_clust_6="13000.00000" pt_clust_7="13000.00000" pt_clust_8="13000.00000" pt_clust_9="13000.00000"></scales>
<clustering>
<clus scale="   87.967">  7  8 -1 -1</clus>
<clus scale="   90.314">  5  6 -1 -1</clus>
<clus scale="   91.086">  2  5  1 -1</clus>
<clus scale="  127.398">  7  9 -1 -1</clus>
<clus scale="  282.464">  1  5  2 -1</clus>
</clustering>
</event>
<event>
 9    1  0.3312826E-006  0.1334832E+03  0.7546771E-02  0.1234237E+00
         -3   -1    0    0    0  501 -0.00000000000E+00  0.00000000000E+00  0.13564906140E+03  0.13564906140E+03  0.00000000000E+00 0.  1.
         21   -1    0    0  501  502  0.00000000000E+00 -0.00000000000E+00 -0.11808446098E+03  0.11808446098E+03  0.00000000000E+00 0. -1.
         23    2    1    2    0    0  0.21271477558E+02 -0.35885142227E+02  0.50884772211E+02  0.11615444091E+03  0.95720295189E+02 0.  0.
         23    2    1    2    0    0 -0.15751785384E+02  0.69638627963E+01  0.14460977284E+00  0.93005557810E+02  0.91396929619E+02 0.  0.
        -11    1    3    3    0    0 -0.33324381414E+01 -0.65465592208E+02  0.27173168886E+02  0.70959354665E+02  0.00000000000E+00 0.  1.
         11    1    3    3    0    0  0.24603915699E+02  0.29580449982E+02  0.23711603325E+02  0.45195086249E+02  0.00000000000E+00 0. -1.
        -13    1    4    4    0    0 -0.25877292236E+02  0.39957436517E+02  0.21697154082E+02  0.52316321370E+02  0.00000000000E+00 0. -1.
         13    1    4    4    0    0  0.10125506852E+02 -0.32993573721E+02 -0.21552544309E+02  0.40689236440E+02  0.00000000000E+00 0.  1.
         -3    1    1    2    0  502 -0.55196921733E+01  0.28921279430E+02 -0.33464781570E+02  0.44573523656E+02  0.00000000000E+00 0.  1.
<scales pt_clust_5="13000.00000" pt_clust_6="13000.00000" pt_clust_7="13000.00000" pt_clust_8="13000.00000" pt_clust_9="13000.00000"></scales>
<clustering>
<clus scale="   91.397">  7  8 -1 -1</clus>
<clus scale="   29.443">  7  9 -1 -1</clus>
<clus scale="   95.720">  5  6 -1 -1</clus>
<clus scale="  104.415">  1  5  2 -1</clus>
<clus scale="  133.483">  2  5  1 -1</clus>
</clustering>
</event>
<event>
 9    1  0.3312826E-006  0.3844238E+03  0.7546771E-02  0.1060843E+00
         21   -1    0    0  501  502  0.00000000000E+00  0.00000000000E+00  0.84072888766E+03  0.84072888766E+03  0.00000000000E+00 0. -1.
          1   -1    0    0  502    0 -0.00000000000E+00 -0.00000000000E+00 -0.13350825314E+03  0.13350825314E+03  0.00000000000E+00 0. -1.
         23    2    1    2    0    0  0.26044728445E+03 -0.29627327278E+02  0.37244175478E+03  0.46447391425E+03  0.91173405229E+02 0.  0.
         23    2    1    2    0    0 -0.20066771434E+02 -0.47057644789E+02  0.19699600185E+02  0.10610702582E+03  0.90848937427E+02 0.  0.
        -11    1    4    4    0    0 -0.39712152289E+02  0.89273119804E+01 -0.65518780131E+01  0.41227163911E+02  0.00000000000E+00 0.  1.
         11    1    4    4    0    0  0.19645380855E+02 -0.55984956770E+02  0.26251478198E+02  0.64879861907E+02  0.00000000000E+00 0. -1.
        -13    1    3    3    0    0  0.17335775197E+03  0.24333886883E+02  0.23770869192E+03  0.29521258516E+03  0.00000000000E+00 0.  1.
         13    1    3    3    0    0  0.87089532471E+02 -0.53961214161E+02  0.13473306286E+03  0.16926132910E+03  0.00000000000E+00 0. -1.
          1    1    1    2  501    0 -0.24038051301E+03  0.76684972067E+02  0.31507927956E+03  0.40365620072E+03  0.00000000000E+00 0. -1.
<scales pt_clust_5="13000.00000" pt_clust_6="13000.00000" pt_clust_7="13000.00000" pt_clust_8="13000.00000" pt_clust_9="13000.00000"></scales>
<clustering>
<clus scale="   90.849">  5  6 -1 -1</clus>
<clus scale="   91.173">  7  8 -1 -1</clus>
<clus scale="  252.316">  5  9 -1 -1</clus>
<clus scale="  277.531">  2  7  1 -1</clus>
<clus scale="  384.424">  1  5  2 -1</clus>
</clustering>
</event>
<event>
 9    1  0.3312826E-006  0.3418978E+03  0.7546771E-02  0.1112221E+00
         21   -1    0    0  501  502  0.00000000000E+00  0.00000000000E+00  0.35941610123E+03  0.35941610123E+03  0.00000000000E+00 0. -1.
          1   -1    0    0  502    0 -0.00000000000E+00 -0.00000000000E+00 -0.24579615027E+03  0.24579615027E+03  0.00000000000E+00 0. -1.
         23    2    1    2    0    0  0.15278434774E+02  0.45725565935E+02 -0.14508230837E+03  0.17646874125E+03  0.88136726104E+02 0.  0.
         23    2    1    2    0    0 -0.49367485864E+02  0.12115529452E+03  0.69546220918E+02  0.17420217401E+03  0.91618592733E+02 0.  0.
        -13    1    3    3    0    0  0.10004789129E+02  0.72464979799E+02 -0.10823332623E+03  0.13063583738E+03  0.00000000000E+00 0. -1.
         13    1    3    3    0    0  0.52736456449E+01 -0.26739413864E+02 -0.36848982143E+02  0.45832903870E+02  0.00000000000E+00 0.  1.
        -13    1    4    4    0    0 -0.76215137867E+02  0.97817284798E+02  0.57049879875E+02  0.13649782870E+03  0.00000000000E+00 0. -1.
         13    1    4    4    0    0  0.26847652003E+02  0.23338009725E+02  0.12496341042E+02  0.37704345313E+02  0.00000000000E+00 0.  1.
          1    1    1    2  501    0  0.34089051090E+02 -0.16688086046E+03  0.18915603841E+03  0.25454133624E+03  0.00000000000E+00 0. -1.
<scales pt_clust_5="13000.00000" pt_clust_6="13000.00000" pt_clust_7="13000.00000" pt_clust_8="13000.00000" pt_clust_9="13000.00000"></scales>
<clustering>
<clus scale="   88.137">  5  6 -1 -1</clus>
<clus scale="   91.619">  7  8 -1 -1</clus>
<clus scale="  100.461">  2  5  1 -1</clus>
<clus scale="  154.555">  7  9 -1 -1</clus>
<clus scale="  341.898">  1  5  2 -1</clus>
</clustering>
</event>
<event>
 9    1  0.3312826E-006  0.1484231E+03  0.7546771E-02  0.1216852E+00
         -4   -1    0    0    0  501 -0.00000000000E+00  0.00000000000E+00  0.36984144313E+03  0.36984144313E+03  0.00000000000E+00 0.  1.
         21   -1    0    0  501  502  0.00000000000E+00 -0.00000000000E+00 -0.56007927645E+02  0.56007927645E+02  0.00000000000E+00 0. -1.
         23    2    1    2    0    0  0.46344616901E+02 -0.35977096874E+02  0.43407349797E+02  0.11736966924E+03  0.91919890262E+02 0.  0.
         23    2    1    2    0    0 -0.22215209687E+02  0.56542476347E+02  0.24426066887E+03  0.26737256895E+03  0.90190072065E+02 0.  0.
        -11    1    4    4    0    0 -0.37049067608E+02 -0.11431996595E+02  0.76743750707E+02  0.85982133198E+02  0.00000000000E+00 0.  1.
         11    1    4    4    0    0  0.14833857921E+02  0.67974472942E+02  0.16751691816E+03  0.18139043575E+03  0.00000000000E+00 0. -1.
        -13    1    3    3    0    0 -0.11367404213E+02 -0.33968821188E+02 -0.11564902318E+02  0.37641010309E+02  0.00000000000E+00 0.  1.
         13    1    3    3    0    0  0.57712021114E+02 -0.20082756860E+01  0.54972252115E+02  0.79728658931E+02  0.00000000000E+00 0. -1.
         -4    1    1    2    0  502 -0.24129407214E+02 -0.20565379473E+02  0.26165496820E+02  0.41107132583E+02  0.00000000000E+00 0.  1.
<scales pt_clust_5="13000.00000" pt_clust_6="13000.00000" pt_clust_7="13000.00000" pt_clust_8="13000.00000" pt_clust_9="13000.00000"></scales>
<clustering>
<clus scale="   90.190">  5  6 -1 -1</clus>
<clus scale="   31.704">  5  9 -1 -1</clus>
<clus scale="   91.920">  7  8 -1 -1</clus>
<clus scale="  109.048">  1  7  2 -1</clus>
<clus scale="  148.423">  2  5  1 -1</clus>
</clustering>
</event>
<event>
 9    1  0.3312826E-006  0.3401698E+03  0.7546771E-02  0.1111077E+00
          1   -1    0    0  502    0 -0.00000000000E+00  0.00000000000E+00  0.53297794960E+03  0.53297794960E+03  0.00000000000E+00 0. -1.
         21   -1    0    0  501  502  0.00000000000E+00 -0.00000000000E+00 -0.10319871364E+03  0.10319871364E+03  0.00000000000E+00 0. -1.
         23    2    1    2    0    0  0.56284268434E+02  0.26393248553E+02  0.19932757647E+03  0.22529530470E+03  0.84628418024E+02 0.  0.
         23    2    1    2    0    0 -0.32340222738E+02  0.11902749442E+03  0.23585636523E+02  0.15688517496E+03  0.94038510395E+02 0.  0.
        -11    1    4    4    0    0 -0.20756938127E+02  0.38453000021E+02  0.54460100185E+02  0.69823965822E+02  0.00000000000E+00 0.  1.
         11    1    4    4    0    0 -0.11583284611E+02  0.80574494399E+02 -0.30874463662E+02  0.87061209137E+02  0.00000000000E+00 0. -1.
        -11    1    3    3    0    0 -0.13512693053E+01  0.29981379870E+02  0.18003205777E+02  0.34997492566E+02  0.00000000000E+00 0.  1.
         11    1    3    3    0    0  0.57635537740E+02 -0.35881313171E+01  0.18132437070E+03  0.19029781214E+03  0.00000000000E+00 0. -1.
          1    1    1    2  501    0 -0.23944045696E+02 -0.14542074297E+03  0.20686602297E+03  0.25399618357E+03  0.00000000000E+00 0. -1.
<scales pt_clust_5="13000.00000" pt_clust_6="13000.00000" pt_clust_7="13000.00000" pt_clust_8="13000.00000" pt_clust_9="13000.00000"></scales>
<clustering>
<clus scale="   84.628">  7  8 -1 -1</clus>
<clus scale="   94.039">  5  6 -1 -1</clus>
<clus scale="  105.007">  1  7  2 -1</clus>
<clus scale="  127.527">  5  9 -1 -1</clus>
<clus scale="  340.170">  2  5  1 -1</clus>
</clustering>
</event>
<event>
 9    1  0.3312826E-006  0.1879821E+03  0.7546771E-02  0.1184243E+00
          1   -1    0    0  502    0 -0.00000000000E+00  0.00000000000E+00  0.22986843314E+03  0.22986843314E+03  0.00000000000E+00 0. -1.
         21   -1    0    0  501  502  0.00000000000E+00 -0.00000000000E+00 -0.95951016405E+02  0.95951016405E+02  0.00000000000E+00 0.  1.
         23    2    1    2    0    0 -0.49315047951E+02  0.33714492830E+02  0.53611300496E+02  0.12140233315E+03  0.91080810114E+02 0.  0.
         23    2    1    2    0    0 -0.16776668207E+02 -0.21796799400E+02 -0.65350915956E+01  0.94637602194E+02  0.90316173892E+02 0.  0.
        -11    1    4    4    0    0 -0.24497675236E+02  0.10765922618E+02  0.33229865022E+02  0.42664565053E+02  0.00000000000E+00 0. -1.
         11    1    4    4    0    0  0.77210070294E+01 -0.32562722018E+02 -0.39764956618E+02  0.51973037140E+02  0.00000000000E+00 0.  1.
        -13    1    3    3    0    0  0.16242994860E+01 -0.26265512388E+02  0.28522277296E+02  0.38807676972E+02  0.00000000000E+00 0.  1.
         13    1    3    3    0    0 -0.50939347437E+02  0.59980005218E+02  0.25089023200E+02  0.82594656173E+02  0.00000000000E+00 0. -1.
          1    1    1    2  501    0  0.66091716158E+02 -0.11917693430E+02  0.86841207836E+02  0.10977951421E+03  0.00000000000E+00 0. -1.
<scales pt_clust_5="13000.00000" pt_clust_6="13000.00000" pt_clust_7="13000.00000" pt_clust_8="13000.00000" pt_clust_9="13000.00000"></scales>
<clustering>
<clus scale="   90.316">  5  6 -1 -1</clus>
<clus scale="   67.158">  5  9 -1 -1</clus>
<clus scale="   91.081">  7  8 -1 -1</clus>
<clus scale="  108.924">  1  7  2 -1</clus>
<clus scale="  187.982">  2  5  1 -1</clus>
</clustering>
</event>
<event>
 9    1  0.3312826E-006  0.3167023E+03  0.7546771E-02  0.1126181E+00
          2   -1    0    0  502    0 -0.00000000000E+00  0.00000000000E+00  0.24122545777E+03  0.24122545777E+03  0.00000000000E+00 0. -1.
         21   -1    0    0  501  502  0.00000000000E+00 -0.00000000000E+00 -0.18943506067E+03  0.18943506067E+03  0.00000000000E+00 0. -1.
         23    2    1    2    0    0  0.25380230972E+02 -0.49924739151E+00  0.70185649405E+02  0.11342441655E+03  0.85408825742E+02 0.  0.
         23    2    1    2    0    0 -0.75484744445E+02  0.13071134025E+03 -0.10153847039E+02  0.17747354554E+03  0.92792012830E+02 0.  0.
        -11    1    3    3    0    0  0.37110276192E+02  0.18277279957E+02  0.79332471514E+02  0.89469953606E+02  0.00000000000E+00 0. -1.
         11    1    3    3    0    0 -0.11730045220E+02 -0.18776527349E+02 -0.91468221093E+01  0.23954462942E+02  0.00000000000E+00 0.  1.
        -11    1    4    4    0    0 -0.54926034385E+02  0.46571663762E+02 -0.44101324721E+02  0.84443566723E+02  0.00000000000E+00 0. -1.
         11    1    4    4    0    0 -0.20558710060E+02  0.84139676484E+02  0.33947477682E+02  0.93029978820E+02  0.00000000000E+00 0.  1.
          2    1    1    2  501    0  0.50104513473E+02 -0.13021209285E+03 -0.82414052633E+01  0.13976255635E+03  0.00000000000E+00 0. -1.
<scales pt_clust_5="13000.00000" pt_clust_6="13000.00000" pt_clust_7="13000.00000" pt_clust_8="13000.00000" pt_clust_9="13000.00000"></scales>
<clustering>
<clus scale="   85.409">  5  6 -1 -1</clus>
<clus scale="   89.101">  1  5  2 -1</clus>
<clus scale="   92.792">  7  8 -1 -1</clus>
<clus scale="  144.108">  7  9 -1 -1</clus>
<clus scale="  316.702">  2  5  1 -1</clus>
</clustering>
</event>
<event>
 9    1  0.3312826E-006  0.3527747E+03  0.7546771E-02  0.1107297E+00
          4   -1    0    0  502    0 -0.00000000000E+00  0.00000000000E+00  0.20164731566E+03  0.20164731566E+03  0.00000000000E+00 0. -1.
         21   -1    0    0  501  502  0.00000000000E+00 -0.00000000000E+00 -0.25987194996E+03  0.25987194996E+03  0.00000000000E+00 0. -1.
         23    2    1    2    0    0 -0.47103203698E+02 -0.16423821888E+02 -0.28331663973E+02  0.10748036008E+03  0.90889443254E+02 0.  0.
         23    2    1    2    0    0  0.17603388586E+03 -0.15158932151E+02  0.10370861041E+02  0.21532420815E+03  0.12263456961E+03 0.  0.
        -11    1    3    3    0    0 -0.46840889434E+02 -0.49963931805E+02 -0.98713289885E+01  0.69194700234E+02  0.00000000000E+00 0.  1.
         11    1    3    3    0    0 -0.26231426419E+00  0.33540109917E+02 -0.18460334985E+02  0.38285659845E+02  0.00000000000E+00 0. -1.
        -13    1    4    4    0    0  0.14090060428E+03  0.25091701545E+02 -0.32573371581E+02  0.14677737669E+03  0.00000000000E+00 0. -1.
         13    1    4    4    0    0  0.35133281580E+02 -0.40250633696E+02  0.42944232621E+02  0.68546831458E+02  0.00000000000E+00 0.  1.
          4    1    1    2  501    0 -0.12893068216E+03  0.31582754039E+02 -0.40263831374E+02  0.13871469739E+03  0.00000000000E+00 0. -1.
<scales pt_clust_5="13000.00000" pt_clust_6="13000.00000" pt_clust_7="13000.00000" pt_clust_8="13000.00000" pt_clust_9="13000.00000"></scales>
<clustering>
<clus scale="   90.889">  5  6 -1 -1</clus>
<clus scale="  103.679">  1  5  2 -1</clus>
<clus scale="  122.635">  7  8 -1 -1</clus>
<clus scale="  145.685">  7  9 -1 -1</clus>
<clus scale="  352.775">  2  5  1 -1</clus>
</clustering>
</event>
<event>
 9    1  0.3312826E-006  0.3915759E+03  0.7546771E-02  0.1096419E+00
         21   -1    0    0  501  502  0.00000000000E+00  0.00000000000E+00  0.26307300123E+03  0.26307300123E+03  0.00000000000E+00 0.  1.
          1   -1    0    0  502    0 -0.00000000000E+00 -0.00000000000E+00 -0.27724043513E+03  0.27724043513E+03  0.00000000000E+00 0. -1.
         23    2    1    2    0    0 -0.92532357190E+01 -0.42510883587E+02 -0.97489362339E+02  0.13997075076E+03  0.90525342885E+02 0.  0.
         23    2    1    2    0    0 -0.11518928070E+03  0.14644411383E+03 -0.18488003304E+02  0.20889212163E+03  0.92626472188E+02 0.  0.
        -11    1    3    3    0    0  0.14552131585E+02 -0.16510944102E+02 -0.10207609392E+03  0.10442176382E+03  0.00000000000E+00 0. -1.
         11    1    3    3    0    0 -0.23805367304E+02 -0.25999939486E+02  0.45867315850E+01  0.35548986939E+02  0.00000000000E+00 0.  1.
        -13    1    4    4    0    0 -0.24105703411E+02  0.57143430502E+02 -0.47448694116E+02  0.78088636560E+02  0.00000000000E+00 0. -1.
         13    1    4    4    0    0 -0.91083577290E+02  0.89300683331E+02  0.28960690812E+02  0.13080348507E+03  0.00000000000E+00 0.  1.
          1    1    1    2  501    0  0.12444251642E+03 -0.10393323025E+03  0.10180993174E+03  0.19145056397E+03  0.00000000000E+00 0. -1.
<scales pt_clust_5="13000.00000" pt_clust_6="13000.00000" pt_clust_7="13000.00000" pt_clust_8="13000.00000" pt_clust_9="13000.00000"></scales>
<clustering>
<clus scale="   90.525">  5  6 -1 -1</clus>
<clus scale="   92.626">  7  8 -1 -1</clus>
<clus scale="  100.437">  2  5  1 -1</clus>
<clus scale="  168.187">  7  9 -1 -1</clus>
<clus scale="  391.576">  1  5  2 -1</clus>
</clustering>
</event>
<event>
 9    1  0.3312826E-006  0.2166096E+03  0.7546771E-02  0.1157941E+00
          1   -1    0    0  502    0 -0.00000000000E+00  0.00000000000E+00  0.20173714337E+02  0.20173714337E+02  0.00000000000E+00 0. -1.
         21   -1    0    0  501  502  0.00000000000E+00 -0.00000000000E+00 -0.15010909488E+04  0.15010909488E+04  0.00000000000E+00 0.  1.
         23    2    1    2    0    0  0.83156254189E+02 -0.40400910529E+02 -0.62788098857E+03  0.64115639147E+03  0.91103163093E+02 0.  0.
         23    2    1    2    0    0 -0.70209958241E+00 -0.12851556881E+02 -0.20528267577E+03  0.22496004378E+03  0.91106469970E+02 0.  0.
        -11    1    3    3    0    0  0.53805728585E+02 -0.69828798876E+02 -0.43702291190E+03  0.44582523830E+03  0.00000000000E+00 0.  1.
         11    1    3    3    0    0  0.29350525604E+02  0.29427888347E+02 -0.19085807667E+03  0.19533115316E+03  0.00000000000E+00 0. -1.
        -13    1    4    4    0    0  0.67769442528E+01  0.28571163445E+02 -0.21434608665E+02  0.36354928175E+02  0.00000000000E+00 0. -1.
         13    1    4    4    0    0 -0.74790438352E+01 -0.41422720326E+02 -0.18384806711E+03  0.18860511561E+03  0.00000000000E+00 0.  1.
          1    1    1    2  501    0 -0.82454154606E+02  0.53252467410E+02 -0.64775357008E+03  0.65514822784E+03  0.00000000000E+00 0. -1.
<scales pt_clust_5="13000.00000" pt_clust_6="13000.00000" pt_clust_7="13000.00000" pt_clust_8="13000.00000" pt_clust_9="13000.00000"></scales>
<clustering>
<clus scale="   91.103">  5  6 -1 -1</clus>
<clus scale="   91.106">  7  8 -1 -1</clus>
<clus scale="   98.156">  7  9 -1 -1</clus>
<clus scale="  129.796">  1  5  2 -1</clus>
<clus scale="  216.610">  2  5  1 -1</clus>
</clustering>
</event>
<event>
 9    1  0.3312826E-006  0.1534919E+03  0.7546771E-02  0.1214779E+00
         21   -1    0    0  501  502  0.00000000000E+00  0.00000000000E+00  0.45254550163E+03  0.45254550163E+03  0.00000000000E+00 0. -1.
         -2   -1    0    0    0  501 -0.00000000000E+00 -0.00000000000E+00 -0.42782962402E+02  0.42782962402E+02  0.00000000000E+00 0.  1.
         23    2    1    2    0    0 -0.16740434313E+02  0.46848102691E+02  0.76169371235E+02  0.12811712533E+03  0.90206639572E+02 0.  0.
         23    2    1    2    0    0  0.18506794969E+02  0.85924212698E+01  0.14823545258E+03  0.17373200029E+03  0.88276425846E+02 0.  0.
        -11    1    4    4    0    0  0.43314788921E+02 -0.24050258582E+02  0.84257189697E+02  0.97743848363E+02  0.00000000000E+00 0.  1.
         11    1    4    4    0    0 -0.24807993953E+02  0.32642679851E+02  0.63978262885E+02  0.75988151930E+02  0.00000000000E+00 0. -1.
        -11    1    3    3    0    0  0.81265046621E+01  0.69027586031E+02  0.47793162436E+02  0.84350661450E+02  0.00000000000E+00 0. -1.
         11    1    3    3    0    0 -0.24866938975E+02 -0.22179483340E+02  0.28376208799E+02  0.43766463885E+02  0.00000000000E+00 0.  1.
         -2    1    1    2    0  502 -0.17663606559E+01 -0.55440523961E+02  0.18535771541E+03  0.19347933841E+03  0.00000000000E+00 0.  1.
<scales pt_clust_5="13000.00000" pt_clust_6="13000.00000" pt_clust_7="13000.00000" pt_clust_8="13000.00000" pt_clust_9="13000.00000"></scales>
<clustering>
<clus scale="   88.276">  5  6 -1 -1</clus>
<clus scale="   55.469">  5  9 -1 -1</clus>
<clus scale="   90.207">  7  8 -1 -1</clus>
<clus scale="  103.016">  2  7  1 -1</clus>
<clus scale="  153.492">  1  5  2 -1</clus>
</clustering>
</event>
<event>
 9    1  0.3312826E-006  0.3434183E+03  0.7546771E-02  0.1067574E+00
         21   -1    0    0  501  502  0.00000000000E+00  0.00000000000E+00  0.23828176586E+03  0.23828176586E+03  0.00000000000E+00 0.  1.
          2   -1    0    0  502    0 -0.00000000000E+00 -0.00000000000E+00 -0.52015914145E+03  0.52015914145E+03  0.00000000000E+00 0. -1.
         23    2    1    2    0    0 -0.18899523264E+02 -0.30926292712E+03 -0.14599276961E+02  0.32326997185E+03  0.91047162191E+02 0.  0.
         23    2    1    2    0    0  0.25395456322E+02  0.27471905038E+03 -0.27373552659E+03  0.39943335101E+03  0.92197492042E+02 0.  0.
        -11    1    4    4    0    0  0.29438444495E+02  0.18870864372E+02 -0.30774928955E+02  0.46581410333E+02  0.00000000000E+00 0.  1.
         11    1    4    4    0    0 -0.40429881732E+01  0.25584818601E+03 -0.24296059764E+03  0.35285194068E+03  0.00000000000E+00 0. -1.
        -11    1    3    3    0    0  0.31361463235E+02 -0.83988883871E+02  0.13827790596E+02  0.90713184173E+02  0.00000000000E+00 0. -1.
         11    1    3    3    0    0 -0.50260986499E+02 -0.22527404325E+03 -0.28427067556E+02  0.23255678768E+03  0.00000000000E+00 0.  1.
          2    1    1    2  501    0 -0.64959330576E+01  0.34543876739E+02  0.64574279557E+01  0.35737584449E+02  0.00000000000E+00 0. -1.
<scales pt_clust_5="13000.00000" pt_clust_6="13000.00000" pt_clust_7="13000.00000" pt_clust_8="13000.00000" pt_clust_9="13000.00000"></scales>
<clustering>
<clus scale="   91.047">  7  8 -1 -1</clus>
<clus scale="   92.197">  5  6 -1 -1</clus>
<clus scale="   35.149">  5  9 -1 -1</clus>
<clus scale="  322.940">  2  7  1 -1</clus>
<clus scale="  343.418">  1  5  2 -1</clus>
</clustering>
</event>
<event>
 9    1  0.3312826E-006  0.1615901E+03  0.7546771E-02  0.1197385E+00
         -4   -1    0    0    0  501 -0.00000000000E+00  0.00000000000E+00  0.79984177690E+03  0.79984177690E+03  0.00000000000E+00 0.  1.
         21   -1    0    0  501  502  0.00000000000E+00 -0.00000000000E+00 -0.26457894191E+02  0.26457894191E+02  0.00000000000E+00 0.  1.
         23    2    1    2    0    0 -0.33172596714E+02 -0.84733488951E+02  0.37716652330E+03  0.39839831996E+03  0.90479001596E+02 0.  0.
         23    2    1    2    0    0  0.59595932618E+02  0.53938890158E+02  0.30240620180E+03  0.32569062132E+03  0.90353698726E+02 0.  0.
        -11    1    3    3    0    0 -0.59055492986E+02 -0.55771554662E+02  0.31320390821E+03  0.32356561263E+03  0.00000000000E+00 0. -1.
         11    1    3    3    0    0  0.25882896272E+02 -0.28961934290E+02  0.63962615087E+02  0.74832707328E+02  0.00000000000E+00 0.  1.
        -11    1    4    4    0    0  0.25423232474E+01  0.52291842422E+02  0.21512125907E+03  0.22140021747E+03  0.00000000000E+00 0.  1.
         11    1    4    4    0    0  0.57053609370E+02  0.16470477356E+01  0.87284942734E+02  0.10429040386E+03  0.00000000000E+00 0. -1.
         -4    1    1    2    0  502 -0.26423335904E+02  0.30794598794E+02  0.93811157608E+02  0.10221072980E+03  0.00000000000E+00 0.  1.
<scales pt_clust_5="13000.00000" pt_clust_6="13000.00000" pt_clust_7="13000.00000" pt_clust_8="13000.00000" pt_clust_9="13000.00000"></scales>
<clustering>
<clus scale="   90.354">  7  8 -1 -1</clus>
<clus scale="   40.577">  7  9 -1 -1</clus>
<clus scale="   90.479">  5  6 -1 -1</clus>
<clus scale="  128.322">  1  5  2 -1</clus>
<clus scale="  161.590">  2  5  1 -1</clus>
</clustering>
</event>
<event>
 9    1  0.3312826E-006  0.3824647E+03  0.7546771E-02  0.1068993E+00
          1   -1    0    0  502    0 -0.00000000000E+00  0.00000000000E+00  0.78086116021E+03  0.78086116021E+03  0.00000000000E+00 0. -1.
         21   -1    0    0  501  502  0.00000000000E+00 -0.00000000000E+00 -0.12478045111E+03  0.12478045111E+03  0.00000000000E+00 0.  1.
         23    2    1    2    0    0  0.59179090355E+02  0.19650683126E+03  0.34903880606E+03  0.41517858186E+03  0.91804505514E+02 0.  0.
         23    2    1    2    0    0 -0.16760615557E+03 -0.76380266812E+02  0.10240973907E+03  0.22957772423E+03  0.91062661171E+02 0.  0.
        -11    1    4    4    0    0 -0.17142582631E+03 -0.51977126664E+02  0.79842458124E+02  0.19612050822E+03  0.00000000000E+00 0.  1.
         11    1    4    4    0    0  0.38196707417E+01 -0.24403140149E+02  0.22567280949E+02  0.33457216009E+02  0.00000000000E+00 0. -1.
        -13    1    3    3    0    0  0.70530230581E+02  0.11382519475E+03  0.16070189757E+03  0.20917884278E+03  0.00000000000E+00 0.  1.
         13    1    3    3    0    0 -0.11351140226E+02  0.82681636508E+02  0.18833690849E+03  0.20599973907E+03  0.00000000000E+00 0. -1.
          1    1    1    2  501    0  0.10842706522E+03 -0.12012656444E+03  0.20463216397E+03  0.26088530524E+03  0.00000000000E+00 0. -1.
<scales pt_clust_5="13000.00000" pt_clust_6="13000.00000" pt_clust_7="13000.00000" pt_clust_8="13000.00000" pt_clust_9="13000.00000"></scales>
<clustering>
<clus scale="   91.063">  5  6 -1 -1</clus>
<clus scale="   91.805">  7  8 -1 -1</clus>
<clus scale="  161.824">  5  9 -1 -1</clus>
<clus scale="  224.823">  1  7  2 -1</clus>
<clus scale="  382.465">  2  5  1 -1</clus>
</clustering>
</event>
<event>
 9    1  0.3312826E-006  0.1693826E+03  0.7546771E-02  0.1205447E+00
         21   -1    0    0  501  502  0.00000000000E+00  0.00000000000E+00  0.11700641641E+03  0.11700641641E+03  0.00000000000E+00 0.  1.
         -1   -1    0    0    0  501 -0.00000000000E+00 -0.00000000000E+00 -0.25340126525E+03  0.25340126525E+03  0.00000000000E+00 0.  1.
         23    2    1    2    0    0  0.96120584273E+01  0.39857421830E+01 -0.17340060294E+03  0.19702975251E+03  0.92976752296E+02 0.  0.
         23    2    1    2    0    0 -0.36206940169E+02 -0.32393593087E+02  0.68315139977E+02  0.12343224492E+03  0.90599521785E+02 0.  0.
        -11    1    3    3    0    0 -0.19089522334E+02  0.41729417965E+02 -0.92509543520E+02  0.10326553069E+03  0.00000000000E+00 0. -1.
         11    1    3    3    0    0  0.28701580761E+02 -0.37743675783E+02 -0.80891059419E+02  0.93764221821E+02  0.00000000000E+00 0.  1.
        -13    1    4    4    0    0  0.10947453631E+02 -0.44478322103E+02  0.57592219689E+02  0.73586898608E+02  0.00000000000E+00 0.  1.
         13    1    4    4    0    0 -0.47154393799E+02  0.12084729015E+02  0.10722920288E+02  0.49845346317E+02  0.00000000000E+00 0. -1.
         -1    1    1    2    0  502  0.26594881741E+02  0.28407850904E+02 -0.31309385887E+02  0.49945684222E+02  0.00000000000E+00 0.  1.
<scales pt_clust_5="13000.00000" pt_clust_6="13000.00000" pt_clust_7="13000.00000" pt_clust_8="13000.00000" pt_clust_9="13000.00000"></scales>
<clustering>
<clus scale="   90.600">  7  8 -1 -1</clus>
<clus scale="   38.914">  7  9 -1 -1</clus>
<clus scale="   92.977">  5  6 -1 -1</clus>
<clus scale="   93.557">  2  5  1 -1</clus>
<clus scale="  169.383">  1  5  2 -1</clus>
</clustering>
</event>
<event>
 9    1  0.3312826E-006  0.1681023E+03  0.7546771E-02  0.1194782E+00
         21   -1    0    0  501  502  0.00000000000E+00  0.00000000000E+00  0.17574132095E+02  0.17574132095E+02  0.00000000000E+00 0. -1.
          2   -1    0    0  502    0 -0.00000000000E+00 -0.00000000000E+00 -0.12888815204E+04  0.12888815204E+04  0.00000000000E+00 0. -1.
         23    2    1    2    0    0 -0.46934917266E+02 -0.61444826629E+02 -0.35739995841E+03  0.37721662347E+03  0.92624497688E+02 0.  0.
         23    2    1    2    0    0  0.15735562828E+02 -0.67039234234E+01 -0.45182444907E+03  0.46111689430E+03  0.90503629238E+02 0.  0.
        -11    1    4    4    0    0 -0.32724713459E+02  0.17155450137E+02 -0.22012884609E+03  0.22320825527E+03  0.00000000000E+00 0. -1.
         11    1    4    4    0    0  0.48460276287E+02 -0.23859373560E+02 -0.23169560298E+03  0.23790863903E+03  0.00000000000E+00 0.  1.
        -13    1    3    3    0    0  0.25147013958E+02  0.74362897413E+00 -0.85969744269E+02  0.89575232206E+02  0.00000000000E+00 0.  1.
         13    1    3    3    0    0 -0.72081931224E+02 -0.62188455603E+02 -0.27143021414E+03  0.28764139127E+03  0.00000000000E+00 0. -1.
          2    1    1    2  501    0  0.31199354438E+02  0.68148750052E+02 -0.46208298079E+03  0.46812213469E+03  0.00000000000E+00 0. -1.
<scales pt_clust_5="13000.00000" pt_clust_6="13000.00000" pt_clust_7="13000.00000" pt_clust_8="13000.00000" pt_clust_9="13000.00000"></scales>
<clustering>
<clus scale="   90.504">  5  6 -1 -1</clus>
<clus scale="   74.951">  5  9 -1 -1</clus>
<clus scale="   92.624">  7  8 -1 -1</clus>
<clus scale="  120.655">  2  7  1 -1</clus>
<clus scale="  168.102">  1  5  2 -1</clus>
</clustering>
</event>
<event>
 9    1  0.3312826E-006  0.2315310E+03  0.7546771E-02  0.1151691E+00
         -1   -1    0    0    0  501 -0.00000000000E+00  0.00000000000E+00  0.12477053896E+03  0.12477053896E+03  0.00000000000E+00 0.  1.
         21   -1    0    0  501  502  0.00000000000E+00 -0.00000000000E+00 -0.26112871260E+03  0.26112871260E+03  0.00000000000E+00 0. -1.
         23    2    1    2    0    0  0.28248031701E+02  0.77221820178E+02 -0.82513370921E+02  0.14818959274E+03  0.91599881058E+02 0.  0.
         23    2    1    2    0    0  0.51941360770E+02  0.16113018677E+01 -0.73707337964E+02  0.12351894070E+03  0.84401752292E+02 0.  0.
        -13    1    4    4    0    0 -0.89810390976E+01 -0.29331790203E+02 -0.20168553550E+02  0.36712171444E+02  0.00000000000E+00 0.  1.
         13    1    4    4    0    0  0.60922399867E+02  0.30943092071E+02 -0.53538784414E+02  0.86806769258E+02  0.00000000000E+00 0. -1.
        -13    1    3    3    0    0  0.46632311132E+02  0.39663932558E+02 -0.86731957258E+02  0.10616135077E+03  0.00000000000E+00 0. -1.
         13    1    3    3    0    0 -0.18384279431E+02  0.37557887620E+02  0.42185863362E+01  0.42028241973E+02  0.00000000000E+00 0.  1.
         -1    1    1    2    0  502 -0.80189392471E+02 -0.78833122046E+02  0.19862535252E+02  0.11419071811E+03  0.00000000000E+00 0.  1.
<scales pt_clust_5="13000.00000" pt_clust_6="13000.00000" pt_clust_7="13000.00000" pt_clust_8="13000.00000" pt_clust_9="13000.00000"></scales>
<clustering>
<clus scale="   84.402">  5  6 -1 -1</clus>
<clus scale="   91.600">  7  8 -1 -1</clus>
<clus scale="  112.450">  5  9 -1 -1</clus>
<clus scale="  123.092">  1  7  2 -1</clus>
<clus scale="  231.531">  2  5  1 -1</clus>
</clustering>
</event>
<event>
 9    1  0.3312826E-006  0.2723867E+03  0.7546771E-02  0.1143211E+00
          4   -1    0    0  502    0 -0.00000000000E+00  0.00000000000E+00  0.80624513877E+02  0.80624513877E+02  0.00000000000E+00 0. -1.
         21   -1    0    0  501  502  0.00000000000E+00 -0.00000000000E+00 -0.12887415792E+04  0.12887415792E+04  0.00000000000E+00 0. -1.
         23    2    1    2    0    0  0.67610104722E+01 -0.38547793046E+01  0.33377816740E+02  0.98341294696E+02  0.92175707245E+02 0.  0.
         23    2    1    2    0    0  0.11139621494E+03  0.67848777525E+01 -0.51073172337E+03  0.53076504026E+03  0.91703235671E+02 0.  0.
        -11    1    3    3    0    0  0.53923095617E+01 -0.43270626024E+02 -0.42746246528E+01  0.43814341200E+02  0.00000000000E+00 0.  1.
         11    1    3    3    0    0  0.13687009105E+01  0.39415846719E+02  0.37652441392E+02  0.54526953496E+02  0.00000000000E+00 0. -1.
        -13    1    4    4    0    0  0.31654875913E+02  0.14464025397E+02 -0.38964093389E+02  0.52244040554E+02  0.00000000000E+00 0. -1.
         13    1    4    4    0    0  0.79741339029E+02 -0.76791476445E+01 -0.47176762998E+03  0.47852099971E+03  0.00000000000E+00 0.  1.
          4    1    1    2  501    0 -0.11815722541E+03 -0.29300984478E+01 -0.73076315868E+03  0.74025975812E+03  0.00000000000E+00 0. -1.
<scales pt_clust_5="13000.00000" pt_clust_6="13000.00000" pt_clust_7="13000.00000" pt_clust_8="13000.00000" pt_clust_9="13000.00000"></scales>
<clustering>
<clus scale="   91.703">  7  8 -1 -1</clus>
<clus scale="   92.176">  5  6 -1 -1</clus>
<clus scale="   92.504">  1  5  2 -1</clus>
<clus scale="  116.058">  7  9 -1 -1</clus>
<clus scale="  272.387">  2  5  1 -1</clus>
</clustering>
</event>
<event>
 9    1  0.3312826E-006  0.3595145E+03  0.7546771E-02  0.1100259E+00
         21   -1    0    0  501  502  0.00000000000E+00  0.00000000000E+00  0.77187827210E+03  0.77187827210E+03  0.00000000000E+00 0.  1.
         -3   -1    0    0    0  501 -0.00000000000E+00 -0.00000000000E+00 -0.81861327668E+02  0.81861327668E+02  0.00000000000E+00 0.  1.
         23    2    1    2    0    0 -0.37709596401E+02 -0.64908030120E+02  0.69103976024E+02  0.13625536956E+03  0.90305593385E+02 0.  0.
         23    2    1    2    0    0  0.17451261801E+03 -0.19863814765E+02  0.36173592778E+03  0.41240379689E+03  0.91513852806E+02 0.  0.
        -11    1    4    4    0    0  0.12320247568E+03 -0.46730016601E+01  0.32471732674E+03  0.34733561470E+03  0.00000000000E+00 0.  1.
         11    1    4    4    0    0  0.51310142340E+02 -0.15190813105E+02  0.37018601048E+02  0.65068182188E+02  0.00000000000E+00 0. -1.
        -13    1    3    3    0    0  0.28793318120E+02 -0.32494588651E+02  0.23979798266E+02  0.49598227638E+02  0.00000000000E+00 0.  1.
         13    1    3    3    0    0 -0.66502914520E+02 -0.32413441468E+02  0.45124177758E+02  0.86657141921E+02  0.00000000000E+00 0. -1.
         -3    1    1    2    0  502 -0.13680302161E+03  0.84771844885E+02  0.25917704063E+03  0.30508043332E+03  0.00000000000E+00 0.  1.
<scales pt_clust_5="13000.00000" pt_clust_6="13000.00000" pt_clust_7="13000.00000" pt_clust_8="13000.00000" pt_clust_9="13000.00000"></scales>
<clustering>
<clus scale="   90.306">  7  8 -1 -1</clus>
<clus scale="   91.514">  5  6 -1 -1</clus>
<clus scale="  117.432">  2  7  1 -1</clus>
<clus scale="  163.853">  5  9 -1 -1</clus>
<clus scale="  359.515">  1  5  2 -1</clus>
</clustering>
</event>
<event>
 9    1  0.3312826E-006  0.3026184E+03  0.7546771E-02  0.1126766E+00
          1   -1    0    0  502    0 -0.00000000000E+00  0.00000000000E+00  0.23235499680E+03  0.23235499680E+03  0.00000000000E+00 0. -1.
         21   -1    0    0  501  502  0.00000000000E+00 -0.00000000000E+00 -0.26131612644E+03  0.26131612644E+03  0.00000000000E+00 0. -1.
         23    2    1    2    0    0 -0.50437512522E+02 -0.12819874016E+02  0.11979028003E+03  0.15646958563E+03  0.86166862522E+02 0.  0.
         23    2    1    2    0    0  0.15191551388E+03  0.24837096161E+02 -0.29772077439E+02  0.18036314981E+03  0.89158760149E+02 0.  0.
        -13    1    3    3    0    0 -0.33806744675E+01 -0.42394968563E+02  0.69692125826E+02  0.81644073401E+02  0.00000000000E+00 0.  1.
         13    1    3    3    0    0 -0.47056838055E+02  0.29575094546E+02  0.50098154206E+02  0.74825512226E+02  0.00000000000E+00 0. -1.
        -13    1    4    4    0    0  0.10365284994E+03  0.15951386440E+02  0.23979273786E+02  0.10757957800E+03  0.00000000000E+00 0.  1.
         13    1    4    4    0    0  0.48262663938E+02  0.88857097211E+01 -0.53751351225E+02  0.72783571815E+02  0.00000000000E+00 0. -1.
          1    1    1    2  501    0 -0.10147800136E+03 -0.12017222145E+02 -0.11897933223E+03  0.15683838780E+03  0.00000000000E+00 0. -1.
<scales pt_clust_5="13000.00000" pt_clust_6="13000.00000" pt_clust_7="13000.00000" pt_clust_8="13000.00000" pt_clust_9="13000.00000"></scales>
<clustering>
<clus scale="   86.167">  5  6 -1 -1</clus>
<clus scale="   89.159">  7  8 -1 -1</clus>
<clus scale="  100.663">  1  5  2 -1</clus>
<clus scale="  112.561">  7  9 -1 -1</clus>
<clus scale="  302.618">  2  5  1 -1</clus>
</clustering>
</event>
<event>
 9    1  0.3312826E-006  0.2571622E+03  0.7546771E-02  0.1147661E+00
         -1   -1    0    0    0  501 -0.00000000000E+00  0.00000000000E+00  0.49546944868E+02  0.49546944868E+02  0.00000000000E+00 0.  1.
         21   -1    0    0  501  502  0.00000000000E+00 -0.00000000000E+00 -0.72683681715E+03  0.72683681715E+03  0.00000000000E+00 0.  1.
         23    2    1    2    0    0 -0.15258667962E+02 -0.34589096240E+02 -0.83833486421E+02  0.12960490721E+03  0.91324399805E+02 0.  0.
         23    2    1    2    0    0 -0.59637249271E+02  0.92000959731E+02 -0.24731994355E+03  0.28800879309E+03  0.98798442960E+02 0.  0.
        -11    1    3    3    0    0  0.26921892000E+02  0.10500826945E+02 -0.53515574815E+02  0.60819177758E+02  0.00000000000E+00 0. -1.
         11    1    3    3    0    0 -0.42180559962E+02 -0.45089923185E+02 -0.30317911606E+02  0.68785729448E+02  0.00000000000E+00 0.  1.
        -13    1    4    4    0    0 -0.86003915896E+02  0.69618992674E+02 -0.20831779316E+03  0.23588086111E+03  0.00000000000E+00 0.  1.
         13    1    4    4    0    0  0.26366666625E+02  0.22381967057E+02 -0.39002150387E+02  0.52127931986E+02  0.00000000000E+00 0. -1.
         -1    1    1    2    0  502  0.74895917233E+02 -0.57411863491E+02 -0.34613644232E+03  0.35877006172E+03  0.00000000000E+00 0.  1.
<scales pt_clust_5="13000.00000" pt_clust_6="13000.00000" pt_clust_7="13000.00000" pt_clust_8="13000.00000" pt_clust_9="13000.00000"></scales>
<clustering>
<clus scale="   91.324">  5  6 -1 -1</clus>
<clus scale="   98.798">  7  8 -1 -1</clus>
<clus scale="   94.369">  7  9 -1 -1</clus>
<clus scale="   98.840">  1  5  2 -1</clus>
<clus scale="  257.162">  2  5  1 -1</clus>
</clustering>
</event>
<event>
 9    1  0.3312826E-006  0.4212532E+03  0.7546771E-02  0.1083952E+00
         21   -1    0    0  501  502  0.00000000000E+00  0.00000000000E+00  0.87654843342E+02  0.87654843342E+02  0.00000000000E+00 0.  1.
         -2   -1    0    0    0  501 -0.00000000000E+00 -0.00000000000E+00 -0.91814660107E+03  0.91814660107E+03  0.00000000000E+00 0.  1.
         23    2    1    2    0    0 -0.48857104903E+02  0.43582156339E+02 -0.34631566262E+03  0.36402208902E+03  0.91055598754E+02 0.  0.
         23    2    1    2    0    0  0.19198545195E+03 -0.23803698371E+02 -0.10986728362E+03  0.24055124386E+03  0.91482517963E+02 0.  0.
        -11    1    4    4    0    0  0.17650815000E+03 -0.33797690087E+01 -0.63573867211E+02  0.18763844608E+03  0.00000000000E+00 0.  1.
         11    1    4    4    0    0  0.15477301959E+02 -0.20423929362E+02 -0.46293416404E+02  0.52912797779E+02  0.00000000000E+00 0. -1.
        -13    1    3    3    0    0 -0.12262359088E+02  0.66829455703E+02 -0.18901532676E+03  0.20085650438E+03  0.00000000000E+00 0.  1.
         13    1    3    3    0    0 -0.36594745816E+02 -0.23247299364E+02 -0.15730033586E+03  0.16316558464E+03  0.00000000000E+00 0. -1.
         -2    1    1    2    0  502 -0.14312834705E+03 -0.19778457968E+02 -0.37430881149E+03  0.40122811154E+03  0.00000000000E+00 0.  1.
<scales pt_clust_5="13000.00000" pt_clust_6="13000.00000" pt_clust_7="13000.00000" pt_clust_8="13000.00000" pt_clust_9="13000.00000"></scales>
<clustering>
<clus scale="   91.056">  7  8 -1 -1</clus>
<clus scale="   91.483">  5  6 -1 -1</clus>
<clus scale="  112.150">  2  7  1 -1</clus>
<clus scale="  177.077">  5  9 -1 -1</clus>
<clus scale="  421.253">  1  5  2 -1</clus>
</clustering>
</event>
<event>
 9    1  0.3312826E-006  0.1345706E+03  0.7546771E-02  0.1237277E+00
         21   -1    0    0  501  502  0.00000000000E+00  0.00000000000E+00  0.35818451077E+03  0.35818451077E+03  0.00000000000E+00 0. -1.
          2   -1    0    0  502    0 -0.00000000000E+00 -0.00000000000E+00 -0.37760617991E+02  0.37760617991E+02  0.00000000000E+00 0. -1.
         23    2    1    2    0    0  0.17434868187E+01  0.17258241511E+02  0.10657956922E+03  0.14328205240E+03  0.94178847515E+02 0.  0.
         23    2    1    2    0    0 -0.14934960163E+02  0.21129243355E+02  0.14489480815E+03  0.17265276678E+03  0.90249512402E+02 0.  0.
        -11    1    3    3    0    0 -0.40893021551E+02  0.93687703971E+01  0.85131194928E+02  0.94906972453E+02  0.00000000000E+00 0. -1.
         11    1    3    3    0    0  0.42636508370E+02  0.78894711138E+01  0.21448374293E+02  0.48375079950E+02  0.00000000000E+00 0.  1.
        -13    1    4    4    0    0  0.17661457300E+02  0.39673385639E+02  0.12006087709E+03  0.12767348515E+03  0.00000000000E+00 0. -1.
         13    1    4    4    0    0 -0.32596417464E+02 -0.18544142284E+02  0.24833931062E+02  0.44979281636E+02  0.00000000000E+00 0.  1.
          2    1    1    2  501    0  0.13191473345E+02 -0.38387484866E+02  0.68949515404E+02  0.80010309572E+02  0.00000000000E+00 0. -1.
<scales pt_clust_5="13000.00000" pt_clust_6="13000.00000" pt_clust_7="13000.00000" pt_clust_8="13000.00000" pt_clust_9="13000.00000"></scales>
<clustering>
<clus scale="   90.250">  7  8 -1 -1</clus>
<clus scale="   40.591">  7  9 -1 -1</clus>
<clus scale="   94.179">  5  6 -1 -1</clus>
<clus scale="   95.763">  2  5  1 -1</clus>
<clus scale="  134.571">  1  5  2 -1</clus>
</clustering>
</event>
<event>
 9    1  0.3312826E-006  0.2254585E+03  0.7546771E-02  0.1138447E+00
         21   -1    0    0  501  502  0.00000000000E+00  0.00000000000E+00  0.74224430682E+02  0.74224430682E+02  0.00000000000E+00 0.  1.
          1   -1    0    0  502    0 -0.00000000000E+00 -0.00000000000E+00 -0.56929098053E+03  0.56929098053E+03  0.00000000000E+00 0. -1.
         23    2    1    2    0    0 -0.80603251437E+02  0.13747887635E+03 -0.25876831855E+03  0.31691411686E+03  0.89867620370E+02 0.  0.
         23    2    1    2    0    0  0.55540189517E+02 -0.20286180629E+02 -0.12752975679E+03  0.16475919214E+03  0.85938994358E+02 0.  0.
        -13    1    4    4    0    0  0.75649860529E+02 -0.13386492074E+02 -0.11943497728E+03  0.14200990587E+03  0.00000000000E+00 0. -1.
         13    1    4    4    0    0 -0.20109671012E+02 -0.68996885545E+01 -0.80947795136E+01  0.22749286269E+02  0.00000000000E+00 0.  1.
        -13    1    3    3    0    0 -0.20280621258E+01  0.20248781925E+02  0.19568248449E+01  0.20443956782E+02  0.00000000000E+00 0.  1.
         13    1    3    3    0    0 -0.78575189311E+02  0.11723009443E+03 -0.26072514340E+03  0.29647016007E+03  0.00000000000E+00 0. -1.
          1    1    1    2  501    0  0.25063061919E+02 -0.11719269572E+03 -0.10876847450E+03  0.16184210222E+03  0.00000000000E+00 0. -1.
<scales pt_clust_5="13000.00000" pt_clust_6="13000.00000" pt_clust_7="13000.00000" pt_clust_8="13000.00000" pt_clust_9="13000.00000"></scales>
<clustering>
<clus scale="   85.939">  5  6 -1 -1</clus>
<clus scale="   89.868">  7  8 -1 -1</clus>
<clus scale="  119.843">  5  9 -1 -1</clus>
<clus scale="  182.958">  2  7  1 -1</clus>
<clus scale="  225.459">  1  5  2 -1</clus>
</clustering>
</event>
<event>
 9    1  0.3312826E-006  0.3699368E+03  0.7546771E-02  0.1080961E+00
         21   -1    0    0  501  502  0.00000000000E+00  0.00000000000E+00  0.15243681344E+03  0.15243681344E+03  0.00000000000E+00 0. -1.
          2   -1    0    0  502    0 -0.00000000000E+00 -0.00000000000E+00 -0.68177765760E+03  0.68177765760E+03  0.00000000000E+00 0. -1.
         23    2    1    2    0    0 -0.72611524764E+02 -0.13628397826E+03 -0.40663337620E+03  0.44445768446E+03  0.91357399149E+02 0.  0.
         23    2    1    2    0    0  0.18334777471E+01  0.18401163031E+03 -0.19361088573E+03  0.27878491915E+03  0.79826150739E+02 0.  0.
        -11    1    3    3    0    0 -0.40955266325E+02 -0.16459161579E+01 -0.10002842839E+03  0.10810055211E+03  0.00000000000E+00 0.  1.
         11    1    3    3    0    0 -0.31656258440E+02 -0.13463806210E+03 -0.30660494781E+03  0.33635713235E+03  0.00000000000E+00 0. -1.
        -13    1    4    4    0    0 -0.68926533657E+01  0.42495340884E+02 -0.10003206897E+03  0.10890260552E+03  0.00000000000E+00 0. -1.
         13    1    4    4    0    0  0.87261311128E+01  0.14151628942E+03 -0.93578816764E+02  0.16988231363E+03  0.00000000000E+00 0.  1.
          2    1    1    2  501    0  0.70778047017E+02 -0.47727652051E+02  0.70903417764E+02  0.11097186743E+03  0.00000000000E+00 0. -1.
<scales pt_clust_5="13000.00000" pt_clust_6="13000.00000" pt_clust_7="13000.00000" pt_clust_8="13000.00000" pt_clust_9="13000.00000"></scales>
<clustering>
<clus scale="   79.826">  7  8 -1 -1</clus>
<clus scale="   85.367">  7  9 -1 -1</clus>
<clus scale="   91.357">  5  6 -1 -1</clus>
<clus scale="  179.421">  2  5  1 -1</clus>
<clus scale="  369.937">  1  5  2 -1</clus>
</clustering>
</event>
<event>
 9    1  0.3312826E-006  0.1601353E+03  0.7546771E-02  0.1208467E+00
         -4   -1    0    0    0  501 -0.00000000000E+00  0.00000000000E+00  0.11901581894E+03  0.11901581894E+03  0.00000000000E+00 0.  1.
         21   -1    0    0  501  502  0.00000000000E+00 -0.00000000000E+00 -0.16720992684E+03  0.16720992684E+03  0.00000000000E+00 0. -1.
         23    2    1    2    0    0  0.48543677461E+01 -0.66677603465E+02 -0.69187902730E+02  0.12472019424E+03  0.79364307319E+02 0.  0.
         23    2    1    2    0    0  0.45841685398E+01  0.93406920692E+02  0.22760681683E+02  0.13310371611E+03  0.91938474957E+02 0.  0.
        -11    1    4    4    0    0  0.26752292130E+02  0.62342409687E+02 -0.24705337599E+02  0.72198441019E+02  0.00000000000E+00 0. -1.
         11    1    4    4    0    0 -0.22168123590E+02  0.31064511005E+02  0.47466019282E+02  0.60905275091E+02  0.00000000000E+00 0.  1.
        -13    1    3    3    0    0 -0.35819631434E+02 -0.33420997331E+02 -0.20555055467E+02  0.53127388077E+02  0.00000000000E+00 0.  1.
         13    1    3    3    0    0  0.40673999180E+02 -0.33256606134E+02 -0.48632847264E+02  0.71592806160E+02  0.00000000000E+00 0. -1.
         -4    1    1    2    0  502 -0.94385362858E+01 -0.26729317227E+02 -0.17668868510E+01  0.28401835430E+02  0.00000000000E+00 0.  1.
<scales pt_clust_5="13000.00000" pt_clust_6="13000.00000" pt_clust_7="13000.00000" pt_clust_8="13000.00000" pt_clust_9="13000.00000"></scales>
<clustering>
<clus scale="   79.364">  7  8 -1 -1</clus>
<clus scale="   91.938">  5  6 -1 -1</clus>
<clus scale="   28.347">  5  9 -1 -1</clus>
<clus scale="  103.770">  1  7  2 -1</clus>
<clus scale="  160.135">  2  5  1 -1</clus>
</clustering>
</event>
<event>
 9    1  0.3312826E-006  0.1968511E+03  0.7546771E-02  0.1181686E+00
         21   -1    0    0  501  502  0.00000000000E+00  0.00000000000E+00  0.36407500065E+02  0.36407500065E+02  0.00000000000E+00 0. -1.
          1   -1    0    0  502    0 -0.00000000000E+00 -0.00000000000E+00 -0.60810991787E+03  0.60810991787E+03  0.00000000000E+00 0. -1.
         23    2    1    2    0    0  0.24191567671E+02 -0.32427772419E+02 -0.20700153692E+03  0.23008153637E+03  0.91929781452E+02 0.  0.
         23    2    1    2    0    0  0.18084482089E+02 -0.74132579407E+01 -0.33890527737E+03  0.35087500332E+03  0.88738244495E+02 0.  0.
        -11    1    3    3    0    0 -0.33145123804E+02  0.24951334762E+01 -0.64712185997E+02  0.72749515047E+02  0.00000000000E+00 0.  1.
         11    1    3    3    0    0  0.57336691475E+02 -0.34922905896E+02 -0.14228935093E+03  0.15733202132E+03  0.00000000000E+00 0. -1.
        -11    1    4    4    0    0 -0.19392363047E+02 -0.37313024070E+02 -0.18275237929E+03  0.18752801830E+03  0.00000000000E+00 0. -1.
         11    1    4    4    0    0  0.37476845136E+02  0.29899766129E+02 -0.15615289808E+03  0.16334698502E+03  0.00000000000E+00 0.  1.
          1    1    1    2  501    0 -0.42276049760E+02  0.39841030360E+02 -0.25795603506E+02  0.63560878248E+02  0.00000000000E+00 0. -1.
<scales pt_clust_5="13000.00000" pt_clust_6="13000.00000" pt_clust_7="13000.00000" pt_clust_8="13000.00000" pt_clust_9="13000.00000"></scales>
<clustering>
<clus scale="   88.738">  7  8 -1 -1</clus>
<clus scale="   58.091">  7  9 -1 -1</clus>
<clus scale="   91.930">  5  6 -1 -1</clus>
<clus scale="  100.438">  2  5  1 -1</clus>
<clus scale="  196.851">  1  5  2 -1</clus>
</clustering>
</event>
<event>
 9    1  0.3312826E-006  0.5943445E+03  0.7546771E-02  0.1011408E+00
         21   -1    0    0  501  502  0.00000000000E+00  0.00000000000E+00  0.33338278889E+03  0.33338278889E+03  0.00000000000E+00 0. -1.
          2   -1    0    0  502    0 -0.00000000000E+00 -0.00000000000E+00 -0.62752508237E+03  0.62752508237E+03  0.00000000000E+00 0. -1.
         23    2    1    2    0    0  0.16302332920E+03  0.26017930712E+03 -0.92277860021E+02  0.33321795242E+03  0.90824680854E+02 0.  0.
         23    2    1    2    0    0 -0.32979656964E+03 -0.18154757899E+03 -0.53623406473E+02  0.39110660480E+03  0.91452751834E+02 0.  0.
        -13    1    3    3    0    0  0.54891082938E+02  0.14643110593E+03 -0.80365860461E+02  0.17582312503E+03  0.00000000000E+00 0. -1.
         13    1    3    3    0    0  0.10813224626E+03  0.11374820119E+03 -0.11911999560E+02  0.15739482739E+03  0.00000000000E+00 0.  1.
        -13    1    4    4    0    0 -0.29512384283E+03 -0.18174727338E+03 -0.68626303464E+02  0.35332665271E+03  0.00000000000E+00 0. -1.
         13    1    4    4    0    0 -0.34672726808E+02  0.19969439176E+00  0.15002896990E+02  0.37779952094E+02  0.00000000000E+00 0.  1.
          2    1    1    2  501    0  0.16677324044E+03 -0.78631728125E+02 -0.14824102699E+03  0.23658331403E+03  0.00000000000E+00 0. -1.
<scales pt_clust_5="13000.00000" pt_clust_6="13000.00000" pt_clust_7="13000.00000" pt_clust_8="13000.00000" pt_clust_9="13000.00000"></scales>
<clustering>
<clus scale="   90.825">  5  6 -1 -1</clus>
<clus scale="   91.453">  7  8 -1 -1</clus>
<clus scale="  184.381">  7  9 -1 -1</clus>
<clus scale="  320.186">  2  5  1 -1</clus>
<clus scale="  594.345">  1  5  2 -1</clus>
</clustering>
</event>
<event>
 9    1  0.3312826E-006  0.2746379E+03  0.7546771E-02  0.1142309E+00
          2   -1    0    0  502    0 -0.00000000000E+00  0.00000000000E+00  0.72606560484E+03  0.72606560484E+03  0.00000000000E+00 0. -1.
         21   -1    0    0  501  502  0.00000000000E+00 -0.00000000000E+00 -0.46345469347E+02  0.46345469347E+02  0.00000000000E+00 0. -1.
         23    2    1    2    0    0  0.25918578300E+02  0.54773750394E+01  0.16766268948E+03  0.19135274266E+03  0.88336404401E+02 0.  0.
         23    2    1    2    0    0  0.71889747426E+02 -0.18339693169E+02  0.44982240550E+03  0.46441739498E+03  0.88537224629E+02 0.  0.
        -13    1    4    4    0    0  0.42353967699E+02 -0.53448073216E+02  0.23197542643E+03  0.24179154985E+03  0.00000000000E+00 0.  1.
         13    1    4    4    0    0  0.29535779726E+02  0.35108380047E+02  0.21784697906E+03  0.22262584513E+03  0.00000000000E+00 0. -1.
        -13    1    3    3    0    0  0.49594264481E+02 -0.23067445632E+02  0.90589538679E+02  0.10582137136E+03  0.00000000000E+00 0. -1.
         13    1    3    3    0    0 -0.23675686182E+02  0.28544820671E+02  0.77073150802E+02  0.85531371308E+02  0.00000000000E+00 0.  1.
          2    1    1    2  501    0 -0.97808325725E+02  0.12862318129E+02  0.62235040510E+02  0.11664093654E+03  0.00000000000E+00 0. -1.
<scales pt_clust_5="13000.00000" pt_clust_6="13000.00000" pt_clust_7="13000.00000" pt_clust_8="13000.00000" pt_clust_9="13000.00000"></scales>
<clustering>
<clus scale="   88.336">  7  8 -1 -1</clus>
<clus scale="   88.537">  5  6 -1 -1</clus>
<clus scale="   92.223">  1  7  2 -1</clus>
<clus scale="   94.573">  5  9 -1 -1</clus>
<clus scale="  274.638">  2  5  1 -1</clus>
</clustering>
</event>
<event>
 9    1  0.3312826E-006  0.2311839E+03  0.7546771E-02  0.1131756E+00
         21   -1    0    0  501  502  0.00000000000E+00  0.00000000000E+00  0.47935426052E+03  0.47935426052E+03  0.00000000000E+00 0.  1.
         -1   -1    0    0    0  501 -0.00000000000E+00 -0.00000000000E+00 -0.10497988029E+03  0.10497988029E+03  0.00000000000E+00 0.  1.
         23    2    1    2    0    0 -0.16518696324E+03 -0.65798598695E+02  0.93370342876E+02  0.22045332766E+03  0.90914577113E+02 0.  0.
         23    2    1    2    0    0  0.11731655180E+03 -0.17563621796E+01  0.18679529842E+03  0.23845938148E+03  0.90576680054E+02 0.  0.
        -11    1    3    3    0    0 -0.67179244578E+02 -0.25248956368E+01 -0.56129995947E+01  0.67460594161E+02  0.00000000000E+00 0.  1.
         11    1    3    3    0    0 -0.98007718662E+02 -0.63273703058E+02  0.98983342471E+02  0.15299273350E+03  0.00000000000E+00 0. -1.
        -13    1    4    4    0    0  0.16703601127E+02 -0.31236501542E+02  0.86059197553E+02  0.93064036032E+02  0.00000000000E+00 0.  1.
         13    1    4    4    0    0  0.10061295067E+03  0.29480139363E+02  0.10073610087E+03  0.14539534545E+03  0.00000000000E+00 0. -1.
         -1    1    1    2    0  502  0.47870411441E+02  0.67554960875E+02  0.94208738938E+02  0.12542143167E+03  0.00000000000E+00 0.  1.
<scales pt_clust_5="13000.00000" pt_clust_6="13000.00000" pt_clust_7="13000.00000" pt_clust_8="13000.00000" pt_clust_9="13000.00000"></scales>
<clustering>
<clus scale="   90.577">  7  8 -1 -1</clus>
<clus scale="   82.796">  7  9 -1 -1</clus>
<clus scale="   90.915">  5  6 -1 -1</clus>
<clus scale="  199.704">  2  5  1 -1</clus>
<clus scale="  231.184">  1  5  2 -1</clus>
</clustering>
</event>
<event>
 9    1  0.3312826E-006  0.2528437E+03  0.7546771E-02  0.1122105E+00
         21   -1    0    0  501  502  0.00000000000E+00  0.00000000000E+00  0.23299836667E+03  0.23299836667E+03  0.00000000000E+00 0. -1.
          1   -1    0    0  502    0 -0.00000000000E+00 -0.00000000000E+00 -0.41639174938E+03  0.41639174938E+03  0.00000000000E+00 0. -1.
         23    2    1    2    0    0 -0.11818664315E+03  0.12494234138E+03 -0.31081580698E+03  0.36625336337E+03  0.89198593156E+02 0.  0.
         23    2    1    2    0    0  0.43283410323E+02 -0.17767821192E+02  0.27107094345E+01  0.10244396400E+03  0.91094833741E+02 0.  0.
        -13    1    4    4    0    0  0.40203089451E+02  0.88038098759E+01 -0.36478834764E+02  0.54995462135E+02  0.00000000000E+00 0.  1.
         13    1    4    4    0    0  0.30803208721E+01 -0.26571631068E+02  0.39189544198E+02  0.47448501860E+02  0.00000000000E+00 0. -1.
        -13    1    3    3    0    0 -0.34452079159E+02  0.11768138972E+02 -0.16442205998E+02  0.39947227580E+02  0.00000000000E+00 0.  1.
         13    1    3    3    0    0 -0.83734563990E+02  0.11317420241E+03 -0.29437360099E+03  0.32630613579E+03  0.00000000000E+00 0. -1.
          1    1    1    2  501    0  0.74903232826E+02 -0.10717452019E+03  0.12471171484E+03  0.18069278868E+03  0.00000000000E+00 0. -1.
<scales pt_clust_5="13000.00000" pt_clust_6="13000.00000" pt_clust_7="13000.00000" pt_clust_8="13000.00000" pt_clust_9="13000.00000"></scales>
<clustering>
<clus scale="   89.199">  7  8 -1 -1</clus>
<clus scale="   91.095">  5  6 -1 -1</clus>
<clus scale="  130.755">  5  9 -1 -1</clus>
<clus scale="  193.740">  2  7  1 -1</clus>
<clus scale="  252.844">  1  5  2 -1</clus>
</clustering>
</event>
<event>
 9    1  0.3312826E-006  0.1841248E+03  0.7546771E-02  0.1187517E+00
         21   -1    0    0  501  502  0.00000000000E+00  0.00000000000E+00  0.68628374235E+03  0.68628374235E+03  0.00000000000E+00 0.  1.
          3   -1    0    0  502    0 -0.00000000000E+00 -0.00000000000E+00 -0.33165949360E+02  0.33165949360E+02  0.00000000000E+00 0. -1.
         23    2    1    2    0    0  0.19652702425E+02 -0.54719224625E+02  0.33477395253E+03  0.35169332473E+03  0.90742344631E+02 0.  0.
         23    2    1    2    0    0 -0.82237162739E+01 -0.86515809247E+01  0.86933172431E+02  0.12755358182E+03  0.92574620740E+02 0.  0.
        -11    1    4    4    0    0  0.36608389066E+02  0.17586839282E+01  0.69054797207E+02  0.78178207555E+02  0.00000000000E+00 0.  1.
         11    1    4    4    0    0 -0.44832105340E+02 -0.10410264853E+02  0.17878375224E+02  0.49375374268E+02  0.00000000000E+00 0. -1.
        -13    1    3    3    0    0  0.56183413163E+02 -0.35018468978E+02  0.21159740413E+03  0.22171226966E+03  0.00000000000E+00 0.  1.
         13    1    3    3    0    0 -0.36530710738E+02 -0.19700755647E+02  0.12317654840E+03  0.12998105507E+03  0.00000000000E+00 0. -1.
          3    1    1    2  501    0 -0.11428986151E+02  0.63370805550E+02  0.23141066803E+03  0.24020278516E+03  0.00000000000E+00 0. -1.
<scales pt_clust_5="13000.00000" pt_clust_6="13000.00000" pt_clust_7="13000.00000" pt_clust_8="13000.00000" pt_clust_9="13000.00000"></scales>
<clustering>
<clus scale="   90.742">  7  8 -1 -1</clus>
<clus scale="   92.575">  5  6 -1 -1</clus>
<clus scale="   64.393">  5  9 -1 -1</clus>
<clus scale="  107.771">  2  7  1 -1</clus>
<clus scale="  184.125">  1  5  2 -1</clus>
</clustering>
</event>
<event>
 9    1  0.3312826E-006  0.2314987E+03  0.7546771E-02  0.1156595E+00
         21   -1    0    0  501  502  0.00000000000E+00  0.00000000000E+00  0.36486913291E+03  0.36486913291E+03  0.00000000000E+00 0. -1.
          2   -1    0    0  502    0 -0.00000000000E+00 -0.00000000000E+00 -0.16205389233E+03  0.16205389233E+03  0.00000000000E+00 0. -1.
         23    2    1    2    0    0 -0.56857257548E+02 -0.22486781569E+02 -0.98152080554E+02  0.14722187478E+03  0.91115566261E+02 0.  0.
         23    2    1    2    0    0  0.39037958153E+02 -0.13955321614E+02  0.30166640843E+02  0.10587901337E+03  0.92637066415E+02 0.  0.
        -11    1    4    4    0    0  0.21852006342E+02  0.39497590359E+02  0.16780602264E+02  0.48157641530E+02  0.00000000000E+00 0.  1.
         11    1    4    4    0    0  0.17185951811E+02 -0.53452911973E+02  0.13386038578E+02  0.57721371838E+02  0.00000000000E+00 0. -1.
        -11    1    3    3    0    0 -0.36316000331E+02  0.87236571828E+01  0.48404195787E+01  0.37661435665E+02  0.00000000000E+00 0.  1.
         11    1    3    3    0    0 -0.20541257217E+02 -0.31210438752E+02 -0.10299250013E+03  0.10956043911E+03  0.00000000000E+00 0. -1.
          2    1    1    2  501    0  0.17819299394E+02  0.36442103183E+02  0.27080068029E+03  0.27382213709E+03  0.00000000000E+00 0. -1.
<scales pt_clust_5="13000.00000" pt_clust_6="13000.00000" pt_clust_7="13000.00000" pt_clust_8="13000.00000" pt_clust_9="13000.00000"></scales>
<clustering>
<clus scale="   91.116">  7  8 -1 -1</clus>
<clus scale="   92.637">  5  6 -1 -1</clus>
<clus scale="   40.565">  5  9 -1 -1</clus>
<clus scale="  109.729">  2  7  1 -1</clus>
<clus scale="  231.499">  1  5  2 -1</clus>
</clustering>
</event>
<event>
 9    1  0.3950228E-006  0.5291972E+03  0.7546771E-02  0.1061506E+00
          4   -1    0    0  502    0 -0.00000000000E+00  0.00000000000E+00  0.32933367536E+03  0.32933367536E+03  0.00000000000E+00 0. -1.
         21   -1    0    0  501  502  0.00000000000E+00 -0.00000000000E+00 -0.34666218697E+03  0.34666218697E+03  0.00000000000E+00 0. -1.
         23    2    1    2    0    0  0.10993388038E+02 -0.49920022058E+02 -0.94939279889E+02  0.14113783672E+03  0.91068978836E+02 0.  0.
         23    2    1    2    0    0  0.17454790699E+02  0.14074688322E+03  0.27112538273E+03  0.31920384970E+03  0.90927276698E+02 0.  0.
        -11    1    3    3    0    0  0.43017597420E+02 -0.50266914614E+02 -0.39337406810E+02  0.76972124611E+02  0.00000000000E+00 0.  1.
         11    1    3    3    0    0 -0.32024209382E+02  0.34689255598E+00 -0.55601873079E+02  0.64165712112E+02  0.00000000000E+00 0. -1.
        -11    1    4    4    0    0  0.29054846116E+02  0.38354930022E+02  0.29294396719E+02  0.56333350859E+02  0.00000000000E+00 0.  1.
         11    1    4    4    0    0 -0.11600055416E+02  0.10239195320E+03  0.24183098601E+03  0.26287049884E+03  0.00000000000E+00 0. -1.
          4    1    1    2  501    0 -0.28448178737E+02 -0.90826861160E+02 -0.19351461445E+03  0.21565417591E+03  0.00000000000E+00 0. -1.
<scales pt_clust_5="13000.00000" pt_clust_6="13000.00000" pt_clust_7="13000.00000" pt_clust_8="13000.00000" pt_clust_9="13000.00000"></scales>
<clustering>
<clus scale="   90.927">  7  8 -1 -1</clus>
<clus scale="   91.069">  5  6 -1 -1</clus>
<clus scale="   95.178">  7  9 -1 -1</clus>
<clus scale="  104.434">  1  5  2 -1</clus>
<clus scale="  529.197">  2  5  1 -1</clus>
</clustering>
</event>
<event>
 9    1  0.3312826E-006  0.3547620E+03  0.7546771E-02  0.1104704E+00
          1   -1    0    0  502    0 -0.00000000000E+00  0.00000000000E+00  0.10090201824E+03  0.10090201824E+03  0.00000000000E+00 0. -1.
         21   -1    0    0  501  502  0.00000000000E+00 -0.00000000000E+00 -0.63471394888E+03  0.63471394888E+03  0.00000000000E+00 0. -1.
         23    2    1    2    0    0  0.59979412194E+02 -0.11413686646E+02 -0.19307465165E+02  0.11065920459E+03  0.90248984589E+02 0.  0.
         23    2    1    2    0    0  0.79985102719E+02  0.38460985569E+02 -0.46963611078E+02  0.13616634492E+03  0.91971890566E+02 0.  0.
        -13    1    4    4    0    0  0.42526582614E+02  0.67666473734E+02 -0.34576558776E+02  0.87079276026E+02  0.00000000000E+00 0. -1.
         13    1    4    4    0    0  0.37458520105E+02 -0.29205488166E+02 -0.12387052302E+02  0.49087068890E+02  0.00000000000E+00 0.  1.
        -13    1    3    3    0    0  0.56551953236E+02  0.32071279020E+02 -0.15756179046E+02  0.66895048628E+02  0.00000000000E+00 0. -1.
         13    1    3    3    0    0  0.34274589579E+01 -0.43484965666E+02 -0.35512861185E+01  0.43764155961E+02  0.00000000000E+00 0.  1.
          1    1    1    2  501    0 -0.13996451491E+03 -0.27047298922E+02 -0.46754085441E+03  0.48879041762E+03  0.00000000000E+00 0. -1.
<scales pt_clust_5="13000.00000" pt_clust_6="13000.00000" pt_clust_7="13000.00000" pt_clust_8="13000.00000" pt_clust_9="13000.00000"></scales>
<clustering>
<clus scale="   90.249">  7  8 -1 -1</clus>
<clus scale="   91.972">  5  6 -1 -1</clus>
<clus scale="  108.962">  1  7  2 -1</clus>
<clus scale="  131.713">  5  9 -1 -1</clus>
<clus scale="  354.762">  2  5  1 -1</clus>
</clustering>
</event>
<event>
 9    1  0.3312826E-006  0.2249716E+03  0.7546771E-02  0.1154650E+00
         21   -1    0    0  501  502  0.00000000000E+00  0.00000000000E+00  0.67177622175E+03  0.67177622175E+03  0.00000000000E+00 0.  1.
          2   -1    0    0  502    0 -0.00000000000E+00 -0.00000000000E+00 -0.45643767359E+02  0.45643767359E+02  0.00000000000E+00 0. -1.
         23    2    1    2    0    0  0.10237946135E+01 -0.86592719756E+02  0.23217858641E+03  0.26375505506E+03  0.90335407296E+02 0.  0.
         23    2    1    2    0    0 -0.30506377693E+02  0.12623405369E+03  0.21097423548E+03  0.26413339585E+03  0.91600476957E+02 0.  0.
        -13    1    3    3    0    0 -0.27873263625E+02  0.77748487384E+00  0.91469106182E+02  0.95624895783E+02  0.00000000000E+00 0.  1.
         13    1    3    3    0    0  0.28897058238E+02 -0.87370204630E+02  0.14070948023E+03  0.16813015928E+03  0.00000000000E+00 0. -1.
        -13    1    4    4    0    0 -0.57322089575E+02  0.11650976440E+03  0.18097023649E+03  0.22273431179E+03  0.00000000000E+00 0.  1.
         13    1    4    4    0    0  0.26815711882E+02  0.97242892894E+01  0.30003998985E+02  0.41399084060E+02  0.00000000000E+00 0. -1.
          2    1    1    2  501    0  0.29482583080E+02 -0.39641333930E+02  0.18297963250E+03  0.18953153819E+03  0.00000000000E+00 0. -1.
<scales pt_clust_5="13000.00000" pt_clust_6="13000.00000" pt_clust_7="13000.00000" pt_clust_8="13000.00000" pt_clust_9="13000.00000"></scales>
<clustering>
<clus scale="   90.335">  5  6 -1 -1</clus>
<clus scale="   91.600">  7  8 -1 -1</clus>
<clus scale="   49.403">  7  9 -1 -1</clus>
<clus scale="  125.139">  2  5  1 -1</clus>
<clus scale="  224.972">  1  5  2 -1</clus>
</clustering>
</event>
<event>
 9    1  0.3312826E-006  0.2225678E+03  0.7546771E-02  0.1149920E+00
          1   -1    0    0  502    0 -0.00000000000E+00  0.00000000000E+00  0.67205944853E+03  0.67205944853E+03  0.00000000000E+00 0. -1.
         21   -1    0    0  501  502  0.00000000000E+00 -0.00000000000E+00 -0.50343451124E+02  0.50343451124E+02  0.00000000000E+00 0.  1.
         23    2    1    2    0    0  0.10829082362E+03  0.19381872313E+02  0.26844499552E+03  0.30486630013E+03  0.93691973399E+02 0.  0.
         23    2    1    2    0    0 -0.98797283146E+02  0.41142153557E+02  0.15083930441E+03  0.20603748095E+03  0.90804007856E+02 0.  0.
        -11    1    3    3    0    0  0.24486827962E+02  0.34986405185E+02  0.16693722477E+03  0.17231276884E+03  0.00000000000E+00 0. -1.
         11    1    3    3    0    0  0.83803995655E+02 -0.15604532872E+02  0.10150777075E+03  0.13255353129E+03  0.00000000000E+00 0.  1.
        -13    1    4    4    0    0 -0.18670851315E+01  0.43319551632E+02  0.48858508758E+02  0.65323988232E+02  0.00000000000E+00 0.  1.
         13    1    4    4    0    0 -0.96930198015E+02 -0.21773980753E+01  0.10198079566E+03  0.14071349271E+03  0.00000000000E+00 0. -1.
          1    1    1    2  501    0 -0.94935404711E+01 -0.60524025870E+02  0.20243169747E+03  0.21149911858E+03  0.00000000000E+00 0. -1.
<scales pt_clust_5="13000.00000" pt_clust_6="13000.00000" pt_clust_7="13000.00000" pt_clust_8="13000.00000" pt_clust_9="13000.00000"></scales>
<clustering>
<clus scale="   90.804">  7  8 -1 -1</clus>
<clus scale="   61.264">  7  9 -1 -1</clus>
<clus scale="   93.692">  5  6 -1 -1</clus>
<clus scale="  144.502">  1  5  2 -1</clus>
<clus scale="  222.568">  2  5  1 -1</clus>
</clustering>
</event>
<event>
 9    1  0.3312826E-006  0.3527230E+03  0.7546771E-02  0.1099860E+00
          1   -1    0    0  502    0 -0.00000000000E+00  0.00000000000E+00  0.18018212416E+04  0.18018212416E+04  0.00000000000E+00 0. -1.
         21   -1    0    0  501  502  0.00000000000E+00 -0.00000000000E+00 -0.32308499424E+02  0.32308499424E+02  0.00000000000E+00 0. -1.
         23    2    1    2    0    0  0.46568267046E+02  0.68813888972E+02  0.57838448074E+03  0.59187371006E+03  0.94243972160E+02 0.  0.
         23    2    1    2    0    0  0.20086306839E+02 -0.18833971889E+03  0.82394428909E+03  0.85039722248E+03  0.91738405506E+02 0.  0.
        -11    1    4    4    0    0 -0.26776722910E+02 -0.16028102634E+02  0.14876215312E+03  0.15200023409E+03  0.00000000000E+00 0.  1.
         11    1    4    4    0    0  0.46863029749E+02 -0.17231161625E+03  0.67518213597E+03  0.69839698839E+03  0.00000000000E+00 0. -1.
        -11    1    3    3    0    0  0.53715481663E+02  0.88759222007E+02  0.50178689677E+03  0.51239988508E+03  0.00000000000E+00 0. -1.
         11    1    3    3    0    0 -0.71472146174E+01 -0.19945333035E+02  0.76597583970E+02  0.79473824978E+02  0.00000000000E+00 0.  1.
          1    1    1    2  501    0 -0.66654573884E+02  0.11952582992E+03  0.36718397233E+03  0.39185880847E+03  0.00000000000E+00 0. -1.
<scales pt_clust_5="13000.00000" pt_clust_6="13000.00000" pt_clust_7="13000.00000" pt_clust_8="13000.00000" pt_clust_9="13000.00000"></scales>
<clustering>
<clus scale="   91.738">  5  6 -1 -1</clus>
<clus scale="   94.244">  7  8 -1 -1</clus>
<clus scale="  125.642">  1  7  2 -1</clus>
<clus scale="  150.319">  5  9 -1 -1</clus>
<clus scale="  352.723">  2  5  1 -1</clus>
</clustering>
</event>
<event>
 9    1  0.3312826E-006  0.1480075E+03  0.7546771E-02  0.1222466E+00
          2   -1    0    0  502    0 -0.00000000000E+00  0.00000000000E+00  0.29471571146E+03  0.29471571146E+03  0.00000000000E+00 0. -1.
         21   -1    0    0  501  502  0.00000000000E+00 -0.00000000000E+00 -0.66177980341E+02  0.66177980341E+02  0.00000000000E+00 0. -1.
         23    2    1    2    0    0 -0.38964149939E+02 -0.47703655626E+01  0.18054286574E+03  0.20529897302E+03  0.89504081388E+02 0.  0.
         23    2    1    2    0    0 -0.92582552718E+01  0.47131221008E+01  0.52836557240E+02  0.10712982818E+03  0.92613009315E+02 0.  0.
        -13    1    3    3    0    0  0.22601637196E+02  0.21056033657E+02  0.53285527718E+02  0.61591704162E+02  0.00000000000E+00 0.  1.
         13    1    3    3    0    0 -0.61565787135E+02 -0.25826399220E+02  0.12725733802E+03  0.14370726886E+03  0.00000000000E+00 0. -1.
        -13    1    4    4    0    0  0.28484884145E+02  0.34408684524E+02  0.31009173027E+02  0.54377522996E+02  0.00000000000E+00 0.  1.
         13    1    4    4    0    0 -0.37743139417E+02 -0.29695562423E+02  0.21827384214E+02  0.52752305185E+02  0.00000000000E+00 0. -1.
          2    1    1    2  501    0  0.48222405211E+02  0.57243461860E-01 -0.48416918573E+01  0.48464890604E+02  0.00000000000E+00 0. -1.
<scales pt_clust_5="13000.00000" pt_clust_6="13000.00000" pt_clust_7="13000.00000" pt_clust_8="13000.00000" pt_clust_9="13000.00000"></scales>
<clustering>
<clus scale="   89.504">  5  6 -1 -1</clus>
<clus scale="   92.613">  7  8 -1 -1</clus>
<clus scale="   48.222">  7  9 -1 -1</clus>
<clus scale="   97.734">  1  5  2 -1</clus>
<clus scale="  148.007">  2  5  1 -1</clus>
</clustering>
</event>
<event>
 9    1  0.3312826E-006  0.2893985E+03  0.7546771E-02  0.1137299E+00
         -1   -1    0    0    0  501 -0.00000000000E+00  0.00000000000E+00  0.20690758301E+03  0.20690758301E+03  0.00000000000E+00 0.  1.
         21   -1    0    0  501  502  0.00000000000E+00 -0.00000000000E+00 -0.31121116121E+03  0.31121116121E+03  0.00000000000E+00 0.  1.
         23    2    1    2    0    0  0.17815866760E+02 -0.48741978776E+01  0.12183218809E+03  0.15084652031E+03  0.87008204913E+02 0.  0.
         23    2    1    2    0    0 -0.10712898802E+03  0.64519363343E+02 -0.56420055290E+02  0.16642949451E+03  0.94213511156E+02 0.  0.
        -11    1    3    3    0    0 -0.10132420068E+02 -0.23709722120E+02  0.14381823958E+01  0.25824121050E+02  0.00000000000E+00 0.  1.
         11    1    3    3    0    0  0.27948286828E+02  0.18835524242E+02  0.12039400569E+03  0.12502239926E+03  0.00000000000E+00 0. -1.
        -11    1    4    4    0    0 -0.11882455413E+03  0.33699505527E+02 -0.46929788234E+02  0.13212621375E+03  0.00000000000E+00 0.  1.
         11    1    4    4    0    0  0.11695566105E+02  0.30819857816E+02 -0.94902670567E+01  0.34303280764E+02  0.00000000000E+00 0. -1.
         -1    1    1    2    0  502  0.89313121261E+02 -0.59645165466E+02 -0.16971571099E+03  0.20084272939E+03  0.00000000000E+00 0.  1.
<scales pt_clust_5="13000.00000" pt_clust_6="13000.00000" pt_clust_7="13000.00000" pt_clust_8="13000.00000" pt_clust_9="13000.00000"></scales>
<clustering>
<clus scale="   87.008">  5  6 -1 -1</clus>
<clus scale="   88.947">  1  5  2 -1</clus>
<clus scale="   94.214">  7  8 -1 -1</clus>
<clus scale="  111.270">  7  9 -1 -1</clus>
<clus scale="  289.399">  2  5  1 -1</clus>
</clustering>
</event>
<event>
 9    1  0.3312826E-006  0.3901386E+03  0.7546771E-02  0.1094812E+00
         21   -1    0    0  501  502  0.00000000000E+00  0.00000000000E+00  0.49102342894E+02  0.49102342894E+02  0.00000000000E+00 0. -1.
          1   -1    0    0  502    0 -0.00000000000E+00 -0.00000000000E+00 -0.13276040277E+04  0.13276040277E+04  0.00000000000E+00 0. -1.
         23    2    1    2    0    0  0.23285604758E+02 -0.56975597825E+02 -0.15787800976E+03  0.19011227482E+03  0.86190329699E+02 0.  0.
         23    2    1    2    0    0 -0.15379980954E+03  0.14011145987E+03 -0.54501836602E+03  0.59055131125E+03  0.91761807495E+02 0.  0.
        -11    1    4    4    0    0 -0.12849491332E+03  0.15065683959E+03 -0.50079290731E+03  0.53851830246E+03  0.00000000000E+00 0. -1.
         11    1    4    4    0    0 -0.25304896221E+02 -0.10545379719E+02 -0.44225458713E+02  0.52033008797E+02  0.00000000000E+00 0.  1.
        -13    1    3    3    0    0 -0.20123852942E+02 -0.16383381654E+02 -0.54609356374E+01  0.26518040457E+02  0.00000000000E+00 0. -1.
         13    1    3    3    0    0  0.43409457700E+02 -0.40592216171E+02 -0.15241707412E+03  0.16359423436E+03  0.00000000000E+00 0.  1.
          1    1    1    2  501    0  0.13051420478E+03 -0.83135862047E+02 -0.57560530901E+03  0.59604278451E+03  0.00000000000E+00 0. -1.
<scales pt_clust_5="13000.00000" pt_clust_6="13000.00000" pt_clust_7="13000.00000" pt_clust_8="13000.00000" pt_clust_9="13000.00000"></scales>
<clustering>
<clus scale="   86.190">  7  8 -1 -1</clus>
<clus scale="   91.762">  5  6 -1 -1</clus>
<clus scale="  105.911">  2  7  1 -1</clus>
<clus scale="  181.163">  5  9 -1 -1</clus>
<clus scale="  390.139">  1  5  2 -1</clus>
</clustering>
</event>
<event>
 9    1  0.3312826E-006  0.3828684E+03  0.7546771E-02  0.1096843E+00
          1   -1    0    0  502    0 -0.00000000000E+00  0.00000000000E+00  0.25932891471E+03  0.25932891471E+03  0.00000000000E+00 0. -1.
         21   -1    0    0  501  502  0.00000000000E+00 -0.00000000000E+00 -0.23247836272E+03  0.23247836272E+03  0.00000000000E+00 0. -1.
         23    2    1    2    0    0 -0.17331221450E+02 -0.56378175779E+02  0.23936493015E+02  0.10892777733E+03  0.88393636852E+02 0.  0.
         23    2    1    2    0    0  0.15333005061E+03  0.13328735831E+03  0.29413968977E+02  0.22440884313E+03  0.90656069843E+02 0.  0.
        -11    1    4    4    0    0  0.24751680883E+02  0.65458374680E+02  0.36373184268E+02  0.78869848840E+02  0.00000000000E+00 0.  1.
         11    1    4    4    0    0  0.12857836973E+03  0.67828983631E+02 -0.69592152904E+01  0.14553899429E+03  0.00000000000E+00 0. -1.
        -13    1    3    3    0    0 -0.20426759588E+02  0.19483226251E+02 -0.29523628041E+01  0.28382478020E+02  0.00000000000E+00 0.  1.
         13    1    3    3    0    0  0.30955381376E+01 -0.75861402030E+02  0.26888855819E+02  0.80545299314E+02  0.00000000000E+00 0. -1.
          1    1    1    2  501    0 -0.13599882916E+03 -0.76909182531E+02 -0.26499910000E+02  0.15847065697E+03  0.00000000000E+00 0. -1.
<scales pt_clust_5="13000.00000" pt_clust_6="13000.00000" pt_clust_7="13000.00000" pt_clust_8="13000.00000" pt_clust_9="13000.00000"></scales>
<clustering>
<clus scale="   88.394">  7  8 -1 -1</clus>
<clus scale="   90.656">  5  6 -1 -1</clus>
<clus scale="  106.265">  1  7  2 -1</clus>
<clus scale="  171.455">  5  9 -1 -1</clus>
<clus scale="  382.868">  2  5  1 -1</clus>
</clustering>
</event>
